QMMM reactant CHA#2 frame 38344
 55680
  29.6262245  47.6873016  32.5938988  30.0495224  48.5058365  32.1804695
  28.8516884  47.8924370  33.2088089  30.3500748  47.3901482  33.2325249
  29.3227730  46.6873093  31.5747757  28.5842628  47.1985703  30.9572601
  30.5611534  46.3705826  30.7432365  31.0682163  47.2811203  30.4240074
  31.2583237  45.7477303  31.3036995  30.1521931  45.5548210  29.5103588
  29.7826576  44.5720825  29.8032265  29.3737335  45.9692726  28.8697796
  31.6847134  45.1250191  28.5985451  31.4606571  46.2396889  27.2255020
  30.4096298  46.2136993  26.9377975  31.6907902  47.2636681  27.5197906
  32.0738297  46.0405464  26.3466034  28.6290131  45.5062752  32.2139091
  28.8082428  45.1793327  33.3909760  27.7267532  44.8620529  31.5364838
  27.5088482  45.3278046  30.6671772  27.0352039  43.6078873  31.9282932
  26.8721046  43.7118607  33.0009956  25.5972080  43.6146469  31.3036423
  25.5698090  43.6285515  30.2140732  25.0925961  42.7092667  31.6409111
  24.8104115  44.9184723  31.5619698  25.0315495  45.7441330  30.8855953
  25.1072712  45.3602371  32.5131874  23.0619240  44.6072922  31.4402466
  22.6282253  46.2377052  32.1306915  23.0858765  46.9938431  31.4927979
  22.8705044  46.3862076  33.1829987  21.5567913  46.4378929  32.1386681
  27.7983265  42.3295441  31.6863632  28.8344517  42.3017921  30.9985619
  27.3061733  41.2478561  32.2399368  26.4388371  41.3188400  32.7525635
  27.8450508  39.8286018  32.1913147  28.7513676  39.9017792  31.5901928
  28.2701015  39.3120995  33.5869102  27.3421707  39.0322800  34.0856667
  29.1081905  38.0070877  33.4636078  28.4782372  37.2647667  32.9734917
  30.0680370  38.1867828  32.9793510  29.2866974  37.6915016  34.4915390
  28.9481716  40.4632416  34.4182472  28.2861004  41.3013306  34.6359024
  29.0660915  39.9855576  35.3908844  30.2634487  41.0062332  33.9734421
  31.0600185  40.2666512  33.8922691  30.2846603  41.4614410  32.9832726
  30.6192112  41.7375870  34.6991577  26.8323936  38.9528961  31.3709698
  25.6550598  38.9837990  31.6904144  27.2539978  38.0944405  30.4660988
  28.2471504  37.9736519  30.3276806  26.3981667  37.1344376  29.6787224
  25.4539948  37.1002502  30.2222919  26.2250137  37.7794456  28.3118382
  27.0925789  38.3538132  27.9869766  26.1721268  36.9984970  27.5532703
  24.9820423  38.6520004  28.1394615  24.7553673  38.6215973  27.0737247
  24.1548481  38.1461487  28.6374187  25.0757065  40.1808205  28.4815083
  25.1713810  40.1798363  29.5673027  25.9563313  40.6241760  28.0167141
  23.8548908  40.9426651  28.2181244  22.9995499  40.4827080  28.4954891
  23.8033180  42.2519493  28.0877380  24.8608475  42.9958000  27.8320541
  24.7608547  43.9555473  27.5337467  25.7439938  42.5407906  27.6500702
  22.7579250  42.9231606  28.2746067  21.9477730  42.4627914  28.6642418
  22.7694931  43.9307899  28.2064571  27.1352310  35.7570801  29.6413307
  28.3464127  35.7037201  29.6014652  26.3503571  34.7240067  29.4711685
  25.3611832  34.9103775  29.3881016  26.8395138  33.3524132  29.2870350
  27.8913898  33.2177887  29.5390968  26.3348255  32.6691170  29.9700413
  26.7082424  32.9488335  27.7917233  25.8789139  33.3599014  27.0201473
  27.7650909  32.2248688  27.4381447  28.4767609  31.9365749  28.0942802
  27.9250870  31.5740147  26.1562557  26.9733562  31.8022575  25.6764469
  29.1179504  32.1402817  25.3030109  30.0244560  31.6900120  25.7074909
  29.0236053  31.6101513  23.8688278  29.8155289  32.0137138  23.2378750
  29.0227833  30.5202904  23.8514347  28.1251831  32.0746346  23.4623890
  29.2035713  33.6641617  25.3880939  28.2113132  33.9726753  25.0589371
  29.5142956  33.9715500  26.3866234  30.0367641  34.3958092  24.3453236
  29.8400707  34.1274223  23.3073521  29.7213249  35.4390144  24.3630657
  31.1044483  34.4035759  24.5646172  28.0425091  30.0842209  26.4036236
  28.6266193  29.6602993  27.3254585  27.5277500  29.2278156  25.4937172
  27.0606728  29.5939140  24.6764584  27.5855694  27.7345295  25.4880409
  28.2072449  27.3561649  26.2994957  26.1143513  27.2438164  25.6443291
  25.3758831  27.7872353  25.0548706  25.9417381  26.2552147  25.2189198
  25.5022087  27.2664452  27.0326500  25.6326942  28.2940197  27.3720093
  24.4400902  27.0312729  26.9640560  26.1484241  26.3103104  28.0098419
  27.0800152  26.7763596  28.3308353  25.5086460  26.1149120  28.8704300
  26.5808697  25.0259285  27.4235802  27.5230122  25.0253658  27.0596161
  25.8057613  23.9927902  27.1838188  24.5961227  23.8602619  27.6456223
  24.3914642  24.5672264  28.3373032  23.9350185  23.1044598  27.5369854
  26.2150402  22.9611244  26.4650288  25.5933704  22.1654549  26.4883003
  27.1535320  22.8762035  26.1015472  28.1815815  27.2161961  24.1625156
  28.1093941  27.9087467  23.1598167  28.7400017  25.9603920  24.1970577
  28.7902565  25.4512997  25.0679207  28.6140480  25.1161537  23.0592937
  27.6962738  25.3698177  22.5287781  29.4957352  25.3353310  22.4570560
  28.6381245  23.6355610  23.3455887  28.8613453  23.1374855  24.4802475
  28.4933853  22.8449516  22.3173943  28.2461529  23.2682285  21.4343243
  28.4650898  21.3803062  22.4952126  29.2828331  21.1763000  23.1864262
  27.1795464  20.8739223  23.0214977  26.4291553  20.8312817  22.2320709
  27.1652508  19.9141846  23.5380249  26.8770256  21.5130920  23.8509808
  28.9466209  20.5911789  21.2228012  28.3484135  20.7994442  20.1828594
  29.8399467  19.5972843  21.3393097  30.1680756  19.3190308  22.2530975
  30.3982925  18.9127712  20.1678982  29.7874966  19.0478992  19.2752800
  31.7297211  19.4720764  19.7042503  31.5403538  20.4953117  19.3798409
  32.7409401  19.4836483  20.8504353  32.7702866  18.5560246  21.4220543
  33.7398109  19.7071991  20.4757557  32.4836121  20.3549709  21.4526634
  32.3264503  18.7437229  18.5740471  32.9384346  19.4193573  18.2730522
  30.6391315  17.3933487  20.4829521  30.6531200  16.9340191  21.6664906
  30.7696495  16.4738674  19.5739670  30.7247028  16.7996101  18.6189957
  30.8653507  15.0068941  19.7624607  30.8233891  14.8055677  20.8328838
  29.6297703  14.3001328  19.2093773  29.7068558  13.2128830  19.2161274
  28.4241009  14.6281118  20.1154366  27.5236950  14.2169294  19.6590405
  28.5541534  14.1305923  21.0765152  28.2132034  15.6832447  20.2895527
  29.3875694  14.6973791  17.9067612  29.8267326  13.9729843  17.4551105
  32.1200867  14.5197458  19.0840912  32.3124924  14.9067259  17.9414482
  32.9494553  13.7670021  19.7459812  32.7034760  13.3478060  20.6313457
  34.0551147  12.9956980  19.1474228  34.2930222  13.5470514  18.2377472
  35.2476120  12.8202696  20.0764675  36.0311127  12.2206383  19.6131306
  35.9352798  14.1532593  20.4686356  36.8979759  14.0638809  20.9719505
  36.0257988  14.7512760  19.5618382  35.2296143  14.6242933  21.1529312
  34.8988113  12.0067978  21.3438282  33.8655281  12.2227240  21.6154861
  34.9058380  10.9428329  21.1071091  35.6888161  12.2403831  22.0575714
  33.5288162  11.6671743  18.5728436  32.4937477  11.1617384  18.8861294
  34.4282379  11.0612030  17.7433605  35.2862396  11.5055971  17.4493446
  34.1624756   9.7285471  17.2943058  33.1542397   9.3511600  17.4650364
  34.4379349   9.6383619  15.7737331  35.4346428   9.9703884  15.4831600
  34.3081512   8.6210175  15.4045887  33.4642181  10.4047432  14.9378166
  33.5047646   9.9959164  13.9282045  32.4769821  10.1646214  15.3325539
  33.5931549  11.9164267  14.9458790  32.5873756  12.6663113  15.1779623
  34.7018776  12.4601040  14.6621895  35.0592728   8.7017412  18.0347824
  34.8331413   7.5059056  17.9310760  36.0950966   9.0985508  18.8438454
  36.3212204  10.0826435  18.8668747  36.8465538   8.2119312  19.7224140
  36.1814270   7.4036484  20.0263577  37.9014969   7.3679285  18.8967991
  38.2752876   6.4951735  19.4322243  37.3665619   7.0272965  18.0102806
  39.1102829   8.1819830  18.3065643  38.7258530   9.0495367  17.7702103
  39.7984009   8.5246639  19.0793266  39.9692841   7.3567233  17.4279137
  40.2738113   6.4598198  17.9672928  39.3452644   7.2059274  16.5470257
  41.1038818   8.0743151  17.0102749  40.8717384   8.7285614  16.2766705
  42.3707542   7.7519102  17.2018471  42.8554840   6.9684644  18.1098213
  43.8610725   6.8857574  18.1550922  42.2662239   6.5739336  18.8290024
  43.3402061   8.2843332  16.5474148  44.2957649   8.0918093  16.8118858
  43.1795845   8.9697800  15.8232164  37.4705315   9.0067444  20.8986645
  37.7980690  10.1208687  20.7711353  37.5227165   8.2722712  22.0107136
  37.0486794   7.3816028  22.0565147  38.1261101   8.6521902  23.2931194
  37.7332306   9.6254330  23.5873013  37.5493317   7.7045598  24.3090858
  36.4593353   7.7083292  24.3090725  37.8364296   6.6960101  24.0115814
  38.1025429   7.9669142  25.6861286  38.5087051   9.0953541  26.0740128
  38.1638298   7.0019164  26.4444847  39.6562729   8.6116467  23.2389812
  40.2129669   7.5962820  23.6026020  40.3666992   9.7038269  22.7978706
  39.8449059  10.5357819  22.5618992  41.8092232   9.8733711  22.9868355
  41.9870338   9.2975855  23.8951054  42.7534409   9.2182426  21.9458122
  42.4697914   8.1677027  22.0091305  42.6548119   9.7881842  20.5347500
  43.1613693   9.0331926  19.9335098  41.5993652   9.8835392  20.2797127
  43.0891151  10.7633543  20.3144722  44.0589104   9.2768126  22.3410625
  44.4726639  10.0913677  22.0462570  42.1693382  11.3256464  23.1595173
  41.4763870  12.2328300  22.7510605  43.2461739  11.5830154  23.9152946
  43.6946449  10.7879276  24.3475075  43.5315208  12.9053469  24.4530048
  42.7015762  13.0825729  25.1370239  44.9651489  12.7512531  25.2526855
  44.6426086  12.2072954  26.1404781  45.7495575  12.2544909  24.6816864
  45.5677910  14.1719713  25.5905342  46.1850853  14.5855093  24.7930126
  44.7399178  14.8337498  25.8450451  46.4953957  14.1405859  26.8132248
  46.3263550  14.9759684  27.8033371  47.4813271  13.3757133  26.7390194
  43.5423775  14.0273533  23.4061680  42.7929649  14.9612570  23.5563164
  44.4256287  13.8528633  22.3997097  44.8135300  12.9334002  22.2440739
  44.6352539  14.7631731  21.2810478  44.8888054  15.7358475  21.7026234
  45.8845711  14.3324080  20.4951687  46.2471619  15.1644459  19.8915596
  46.6876221  14.0985632  21.1941147  45.7282524  13.1491089  19.5805607
  44.7172813  13.1954994  19.1757259  46.4721489  13.2231665  18.7873192
  46.0354271  11.7666531  20.3145733  45.3363304  11.4710646  21.3034725
  46.9121552  10.9869900  19.9120884  43.4032974  14.8817387  20.3707066
  43.2350998  16.0080776  19.8932400  42.5336494  13.8857450  20.1620064
  42.6796074  13.0995960  20.7790680  41.2204895  14.0647583  19.4953251
  41.3276901  14.6005888  18.5521927  40.5970802  12.6622057  19.2310390
  40.7255249  12.0851021  20.1467667  39.5539322  12.8522100  18.9783764
  41.1847229  11.9304276  17.9596329  42.2357216  11.6875610  18.1162338
  40.6178246  11.0008192  17.9090328  41.0691109  12.6762075  16.6660767
  41.8777199  12.2936716  15.7946596  40.3840446  13.6628113  16.4507294
  40.2843170  14.9746904  20.3295193  39.5634537  15.8283720  19.7913074
  40.1194153  14.7502766  21.6614876  40.6394463  14.0182981  22.1239548
  39.2824631  15.5694494  22.5001221  38.2725067  15.5576382  22.0903053
  39.1820679  14.9307404  23.9131374  40.1815224  14.8182430  24.3332996
  38.5661926  15.9026518  24.9403610  37.8404503  16.5640564  24.4671383
  38.0199966  15.4229889  25.7525768  39.3766327  16.4884300  25.3741150
  38.4708519  13.5585289  23.7252865  37.5249557  13.6361122  23.1892204
  39.0958481  12.9101715  23.1111908  38.1839714  12.8387032  25.0385418
  39.0926628  12.6697865  25.6163445  37.5272675  13.3924217  25.7095375
  37.8664436  11.8192291  24.8195705  39.7498779  16.9873581  22.5415401
  38.9130020  17.9133759  22.4677525  41.0817642  17.2297955  22.7245846
  41.7046890  16.4475346  22.8664608  41.4974365  18.6503487  22.8552914
  40.7321663  19.0631027  23.5126343  42.8792152  18.7289124  23.5228405
  43.5133018  18.1305256  22.8686447  43.1050949  19.7950726  23.5424080
  42.9637184  18.1728115  24.9522057  42.6986351  17.1155510  24.9455547
  44.3520279  18.3868904  25.3943329  44.6232758  17.6952171  26.1919079
  44.9751396  18.0349255  24.5721684  44.4894142  19.4564152  25.5535278
  41.9842529  18.8253746  25.9771843  40.9789543  18.4665184  25.7565231
  42.2360611  18.4376202  26.9642715  42.0433655  19.9134274  26.0044460
  41.5566559  19.2395554  21.4847813  41.3479195  20.4073410  21.3373947
  41.7913780  18.4919472  20.3914413  41.9922791  17.5070820  20.4903259
  41.5495796  19.1259785  19.0706615  42.1381683  20.0423279  19.0263081
  41.9494629  18.0759678  17.9715786  42.9974785  17.8259983  18.1367340
  41.3346901  17.1766548  18.0089569  41.7566566  18.6153355  16.5391674
  40.7407341  18.9639721  16.3535614  42.4746742  19.4141140  16.3534145
  42.0253220  17.6051693  15.4048843  42.5876770  16.4541054  15.4700184
  41.7583466  17.9892960  14.2516327  41.3099213  18.8698883  14.0428877
  41.9063797  17.3754101  13.4633875  40.1162300  19.5433521  18.7758694
  39.9097366  20.7104664  18.4099731  39.1083412  18.6886864  18.9082489
  39.4269905  17.7702465  19.1821632  37.7207031  19.1075420  18.7631531
  37.5949707  19.4987755  17.7535858  36.7266655  17.9122181  18.8971920
  36.8459015  17.3600368  19.8293839  35.7273407  18.3209229  19.0468960
  36.6078758  16.9935608  17.6615810  36.9069366  17.6312447  16.8297024
  37.3242226  16.1822491  17.7908897  35.1555481  16.5840397  17.3995724
  34.6387634  16.1419334  18.2513790  34.5301285  17.4264050  17.1039906
  35.2133255  15.5299578  16.3705807  35.8493652  15.7668886  15.5176935
  35.7174072  14.6426945  16.7536774  33.8567047  15.1621256  15.7936440
  33.0843010  15.1976233  16.4434376  33.5379868  15.7448654  15.0327635
  33.8124924  14.2140779  15.4481716  37.3139687  20.2243385  19.7277832
  36.6470337  21.1701603  19.3604870  37.7729568  20.2006245  21.0132065
  38.1450310  19.3043518  21.2931309  37.3099632  21.1810455  21.9970989
  36.2566109  21.3613338  21.7825089  37.5393944  20.7241898  23.4592094
  38.6159592  20.8117523  23.6056290  36.7923508  21.6201992  24.3946724
  36.9401741  21.2101650  25.3937378  37.1883392  22.6355686  24.3767967
  35.7223511  21.6719246  24.1933727  37.1685219  19.3702297  23.5895100
  37.7896156  18.7568188  23.1900444  38.0937462  22.5143986  21.7422390
  37.4585114  23.5699844  21.7927666  39.3355026  22.5190887  21.1881733
  39.8336487  21.6447906  21.1012611  39.9647942  23.7291489  20.8018322
  39.8397751  24.5237961  21.5373669  41.4682961  23.3445454  20.5819912
  41.9639206  23.0181255  21.4962730  41.5932617  22.6808701  19.7264061
  42.2376099  24.6350632  20.1222382  41.7983513  25.1814709  19.2876186
  42.2774658  25.2198925  21.0412025  43.7234993  24.3586826  19.9292393
  44.0563278  23.8708973  20.8454247  43.9982452  23.6586342  19.1402225
  44.5351753  25.6262798  19.5708427  44.0696526  26.2024193  18.7711849
  44.6888847  26.2073650  20.4801350  45.8416595  25.2255459  18.9617538
  46.3470078  25.9830284  18.5247860  46.3440475  24.5853386  19.5599556
  45.6225929  24.5886593  18.2091007  39.3390388  24.2823009  19.5001507
  39.0701561  25.4686947  19.4101486  38.8502884  23.4395695  18.5682125
  39.0048637  22.4418278  18.5949898  38.0183754  23.9471436  17.4500275
  38.5790138  24.7956161  17.0577488  37.9721260  22.9258881  16.2771683
  37.5566330  22.0006142  16.6763325  37.3222923  23.3721981  15.5244236
  39.2080650  22.6007900  15.5688972  39.8157196  21.9947357  16.2408752
  39.0049324  22.0500164  14.6504793  40.0166969  23.8571892  15.2234364
  39.5933876  24.7264175  14.4782114  41.1580849  24.0596886  15.7802315
  41.5554276  24.9779606  15.6424103  41.7847939  23.3697262  16.1691895
  36.6841545  24.4396782  17.8960094  36.1264534  25.3365688  17.2906799
  36.0386238  23.9947643  19.0266323  36.4728394  23.1959648  19.4664936
  34.7301826  24.6820564  19.5296917  34.1088562  24.7706547  18.6385078
  34.0740509  23.6761017  20.5693150  33.9300804  22.7903881  19.9505386
  34.7747536  23.5546227  21.3953667  32.6904030  24.1040573  21.1473026
  32.6884155  25.1556263  21.4341793  31.5195389  23.9383106  20.1362209
  30.6060066  24.1970901  20.6715660  31.6742287  24.5904140  19.2766075
  31.2945271  22.9112606  19.8487320  32.4397888  23.4050694  22.4279118
  33.3245583  23.4668350  23.0615196  31.6430836  23.9522762  22.9318199
  32.1410675  22.3633270  22.3111115  34.9904213  26.0202522  20.2111206
  34.2607536  27.0259476  19.9629879  36.0924606  26.1365395  20.9641113
  36.6309433  25.2873878  21.0593967  36.5170708  27.3291492  21.6478977
  35.7183266  27.8315105  22.1935520  37.6620674  26.9743671  22.5597477
  38.3610725  26.3200912  22.0387726  38.1992302  27.8649120  22.8860741
  37.3352470  26.2620773  23.8594952  36.7172928  25.3853645  23.6655636
  38.6101456  25.9148273  24.7518120  38.3420067  25.4636707  25.7071476
  39.2215042  25.2464027  24.1455498  39.1215553  26.8682671  24.8841496
  36.4895134  27.2503777  24.7178688  35.5254784  27.3417854  24.2174969
  36.2119331  26.8130360  25.6769218  37.0869560  28.1344604  24.9404964
  36.9422798  28.4372540  20.6778717  36.7341385  29.6200447  20.9486599
  37.6608238  28.0375023  19.6450367  38.0187035  27.0941277  19.5995636
  37.9853439  28.9080505  18.5305729  38.5961342  29.7458153  18.8670120
  38.8934593  28.1786785  17.5388260  39.7264442  27.7952271  18.1280651
  38.4227142  27.2764931  17.1482239  39.4852333  29.0798798  16.4710979
  39.7267990  30.0629559  16.8752098  40.4777832  28.8187790  16.1039772
  38.6129723  29.2924538  15.2121859  39.1387825  29.9921284  14.3056145
  37.5326500  28.7159786  14.9627361  36.6785355  29.4932175  17.8363094
  36.5760498  30.6701927  17.4712849  35.7869415  28.6204300  17.4611588
  35.9466667  27.6308270  17.5847511  34.4769859  29.0012627  16.8572159
  34.6678162  29.6376991  15.9931383  33.7086906  27.7625179  16.4946575
  34.3798561  27.2243385  15.8253298  33.6049156  27.1376057  17.3816853
  32.2738762  27.8680611  15.8144474  31.9091949  26.8554382  15.6421156
  31.5308781  28.3620834  16.4405441  32.5313797  28.4780045  14.3919268
  33.0812492  29.4116325  14.5105972  33.2596321  27.7791481  13.9804029
  31.2639160  28.6693783  13.5634651  30.7178268  27.7671642  13.2879763
  30.4950027  29.1028996  14.2029428  31.6255836  29.4272804  12.2917042
  31.7017460  30.4335461  12.3333139  32.5197449  29.1349239  11.9241276
  31.0043106  29.3647404  11.4978476  33.6302872  29.9189835  17.7746887
  32.9130135  30.8523922  17.3404350  33.5218544  29.7042198  19.1050758
  33.8162155  28.8057365  19.4602947  33.0249481  30.6930618  20.0888863
  31.9568367  30.8688507  19.9610748  33.1545105  30.1076050  21.4800205
  34.1386909  29.6618137  21.6240997  32.8953247  31.1956596  22.5416012
  33.6906357  31.9374046  22.6150360  31.9544601  31.6749554  22.2711449
  32.7837639  30.7330742  23.5222530  31.9563961  29.1280804  21.6104755
  31.0421104  29.6262150  21.9330463  31.7601681  28.6390247  20.6563168
  32.1439209  28.1497993  22.6857109  32.3876381  28.6600590  23.6175556
  31.3030930  27.4563503  22.7010632  32.9801979  27.4896393  22.4556370
  33.6114159  32.1172142  19.9583168  32.8727188  33.0440292  19.7686863
  34.9126663  32.1981544  19.8300819  35.5072784  31.4056892  20.0263844
  35.5508575  33.5053940  19.4785709  35.1103363  34.2175140  20.1763706
  37.1028481  33.4269600  19.6621990  37.4961205  32.6368141  19.0225830
  37.7967720  34.6348801  19.1221066  37.5613785  35.4958839  19.7476921
  38.8747063  34.4805450  19.0737762  37.4262314  34.9426880  18.1443253
  37.4449120  33.1308327  21.1504364  37.1524010  33.9434547  21.8153954
  36.9922256  32.1925316  21.4710121  38.9766083  32.8679848  21.2144260
  39.6491394  33.7218094  21.2968273  39.0825882  32.3697777  22.1780949
  39.3054314  32.1931305  20.4241409  35.1280594  33.9544563  18.0441914
  34.8363304  35.1542740  17.8865089  35.0193100  33.1209450  17.0143318
  35.3515282  32.1759491  17.1436348  34.6898422  33.5144920  15.6245165
  35.2354546  34.4266739  15.3830070  34.9187202  32.2973480  14.7075071
  35.8483696  31.8394737  15.0454445  34.1127357  31.5718498  14.8177233
  35.2002907  32.6664772  13.2611866  35.3170967  31.7569580  12.6719217
  34.4300842  33.2636490  12.7730637  36.5287666  33.3934479  13.0624037
  36.6360016  34.2424316  12.1446524  37.4805107  33.1412315  13.8089075
  33.2238770  34.0632515  15.5295372  32.8822937  34.8578796  14.6434212
  32.2883224  33.6382446  16.4048729  32.4654999  32.8805885  17.0488167
  30.9124012  34.0944519  16.3689308  30.7217121  34.4745750  15.3653145
  30.0014229  32.9108047  16.7780685  30.3205032  32.5702705  17.7631187
  29.0443535  33.4018669  16.9540653  29.7350578  31.7949409  15.7241573
  30.6370888  31.2809200  15.3921604  29.1098633  31.0916462  16.2742634
  28.9069023  32.2063560  14.4926262  29.2336979  33.2226753  13.8423700
  27.8875618  31.5738239  14.2059841  30.6993980  35.2825317  17.3277702
  29.8150635  36.1017151  17.0517559  31.4564381  35.2825890  18.4315815
  32.1947861  34.6294518  18.6514626  31.2285595  36.1890945  19.5852509
  30.3255043  36.6750298  19.2158356  30.9426327  35.4052582  20.8184624
  31.7012138  34.6695938  21.0857639  30.9607601  36.0830002  21.6719475
  29.6535187  34.6137924  20.6055851  28.6005573  35.1766357  20.6538258
  29.8045540  33.3825150  20.2467728  28.9354687  32.8778954  20.1460133
  30.6769447  32.9864349  19.9271526  32.2926826  37.2707405  19.8070583
  32.0453110  38.0934563  20.7241631  33.4044189  37.2407570  19.0797367
  33.5057907  36.5428467  18.3567238  34.6192818  38.0043945  19.1471691
  35.3477783  37.4755707  18.5325680  34.5042076  39.3948975  18.5017395
  33.9533386  40.0736732  19.1528244  35.5614243  39.6489296  18.4251595
  33.9308701  39.3344765  17.1010742  34.2409172  38.3804131  16.1515388
  34.8756981  37.6027985  16.2631893  33.5215378  38.6387978  15.0749569
  33.6233826  38.0554733  14.1717615  32.8877220  39.7620964  15.2125263
  32.4173279  40.2060165  14.4367924  33.0429039  40.2094269  16.4882965
  32.4008560  40.9716034  16.9045448  35.0724716  38.1637459  20.6450729
  35.5254288  39.2513123  21.0556927  35.1071548  37.0533028  21.3580704
  34.7261734  36.2138290  20.9454594  35.5492973  36.9625015  22.7369690
  35.1447945  37.8597107  23.2054672  34.9969864  35.7234535  23.4932404
  35.3850250  34.8000565  23.0632877  35.1749153  35.7727623  24.9965019
  36.1869011  35.9781723  25.3455067  34.4843941  36.5085831  25.4086227
  34.7657394  34.8343277  25.3706932  33.5584717  35.5343666  23.3568878
  33.1887169  36.4196358  23.3913155  37.0830002  37.0877380  22.7630424
  37.8211212  36.4298096  22.0031872  37.5221481  37.7573624  23.8308449
  36.8653717  38.2870560  24.3859768  38.9920006  37.8373299  24.2510948
  39.4857254  37.0706558  23.6539783  39.4652863  39.2471428  23.8092289
  40.5467033  39.1753120  23.9253178  39.3905258  39.3786240  22.7297688
  38.8968353  40.4912758  24.5668354  37.8618584  40.7290382  24.3210926
  38.9506187  40.4134865  25.6527271  39.7411804  41.8098335  24.3774757
  40.7529068  41.4973221  24.6360245  39.8153343  42.1832008  23.3561039
  39.3200188  42.9057655  25.3563213  39.5940742  42.5705414  26.3566322
  39.8517952  43.8254166  25.1122818  37.8393364  43.1460190  25.4010849
  37.3940277  42.3774529  25.8818226  37.6252747  43.9748268  25.9371452
  37.4977226  43.2428246  24.4555531  39.2172394  37.5769005  25.7317142
  38.2481384  37.6763878  26.4653339  40.3256569  36.9545555  26.0937347
  41.5400581  36.6517143  25.3039856  41.8905907  37.5906334  24.8754272
  41.2538757  35.8945389  24.5739975  42.4460030  35.9752083  26.3463955
  43.0522537  36.6767006  26.9195194  43.0825768  35.3276215  25.7434807
  41.5205917  35.1664619  27.1908188  41.9429016  34.9130211  28.1631985
  41.2029839  34.2244759  26.7437210  40.2486343  36.0675278  27.2664871
  39.3689651  35.4243507  27.2418175  40.1513329  36.9001999  28.6892605
  39.5724297  36.4166908  29.6344509  40.5821838  38.1785088  28.6949444
  41.1711769  38.4865990  27.9345055  40.5067596  39.0373688  29.8696594
  40.9968224  38.5471153  30.7108421  41.2737961  40.3654060  29.6702080
  41.1515427  41.0858955  30.4789429  42.3400307  40.1463585  29.6130714
  40.7595253  41.0961151  28.3645802  39.7897720  40.7286835  28.0289116
  40.7145348  42.1550255  28.6191082  41.7375870  40.9407539  27.2623177
  42.2004623  41.9828758  26.7681561  42.1380997  39.8262787  26.8614769
  39.0579338  39.3585625  30.3742561  38.8456917  39.6013107  31.5459270
  38.1048775  39.1006355  29.5062447  38.3606834  38.8999557  28.5500069
  36.6978607  39.3274612  29.8421650  36.5711594  40.0718727  30.6282349
  36.0322990  39.7749596  28.5439320  36.1022835  38.9963837  27.7843132
  34.9754868  39.9296913  28.7614250  36.6527061  41.0963707  28.0033951
  37.2219086  41.8814545  28.7647743  36.4573555  41.4233246  26.7904339
  35.9871597  38.1303139  30.3773918  34.7993279  38.2793694  30.7025852
  36.5077324  36.9155464  30.2786865  37.4373550  36.8331947  29.8925304
  35.8501167  35.7201614  30.7731552  34.7740707  35.6943016  30.6012459
  36.5233803  34.4311333  30.1964855  37.5675316  34.4717865  30.5066395
  35.7907410  33.1830215  30.6163254  36.0085487  32.3671303  29.9271412
  36.0974884  32.9141159  31.6271133  34.7038612  33.2631226  30.5968647
  36.5508499  34.5530434  28.6604156  36.8416061  33.5763626  28.2735596
  35.5740585  34.8242493  28.2598763  37.2559700  35.3061485  28.3086548
  36.0362968  35.5922318  32.2427444  37.0899010  35.8282204  32.7727814
  34.9539185  35.2127838  32.9296341  34.1150436  35.0160255  32.4026871
  34.8629074  34.9869461  34.3810997  35.4145203  35.8081894  34.8386879
  33.3867645  35.0355301  34.7866898  32.7621078  34.4280815  34.1317787
  33.1040802  34.7358971  36.3069191  32.0332336  34.8301239  36.4872208
  33.3204117  33.6697426  36.3748436  33.7122612  35.2655449  37.0401917
  32.7175140  36.4324799  34.5659676  33.0350533  36.9243736  33.6465607
  31.6470127  36.2385216  34.4988480  33.0097771  37.1451225  35.3372192
  35.6027031  33.6939735  34.7926178  36.6873283  33.7264061  35.3970909
  35.0739708  32.6020660  34.2021332  34.2289238  32.7954750  33.6838722
  35.5915642  31.2035484  34.4805641  36.6615486  31.1347942  34.2843399
  35.2599716  30.7756062  35.9307060  35.7728233  29.8409805  36.1577644
  35.6427727  31.5806999  36.5579147  33.7198524  30.5743675  35.9892616
  33.1980057  31.0854988  35.1802368  33.6001549  29.4960423  35.8844070
  33.1666794  30.9503841  37.3924179  33.8055878  31.4986401  38.2543983
  31.9024277  30.6634541  37.6044121  31.6363220  30.9990215  38.5191154
  31.2738857  30.3180809  36.8932495  34.9437065  30.3391666  33.4088783
  34.0406723  30.7486973  32.7045593  35.3251648  29.0197582  33.3588905
  36.0455399  28.7645741  34.0192223  34.6721306  28.0447578  32.4753952
  33.6952171  28.4260464  32.1781578  35.4728279  27.9976749  31.0937290
  35.2723427  28.9526196  30.6079445  36.5570793  27.9443798  31.1919975
  35.0615349  26.9527321  30.1719208  34.7993851  26.0813999  30.7720509
  34.1003914  27.2387924  29.7447529  36.1736565  26.5584621  28.7696095
  36.1565590  28.1932735  28.0398903  35.1149826  28.4117012  27.8043118
  36.4648438  29.0076180  28.6955605  36.5936928  28.2859135  27.0456905
  34.4543190  26.6623707  33.1210518  35.3240623  26.1743469  33.8339386
  33.2912254  26.0817013  32.9296150  32.6505394  26.6494293  32.3936043
  32.8325043  24.7570629  33.3145714  33.4173355  24.3422909  34.1355667
  31.4257603  24.9101048  33.8564911  30.9397659  25.5513592  33.1211662
  30.9423199  23.9335766  33.8285027  31.1516094  25.4403305  35.2234573
  31.2122593  24.6713142  35.9935493  32.1571274  26.5656605  35.6773529
  32.1634102  27.4507065  35.0411453  31.8558941  26.8988876  36.6704903
  33.1213417  26.1606159  35.9844780  29.7426872  26.0409164  35.3482513
  29.6157913  26.3955097  36.3711243  29.6820374  26.9258385  34.7147408
  28.9433022  25.3377666  35.1144485  32.8718567  23.8212776  32.0430412
  32.4504890  24.1945114  30.9804592  33.5373840  22.7035370  32.1173706
  33.9162560  22.4569855  33.0205688  33.6510773  21.6769009  30.9942455
  33.1649055  21.9566689  30.0596504  35.1512108  21.4280910  30.6011505
  35.7929459  21.0865440  31.4133224  35.0469666  20.7062912  29.7910671
  35.7472382  22.7411194  30.0116100  34.9317207  23.3913975  29.6951180
  36.4607048  23.5584621  31.1239376  36.8858032  22.9881802  31.9498634
  37.0516548  24.3172150  30.6109371  35.7124557  24.1097813  31.6933861
  36.6677895  22.5221252  28.8214645  36.1228371  21.9896622  28.0419750
  36.9602585  23.4388542  28.3094406  37.5559921  22.0225830  29.2083149
  33.0884361  20.2899742  31.4818649  33.2219467  19.8143520  32.6066170
  32.6266556  19.5055656  30.4666862  32.5605850  19.8388252  29.5155430
  32.3042908  18.0910587  30.6593933  32.9289131  17.7017059  31.4633541
  30.8547878  17.9005756  31.0969276  30.7415562  16.8564377  31.3885670
  30.8405666  18.4953747  32.0102310  29.8134098  18.3080673  30.1715851
  29.6602039  17.6050014  29.5361118  32.6000481  17.2297440  29.4183655
  32.5051727  17.7329235  28.3101501  32.8650513  15.9846573  29.6509628
  32.9449844  15.7612104  30.6326866  32.9590645  14.8275251  28.7518749
  32.7271843  15.0438356  27.7090206  34.4271317  14.2630501  28.9337463
  35.0249977  14.7511406  28.1640549  34.8373146  14.4089985  29.9330196
  34.3634529  13.1835489  28.7969303  31.9538307  13.7815189  29.2469311
  31.8269444  13.5243969  30.4027500  31.3531666  13.0320950  28.3343201
  31.3391895  13.2950068  27.3592396  30.3515167  11.9250002  28.6407242
  29.5336189  12.2618971  29.2776260  29.6959209  11.3667088  27.3725624
  29.2998352  10.3754292  27.5929699  28.4022655  12.0697155  27.0069218
  28.0776157  11.7728043  26.0096512  27.6533432  11.9450455  27.7890167
  28.5706997  13.1463737  26.9837570  30.5326138  11.3143568  26.2411919
  30.6372261  10.3835115  26.0309849  31.0245667  10.7579317  29.4274426
  32.2540779  10.5887423  29.2831802  30.2125835   9.9352169  30.1116447
  28.7738876  10.0842876  30.3148651  28.2063198  10.3807898  29.4327908
  28.5461559  10.7833652  31.1195583  28.3499451   8.6746445  30.6272144
  28.2562542   8.0771379  29.7204037  27.3972874   8.7373695  31.1531525
  29.4975815   8.1377354  31.4963779  29.4264050   7.0516376  31.5548992
  29.3921375   8.5782166  32.4878197  30.6761532   8.7225599  30.8042068
  31.4442463   9.0081797  31.5229244  31.3873844   7.6374936  29.9268227
  32.1581497   6.8095932  30.4418640  31.2656918   7.7347131  28.6074314
  30.7411652   8.5169334  28.2426090  31.9587803   6.8701081  27.6328545
  32.1698303   5.9261475  28.1353436  30.9781322   6.4498649  26.4333229
  31.4254608   5.7474322  25.7300529  30.0580521   5.9959183  26.8014050
  30.4659424   7.5932722  25.4915085  29.7469978   7.2789588  24.5204792
  30.7297497   8.8150511  25.7484150  33.3705978   7.4503570  27.2385006
  34.0942841   6.7666965  26.4484673  33.8142242   8.6294003  27.6625996
  33.2378426   9.1564360  28.3030014  35.1175995   9.3952608  27.3650227
  35.5668182   8.8201265  26.5553799  34.7768135  10.8139553  26.9141827
  34.2993584  11.3042469  27.7625637  35.6848869  11.4033947  26.7874050
  33.8857079  10.7761316  25.5920429  32.8979568  10.3384771  25.7366581
  33.6863632  12.2149391  25.3231163  34.6547012  12.6840000  25.1487446
  33.2173538  12.3509340  24.3486233  33.1863670  12.7724886  26.1151009
  34.5617561  10.1421947  24.3336678  35.5624504  10.4615183  24.0425549
  34.6113434   9.0815973  24.5801926  34.0118294  10.2841854  23.4033375
  36.0930824   9.5121307  28.5695000  35.6863213  10.1435938  29.5526352
  37.3327866   9.1056967  28.5488548  37.7892227   9.0379705  27.6504230
  38.1400261   8.9879084  29.7071514  37.8957672   9.7422276  30.4551105
  37.9911156   7.6773367  30.4647751  38.3051872   6.8368454  29.8458786
  38.6918945   7.6651659  31.2995567  36.6848030   7.4073963  31.1245594
  36.3996735   7.6437998  32.4717293  37.0588646   7.8568454  33.2066994
  35.0719070   7.4042778  32.7530594  34.4474297   7.5628304  33.6198311
  34.5658302   6.9507914  31.5762463  33.6085396   6.6575980  31.4430828
  35.5441589   6.9187188  30.5666122  35.3709221   6.6053801  29.5476818
  39.6253929   9.2739134  29.4141541  40.4075279   9.2253942  30.3998375
  40.1179314   9.6584034  28.2129593  39.5592766   9.4932861  27.3878880
  41.5428123  10.0581560  27.9256420  42.1335754   9.1564674  28.0870686
  41.6061707  10.4978533  26.5007248  41.3882751   9.5939207  25.9319305
  41.0394325  11.4110918  26.3193188  42.6646576  10.6188688  26.2703838
  42.1168671  11.1181288  28.8765182  43.3051567  11.0030537  29.1710243
  41.4171333  12.1886892  29.1981659  40.4750938  12.2197943  28.8352699
  41.9584770  13.4574623  29.8420086  42.5679588  13.2149649  30.7125454
  42.9234428  14.2479877  28.8712254  43.7335854  13.5573196  28.6372414
  42.3495026  14.8337231  27.6152573  41.4839592  15.4815693  27.7539062
  43.2008858  15.2604294  27.0850067  42.0731010  14.0205774  26.9440670
  43.7051010  15.3697662  29.6369209  44.7215080  15.5037489  29.2666836
  43.0913086  16.2703438  29.6547318  43.8153954  15.1128826  30.6904659
  40.8001328  14.3608294  30.1914921  39.8317528  14.3380890  29.5315437
  41.0773163  15.3266144  31.0546303  42.0476456  15.3726826  31.3311024
  40.3717117  16.5940132  31.2931118  39.3891983  16.2213192  31.5827122
  41.0454063  17.3329926  32.5200882  42.0700264  17.5504208  32.2184601
  40.3993378  18.1796131  32.7523193  41.0936546  16.5668049  33.8208656
  39.8832550  16.4303551  34.5841751  38.9725304  16.9379749  34.3025742
  39.8929176  15.7159529  35.7642632  38.9827309  15.7930660  36.3404655
  41.1175728  15.0859556  36.2201576  41.0404510  14.5705729  37.1661148
  42.2405319  15.1603956  35.4184227  43.1697388  14.7544794  35.7901840
  42.2398872  15.8730135  34.1680489  43.1046524  15.9412098  33.5246735
  40.2994270  17.4222946  30.0279427  41.2658157  17.9861507  29.5504799
  39.1061211  17.8156185  29.5306740  37.8293076  17.3179226  29.9188805
  37.7101746  17.2572575  31.0006523  37.6994743  16.3245487  29.4893970
  36.7759056  18.1560097  29.2975006  36.2645645  18.8916073  29.9184113
  35.9085732  17.5660152  29.0012722  37.4116859  18.8873844  28.2113857
  36.8434906  19.8160934  28.1589241  37.3184929  18.2261791  27.3498573
  38.9169540  18.8577080  28.5007458  39.3998299  18.5337582  27.5787983
  39.4975471  20.2955742  28.8954201  39.8011513  21.1499634  28.0837193
  39.6689034  20.5490055  30.2069511  39.5747299  19.8407764  30.9208508
  40.1936951  21.8812790  30.6607971  39.5545959  22.6430836  30.2143574
  40.2297211  21.9448433  32.1787796  40.8357811  22.7470360  32.5998154
  39.2196579  21.9401283  32.5884743  40.7209702  21.0457382  32.5507927
  41.6413422  22.1994038  30.0835972  41.9873886  23.3492870  29.7893085
  42.3599510  21.1239738  29.7225761  42.0880089  20.1880951  29.9876728
  43.7050667  21.2827206  29.0998688  44.2241516  22.0043373  29.7306862
  44.4982185  19.9996777  29.2763062  44.5906639  19.7742805  30.3387318
  43.8149185  19.1981525  28.9956627  45.8310661  20.0157776  28.4940109
  45.5744171  20.2026348  27.4512653  46.5672531  20.7285900  28.8655300
  46.5044632  18.6174030  28.7433243  46.8415146  18.4784927  29.7705555
  45.7369919  17.8646603  28.5631351  47.7222176  18.2164211  27.8720932
  47.3683052  18.2805862  26.8431473  48.5308342  18.9341164  28.0104961
  48.1758156  16.8465538  28.2427197  48.3173294  16.8440762  29.2427540
  47.5604210  16.0666847  28.0605164  49.0380859  16.6214294  27.7674274
  43.6200981  22.0231457  27.7158985  44.6374550  22.4943638  27.1681252
  42.4600716  22.1917648  27.0405254  41.6312485  21.6791534  27.3058205
  42.3657150  22.8326054  25.7287292  43.1681404  22.5109844  25.0648174
  41.0898552  22.3754387  25.1056232  41.1947632  21.3703957  24.6969872
  40.1426773  22.5477428  25.6167660  40.9837837  23.0952206  24.2939796
  42.5442810  24.3374844  25.9138222  43.2957382  24.9226437  25.1219940
  41.8764114  24.9012909  26.9857998  41.5343552  24.3031578  27.7242680
  41.7311935  26.3490562  27.1578445  41.1218872  26.6975327  26.3239326
  40.9601212  26.7731895  28.4261570  41.4275322  26.3880463  29.3324108
  40.8272552  28.2333984  28.6441727  40.2706909  28.4246273  29.5616493
  41.7976952  28.7117996  28.5119629  40.1666336  28.5658436  27.8434467
  39.5285950  26.1784439  28.2440643  38.8699341  26.7601566  27.5991802
  39.5285072  25.1505089  27.8815002  39.0571938  26.2430019  29.2247334
  43.0615349  27.0666504  27.0441074  43.2456551  28.0115700  26.2541847
  44.1414871  26.5240173  27.6275826  43.9015236  25.7610912  28.2444000
  45.5099792  27.1490841  27.5436802  45.3678665  28.2282181  27.6018085
  46.3489761  26.6232395  28.7162819  47.3251724  27.1081524  28.7154484
  45.9091873  26.8874283  29.6779957  46.5729599  25.1238747  28.8616371
  45.6138802  24.6145363  28.9556484  46.9875069  24.7003937  27.9468060
  47.3250122  24.8242722  30.1150608  48.3430138  25.1971283  30.0020981
  46.8165245  25.3440475  30.9270782  47.3256035  23.4160576  30.4643707
  47.9974327  22.7757587  30.0659218  46.5111923  22.7975807  31.2747326
  45.4445801  23.3811131  31.7267761  44.7451096  22.8235931  32.1958389
  45.1544800  24.3027191  31.4325256  46.6664886  21.5519848  31.6322308
  46.0026970  21.2893925  32.3467484  47.4853668  20.9751892  31.5024624
  46.2304306  27.0598335  26.2284069  47.3899345  27.4236755  26.1394978
  45.6006660  26.6241436  25.1292248  44.7038383  26.1707726  25.2304897
  46.1304131  26.6139793  23.7070580  47.2171059  26.6311321  23.6239929
  45.7079201  25.3466682  22.9990559  44.6277733  25.2033234  23.0279980
  46.1232681  25.3463802  21.9912930  46.2119255  24.0278816  23.6867847
  45.6818008  24.0123482  24.6390610  45.9314499  23.1108780  23.1685791
  47.7285233  24.1836720  23.9274597  48.4211235  24.4926949  22.9402962
  48.2479095  24.0105820  24.9970932  45.6718826  27.7346992  22.7951794
  46.1150055  27.8050175  21.6620178  44.8644409  28.5489388  23.4094467
  44.4541435  28.3300343  24.3060169  44.5034676  29.8260174  22.8019505
  44.7891273  29.7470112  21.7530193  42.9841194  30.1159782  22.6853600
  42.4977531  30.2021294  23.6570206  42.9662857  31.1049156  22.2273350
  42.1886978  29.1321926  21.7891788  42.8803825  28.6571655  21.0934658
  41.6513138  27.9574394  22.6436329  42.4199867  27.5771866  23.3164330
  40.8617058  28.3771477  23.2668991  41.2149467  27.1727085  22.0256691
  40.9049568  29.5700893  21.1096497  41.1478806  30.3549957  20.3934021
  40.4762802  28.6639862  20.6814976  40.1535835  29.8699989  21.8401222
  45.3650475  30.9563675  23.4349213  45.4803619  30.8649521  24.6636353
  45.7571297  31.9639874  22.6569538  45.6099052  31.9371052  21.6581039
  46.6189842  33.0729065  23.0923519  47.6237907  32.6975403  23.2862072
  46.8844185  33.9887009  21.8745861  47.3450356  33.4041824  21.0781746
  45.9347267  34.2525673  21.4092331  47.6711006  35.1399536  22.1234303
  47.4858131  35.7639580  21.4178219  46.0086708  33.8173141  24.2781448
  44.8274345  34.1866226  24.2363853  46.8264694  33.8005791  25.3571987
  47.6595192  33.2668037  25.1541862  46.5691299  34.3200378  26.7277603
  47.4083405  34.0671616  27.3757420  46.4611320  35.3903313  26.5519428
  45.2365189  33.7994041  27.4388428  44.9052124  34.4508438  28.4575253
  44.6106033  32.7394409  27.0249348  45.0772438  32.1639404  26.3385315
  43.4982033  32.0326500  27.8032875  42.8091316  32.7766266  28.2030029
  42.6874504  31.0679646  26.8947773  43.2508011  30.3274822  26.3269520
  41.9947128  30.4533195  27.4696026  41.7592087  31.7222157  25.8638115
  42.2513580  32.3923798  24.8099289  43.3122559  32.3564606  24.6109085
  41.2391548  32.9925232  24.1091042  41.3714638  33.5323257  23.2657738
  40.0100784  32.8647118  24.7618237  38.7927971  33.5350533  24.6016045
  38.6043549  34.3613663  23.9322052  37.7940063  33.1912041  25.4773216
  36.8739166  33.7511330  25.3978329  38.0198860  32.1631393  26.3890953
  37.1554146  31.7994366  26.9246387  39.2261772  31.5873051  26.6213989
  39.3853073  30.9218845  27.4570389  40.3235588  31.9565029  25.8333397
  43.9717484  31.0892448  28.9330711  43.1856651  30.6467857  29.7795258
  45.2989731  30.9287739  29.1294899  45.9385910  31.3465710  28.4688568
  45.8812256  30.1758652  30.2170029  45.4340248  29.1843891  30.1456776
  47.4565468  30.1091270  30.0656929  47.8182869  29.3305817  30.7373428
  47.6971245  29.8572559  29.0328407  48.2333412  31.4554081  30.3803101
  47.6281662  32.2872276  30.0198441  48.3093224  31.4002895  31.4662628
  49.6550713  31.3678932  29.7870579  50.2870674  30.2829609  29.8440742
  50.2294388  32.3444443  29.0799561  51.1664467  32.1240807  28.7740784
  49.8596840  33.2843094  29.0739746  45.5942993  30.7776241  31.6375866
  45.7334366  30.1000214  32.6041336  45.0798645  32.0438499  31.6348209
  44.9794693  32.4714622  30.7253342  44.6211052  32.8354912  32.8554688
  45.1269188  32.4019775  33.7182083  45.0305939  34.3496094  32.7838898
  44.3807869  34.9696121  32.1662788  44.8085709  34.7884178  33.7566452
  46.4759064  34.6055183  32.4952927  47.5287437  34.2248764  33.2868729
  47.2867851  33.8437347  34.2679901  48.8792572  34.3819275  32.9293823
  49.5894470  34.1081161  33.6955795  49.2778702  34.8922501  31.7285900
  50.5709190  34.9728088  31.3276558  51.1541862  34.5081406  31.9322071
  48.2379456  35.3355522  30.8929768  48.4855499  35.6467171  29.8888512
  46.8607292  35.1553993  31.2548771  46.1461182  35.5221481  30.5329151
  43.1731071  32.6066017  33.2331352  42.8068123  33.0352516  34.3242073
  42.3312874  32.1123962  32.3021240  42.6219139  31.8989792  31.3586788
  40.9632530  31.7403507  32.6226158  40.4493713  32.5695038  33.1089592
  40.1642227  31.4206924  31.2853622  40.6025963  30.6495266  30.6519318
  38.7278290  30.9945469  31.5622711  38.2892380  30.8759899  30.5714684
  38.6600189  30.0555210  32.1115761  38.1854668  31.6903725  32.2024040
  40.1990929  32.5969734  30.3345642  41.2310982  32.8708458  30.1153316
  39.7488289  32.2387810  29.4087887  39.7081985  33.5160637  30.6545601
  40.8921089  30.5196228  33.5243225  41.4334602  29.4837875  33.1069336
  40.2967453  30.5663338  34.7016907  39.7565536  31.7677193  35.3688240
  38.8350639  32.0754395  34.8745918  40.5018654  32.5620575  35.4094200
  39.5173149  31.4942570  36.8244362  38.4972153  31.7883224  37.0714684
  40.1344566  32.1409645  37.4481468  39.8762665  29.9938622  37.0258522
  38.9876328  29.4410858  37.3306046  40.6556778  29.7923756  37.7607117
  40.1380806  29.3907108  35.6121941  41.0634346  28.8331394  35.7568626
  39.0936203  28.4694901  35.1734657  38.2135124  28.9399586  34.5337677
  39.1873627  27.1724339  35.4363098  39.9097481  26.8245449  36.0505028
  38.4017982  26.0729084  34.7173653  37.4855194  26.5636978  34.3892517
  39.2165375  25.5643578  33.5571251  38.8111763  24.5768890  33.3364716
  39.1072426  26.3858070  32.2583580  38.1449547  26.8633804  32.0739059
  39.8308105  27.2003784  32.2903328  39.3064842  25.7250061  31.4147110
  40.6618347  25.3138924  33.9130402  40.7713394  24.5276680  34.6600037
  41.1168556  25.0986214  32.9462357  41.1596794  26.2227783  34.2509575
  38.1980705  24.9419155  35.7351494  38.8758507  24.9573917  36.8005219
  37.2419319  24.0049534  35.4960403  36.5995331  24.0388107  34.7173996
  37.0060463  22.7929077  36.2995720  37.9335556  22.2753563  36.5444527
  36.3238678  23.1819954  37.6008148  37.0842133  23.5478401  38.2908363
  35.2833290  24.2864456  37.3737526  34.6892052  24.5031891  38.2615280
  35.7171669  25.2774582  37.2404060  34.6542130  24.0851421  36.5066948
  35.6793365  22.0625553  38.1088524  36.1750641  21.5665493  38.7644691
  36.0879936  21.8795757  35.4889793  35.1846848  22.2654972  34.7090225
  36.3891983  20.6177177  35.5499153  37.0639000  20.4088097  36.2718773
  35.7829132  19.4697018  34.8132133  35.3580322  19.7482052  33.8488388
  36.8378639  18.5404358  34.4232597  37.3226585  18.1096458  35.2993279
  36.3434830  17.7332745  33.8827209  38.0529327  19.3002243  33.2214470
  38.7193642  20.0419159  34.1106377  34.6152191  18.7825737  35.5999565
  34.7727585  17.7468300  36.2505188  33.3939247  19.3200703  35.3522148
  33.2915955  19.9979401  34.6105118  32.1650963  18.6410675  35.9338112
  32.3337173  18.5647526  37.0079880  30.9140015  19.5863781  35.7716064
  30.0838375  19.2560139  36.3959351  31.2200298  20.5943832  36.0515709
  30.4084091  19.5759888  34.3426743  31.2748947  19.8175144  33.7270699
  30.0429001  18.5992870  34.0255547  29.1118145  20.7295933  33.9928513
  29.5662231  21.0445175  32.3431778  30.5587902  21.4768200  32.2166023
  29.3827305  20.1927090  31.6883068  28.9776192  21.8201981  31.8533134
  31.8326607  17.2484779  35.3550682  32.0280190  17.0333710  34.1733780
  31.3426590  16.3355732  36.1245766  31.3386955  16.5466671  37.1122627
  30.8722477  15.0407467  35.6682777  31.6172981  14.6411858  34.9802628
  30.8050785  14.1502028  36.9344215  31.8078537  14.0483732  37.3493652
  30.2153072  14.6364164  37.7115097  30.2776871  12.8432188  36.5829964
  30.0976334  12.2948971  37.5076714  29.2684555  12.8475809  36.1712494
  31.1335506  12.0084600  35.6496696  32.2568626  11.6188049  35.9020882
  30.6492481  11.8296089  34.4100304  29.6500244  11.9501238  34.3255920
  31.3324509  11.7341843  33.6723137  29.5134869  15.1862364  35.0248413
  28.5778275  15.8337345  35.5162354  29.2965450  14.4557676  33.9442291
  30.1265030  14.0225477  33.5652924  28.0505009  14.3134918  33.1925507
  27.4976292  15.2521334  33.1552620  28.4205704  13.8555908  31.8147583
  29.1321812  14.5609913  31.3856659  28.8531704  12.8567762  31.8724384
  27.3095055  13.9013004  30.7654266  27.6114235  13.3148518  29.8976574
  26.3645000  13.4675951  31.0924892  26.9878979  15.3166523  30.2609196
  27.3078518  15.5642033  29.0821934  26.5891209  16.0967541  31.1391792
  27.2144279  13.2688627  33.9869003  27.7118320  12.1176348  34.1701050
  25.9734306  13.5641956  34.2749405  25.6994438  14.5331659  34.1966515
  25.0205822  12.6393232  34.8559990  25.2046947  12.3740015  35.8970642
  23.6597519  13.2645636  34.8704071  23.5428200  13.7855129  33.9201241
  22.8969727  12.5104723  35.0643501  23.4938755  14.3660860  35.9562950
  23.2867184  13.9709320  36.9507980  24.4170284  14.9372587  36.0545197
  22.2442741  15.5524168  35.5358086  20.7703228  14.4326839  35.5841293
  20.4075375  14.1638536  34.5920486  20.8639107  13.5415792  36.2048340
  19.8808002  14.9772596  35.9008141  24.8736191  11.3048840  33.9662628
  24.8283367  11.3937607  32.7071915  24.8115482  10.1174040  34.5540657
  24.9491405  10.0198364  35.5498810  24.4959240   8.8366346  33.9430923
  25.1889400   8.7343864  33.1079941  24.8572845   7.7920914  34.9813461
  25.8672256   7.8869786  35.3802452  24.1956215   7.8701577  35.8440247
  24.7594318   6.3774152  34.3425751  24.8392239   6.1758008  33.1074486
  24.7211399   5.3645992  35.0825729  23.0374985   8.8150387  33.5140381
  22.3273563   7.9356160  33.9852753  22.7137222   9.7219858  32.6407547
  23.4839802  10.2016802  32.1972504  21.3854275   9.6560745  31.9540386
  20.7046509   9.4041557  32.7671700  20.9554195  11.1096325  31.5495090
  21.8545170  11.5987434  31.1746826  19.9781227  11.1466265  30.3722744
  19.0391655  10.6998034  30.6990967  19.8798923  12.1869612  30.0621872
  20.5128574  10.6062775  29.5911331  20.3942108  11.9009495  32.8330116
  19.5333424  11.3863926  33.2599068  21.1757336  11.9633207  33.5902634
  20.2112484  12.9421701  32.5675049  21.2523956   8.5193968  30.9334469
  22.0849552   8.3353415  30.0535908  20.1052456   7.8314519  30.9725704
  19.4513397   8.2185879  31.6378765  19.8377190   6.7233496  30.1137047
  20.7168636   6.1316180  29.8586349  19.0744076   5.7028542  30.9162312
  18.2065277   6.2191548  31.3264980  18.6287994   4.4684119  30.1313248
  17.6832027   4.7442255  29.6645565  19.2938938   4.1262851  29.3384209
  18.5072327   3.6128767  30.7956848  19.8815002   5.2018824  31.9253654
  20.3614559   4.3841395  31.7752323  19.2242031   7.0794058  28.7793026
  18.1499195   7.6997075  28.8218193  19.8048038   6.6835938  27.6868706
  20.6461716   6.1378784  27.8068523  19.4648781   7.0900278  26.3782597
  19.6566410   6.3316550  25.6191826  18.4099941   7.3581939  26.3199234
  20.1390686   8.4493790  25.9229164  19.8209362   9.0214462  24.8711815
  21.0358868   9.0482903  26.7634106  21.4950008   8.6246643  27.5570469
  21.6930828  10.2570248  26.3261738  20.9763031  10.9453430  25.8783550
  22.1335621  10.8284616  27.1432056  22.7604733  10.0891647  25.2695007
  23.3344345   8.9590349  25.0926399  23.0971298  11.1802740  24.5428448
  22.5154591  11.9818363  24.7409801  24.0406666  11.3417883  23.4330559
  23.5911598  10.8809967  22.5534458  24.1854935  12.8074570  23.0742664
  23.1900539  13.2193213  22.9082470  24.6434422  13.3284492  23.9150715
  25.0686531  13.2194242  21.8436928  26.0562897  12.7688770  21.9421349
  24.4709625  12.6980858  20.5683651  23.4136295  12.9614782  20.5405521
  24.9424877  13.1538801  19.6977234  24.5214043  11.6101112  20.5251484
  25.0132694  14.6533003  21.7325382  25.5658302  15.0240068  22.5958805
  25.5870075  14.9110460  20.8423195  23.9761600  14.9768381  21.6440620
  25.3847198  10.6851110  23.7433262  25.9663086  11.0517130  24.7802505
  25.9256344   9.8446198  22.9582253  25.4105034   9.5261116  22.1499615
  27.3191261   9.3260775  23.1131287  27.4968357   8.8794737  24.0914249
  27.5389404   8.1512718  22.1184883  27.5819149   8.4365997  21.0673733
  28.5068588   7.6730695  22.2686901  26.5377464   6.9920011  22.1087856
  25.6575108   7.3851118  21.6001091  26.8966522   6.1241918  21.5554371
  26.2049809   6.5667357  23.4815063  27.0859909   6.1314187  23.9531231
  25.8520737   7.4744906  23.9709435  25.1711483   5.4910240  23.2893906
  24.3954411   5.8488445  22.6123791  25.5853691   4.6780500  22.6930714
  24.7294579   5.1769700  24.6825581  24.5442410   6.0321889  25.1869335
  23.7531300   4.9481282  24.5620556  25.1623249   4.4316235  25.2090416
  28.4969635  10.3148203  22.7890320  28.3280926  11.2918882  21.9440765
  29.6975574  10.0830679  23.3304920  29.6793709   9.4292898  24.1001301
  31.0185432  10.7214422  23.0170517  31.6611385  10.6662846  23.8957615
  31.6180496   9.9358215  21.8073921  30.8212757   9.8776493  21.0658607
  32.4364319  10.4743576  21.3295479  32.2283211   8.5077076  22.0678596
  32.6215782   8.4925709  23.0843334  31.3724670   7.8354344  22.0073338
  33.2875328   7.9567580  21.0224838  32.9544983   8.3445854  20.0597897
  34.2988853   8.2566528  21.2969570  33.1413269   6.4947157  21.0303307
  33.6727066   5.9693122  21.8238583  32.0757027   6.2956557  21.1440029
  33.4875374   5.8527517  19.8063984  32.8035851   5.1103697  19.7720966
  33.4180183   6.5046253  19.0380669  34.3634911   5.3500299  19.7975006
  30.8031693  12.2187557  22.8257484  31.2824268  12.7144184  21.8368740
  30.2291870  12.8947144  23.8349781  30.1044388  12.3857918  24.6984215
  29.8486481  14.3086538  23.7973976  30.0480061  14.7676926  22.8290768
  28.3259277  14.4292583  24.1499939  27.7048721  13.8415680  23.4739685
  28.2025528  14.1655807  25.2004013  27.8943920  16.1643867  23.9410686
  27.5394592  16.2977829  25.2221317  30.7064190  15.0983553  24.7758389
  30.7138081  14.8277311  25.9510555  31.2779732  16.1983376  24.2829266
  31.2459011  16.4125576  23.2964268  31.9675312  17.1823158  25.1444759
  32.0237350  16.8682728  26.1867409  33.3655319  17.4907341  24.6061592
  33.2193909  17.5951042  23.5310555  33.8799896  18.8287849  25.1187954
  34.8707047  19.1039429  24.7570381  33.3281937  19.7310371  24.8550510
  34.0149117  18.8226528  26.2003994  34.4241791  16.4681549  25.0120335
  35.3498802  17.0227184  24.8582973  34.2965050  16.1674938  26.0519390
  34.5051804  15.3300905  24.1054993  35.4129105  14.7661686  24.3202343
  33.6203041  14.6937046  24.1160297  34.4584274  15.6407900  23.0617657
  31.0389538  18.4358273  25.1276302  30.4491997  18.8551292  24.1228485
  30.8840179  19.0661602  26.3039150  31.1995430  18.4772453  27.0613594
  30.1682453  20.2637196  26.6028652  29.9365101  20.5797043  25.5857372
  28.8072166  20.0224056  27.3113766  29.0679264  19.7908592  28.3440990
  28.1823044  20.9125423  27.2389088  28.0977001  18.9520054  26.5512581
  28.0566139  19.1780357  25.4857426  28.6452923  18.0113316  26.6093597
  26.7626114  18.6940422  27.1410465  26.1070595  19.5642853  27.1089439
  26.2500629  17.8600101  26.6616898  26.7324181  18.3871040  28.5744267
  27.1387596  17.5038052  28.8478680  26.4694290  19.1434040  29.6136303
  25.9442234  20.3203392  29.4824181  26.0195026  20.9446812  30.2727547
  25.4868755  20.5650730  28.6157932  26.8316002  18.7768421  30.8570995
  26.4852047  19.2859058  31.6577053  27.0831833  17.8245411  31.0805473
  30.9499645  21.3919868  27.3257675  31.6373405  21.1764603  28.3115044
  30.6950722  22.6411343  26.8046627  30.0465508  22.7874279  26.0443211
  31.3804970  23.8391476  27.3466606  31.9794159  23.5243607  28.2012386
  32.4190178  24.4107876  26.4200344  31.9913731  24.5115471  25.4225025
  33.1193657  25.6727943  26.8068542  32.4883957  26.5474644  26.6489525
  33.4341431  25.5695934  27.8452988  34.0539284  25.8103619  26.2630081
  33.6220016  23.4258862  26.3065548  34.0116920  23.2053318  27.3003387
  33.3687439  22.4945717  25.7999840  34.4800797  23.8219337  25.7634621
  30.4048004  24.9297390  27.8624973  29.3410149  25.2140636  27.2556820
  30.8008938  25.6585560  28.9129715  31.5857277  25.4567814  29.5158157
  29.9512787  26.7232876  29.4857121  29.3868103  27.2327995  28.7047672
  29.1515141  25.9561253  30.6230774  28.5179729  25.1411839  30.2729340
  29.9189434  25.5318642  31.2705002  28.2415142  26.8048992  31.5390720
  28.0285320  26.1374798  32.3741112  28.8230267  27.6807003  31.8270283
  26.6303158  27.4575977  30.8747749  27.1296711  29.1258087  30.2238083
  27.3758469  29.8016911  31.0427551  27.9680367  29.1134777  29.5273228
  26.2850609  29.5081234  29.6506004  30.9101315  27.7541542  30.0980663
  31.8971272  27.4737148  30.8752937  30.5236015  28.9831810  29.8754520
  29.6889172  29.1520157  29.3324070  31.3067150  30.2162304  30.3012333
  31.6193485  29.9837990  31.3192387  32.4331055  30.4660397  29.3042202
  32.9979515  31.3642387  29.5537949  33.1987152  29.6913033  29.3457756
  32.0141678  30.6864738  27.8437595  31.2542725  29.9173851  27.7053204
  31.6132298  31.6958847  27.7518787  33.2655716  30.4798222  26.6262360
  33.7737389  32.1600418  26.0804138  34.4984055  32.0769463  25.2704430
  32.9873505  32.8579178  25.7929001  34.2261772  32.6576462  26.9382000
  30.4662342  31.4427586  30.3495617  29.4951000  31.6125927  29.6402626
  30.8657780  32.3709183  31.2522640  31.5614929  32.1032524  31.9337578
  30.3243141  33.7374458  31.3991776  29.6092033  33.8135071  30.5800724
  29.5107708  33.8063011  32.6326599  28.9886780  34.7619896  32.6793404
  28.3611126  32.8010979  32.6330185  27.6819859  32.9406700  31.7919483
  28.6645832  31.7693214  32.4556923  27.7158318  32.7828331  33.5113029
  30.1961441  33.6928291  33.7857056  30.7002201  34.5089569  33.8236313
  31.2919521  34.8149185  31.2612553  32.4420776  34.7260971  31.6654453
  30.8264713  35.9619484  30.6475143  29.8733540  36.0206490  30.3185406
  31.6838150  36.9765472  30.0146580  32.6495705  36.9398956  30.5187168
  31.8262978  36.6062012  28.5339851  30.8427830  36.4585762  28.0878754
  32.6798630  37.6015167  27.7124481  32.6809616  37.4172096  26.6381435
  32.2406883  38.5917892  27.8332005  33.7267838  37.5503769  28.0115185
  32.5296936  35.2465782  28.2551346  31.7734184  34.4960365  28.4850063
  32.7195129  35.1915779  27.1831989  33.4668617  35.1383095  28.8011150
  31.1531467  38.3764076  30.1722927  30.0315247  38.7096062  29.8857994
  32.0562935  39.2936554  30.4747200  33.0114212  38.9657097  30.4578609
  31.8273869  40.7426109  30.5201874  30.8576164  40.7993507  31.0145950
  32.8353882  41.5547371  31.3665676  32.8739624  41.1350021  32.3717728
  33.8469467  41.4732285  30.9688206  32.4117050  43.0521660  31.4531364
  32.9446449  43.5550385  30.6461697  31.3224487  43.0923424  31.4561768
  32.9278374  43.7834358  32.6927872  32.2451096  44.5579948  33.3455048
  34.1720581  43.7012863  32.9738693  34.4810562  44.2053261  33.7927475
  34.9173775  43.2400513  32.4720116  31.6919746  41.2696037  29.0928459
  32.6037827  41.0883598  28.2835388  30.4356441  41.6589012  28.7499199
  29.7483215  41.7137108  29.4879456  30.1687469  42.1667290  27.3994961
  30.9379311  42.8709259  27.0823746  30.2184620  41.0957909  26.2701092
  31.2139378  40.6582985  26.3458080  29.3374786  39.8857841  26.2787323
  28.3089771  40.2341118  26.1841507  29.4659634  39.1825180  25.4559250
  29.3329315  39.3585930  27.2327499  30.1699905  41.7205963  24.9870949
  30.8058491  41.2355957  24.4560051  28.7770290  42.8373718  27.3477478
  27.7736778  42.3291550  27.9048080  28.6345863  44.0230217  26.7700825
  29.4721203  44.5062752  26.4783592  27.3977318  44.6559715  26.4249325
  26.7507668  44.7384529  27.2982788  27.7733746  46.1220627  26.0771790
  26.8774872  46.7406731  26.1301136  28.3963261  46.5886536  26.8402863
  28.4135857  46.3198128  24.7095089  28.4785957  47.4494858  24.1718903
  28.8948746  45.3272438  24.0595665  26.5735512  44.0405502  25.2564621
  25.5764942  44.6357727  24.9184113  27.0615101  42.9291000  24.6669331
  27.8768082  42.4125290  24.9644947  26.1289177  42.1957283  23.7565594
  25.6409798  42.9067726  23.0899048  26.9664917  41.3555412  22.8317642
  27.5778999  40.7086906  23.4609394  26.0170555  40.4769402  21.9167213
  26.5328312  39.7692528  21.2676773  25.3691521  39.9215889  22.5948830
  25.4532394  41.1701851  21.2925224  27.8960571  42.1797104  21.8957748
  28.4849014  42.8244476  22.5482159  28.4745121  41.4247894  21.3632488
  27.2392750  42.7712975  21.2579956  25.0389957  41.4974709  24.5365448
  25.2770901  40.8701744  25.5377750  23.7447319  41.6673584  24.2225380
  23.2035847  42.6202164  23.2741489  23.0914516  42.1323090  22.3059177
  23.8079052  43.4889526  23.0130119  21.8390884  42.9474525  23.8580704
  21.2099953  43.4163246  23.1014347  21.8844967  43.6725349  24.6706543
  21.3016796  41.5552101  24.1553726  21.0946846  41.0495987  23.2121811
  20.5574093  41.6522026  24.9457855  22.5729160  40.9705276  24.7667503
  22.5060768  41.1888733  25.8325653  22.5650311  39.4341545  24.6340866
  23.0138187  38.8933754  23.6251850  21.9522991  38.6974640  25.5719776
  21.4494171  39.1978989  26.2908478  21.7100830  37.1972656  25.5122261
  22.6401157  36.6534729  25.3465767  21.2815609  36.6528702  26.9137287
  21.2929955  35.5670204  26.8193779  21.9907475  36.9948730  27.6675110
  19.9068832  37.0001640  27.3894253  19.6804504  38.0070419  27.7401772
  19.2967644  36.7318878  26.5269413  19.5507317  36.2540283  28.6631432
  20.4702282  35.8694191  29.4204292  18.3019981  36.0530472  28.9274597
  17.5869617  36.6428490  28.5262642  18.1035881  35.6473923  29.8308849
  20.8329124  36.8284073  24.2640705  21.0379143  35.8157845  23.5649128
  19.7605743  37.6322746  23.9522133  19.5560627  38.3722801  24.6084652
  18.9570961  37.4909248  22.7644405  18.7778625  36.4165154  22.8046761
  17.6030903  38.2388687  22.8461266  16.9801731  37.8825455  22.0256958
  17.0039806  37.9845619  23.7204819  17.7457294  39.7443695  22.6419888
  17.6972866  40.5201759  23.6516781  17.6892872  40.2920990  21.5059357
  19.7884617  37.7190552  21.4732685  19.2772503  37.5359383  20.3507500
  21.1356487  38.1039581  21.7276611  21.5440331  38.2843781  22.6336250
  21.9839649  38.3698235  20.5636978  21.5100574  38.2137566  19.5945969
  22.2125511  39.8990517  20.5256653  22.7721844  40.2257538  21.4021225
  22.9542656  40.1146393  19.7565842  20.9623528  40.7181854  20.3510094
  20.2367725  40.3792343  21.0904331  21.1618633  41.7804604  20.4919529
  20.2116718  40.6354713  19.0228786  20.7865391  40.6990891  17.9417343
  18.8665581  40.6502991  19.0641499  18.4676075  40.4157906  19.9618950
  18.2375412  40.7101784  18.2762070  23.2735062  37.5495148  20.6234436
  23.9666653  37.6207199  19.6135502  23.6272202  36.7876701  21.7062092
  23.1001129  36.9824486  22.5454464  24.7230091  35.8358688  21.7068539
  25.6237392  36.4330978  21.5650654  24.9036884  35.2134056  23.1392708
  23.8719616  34.9194756  23.3322601  25.8025799  33.9106407  23.2303505
  26.8206196  34.1108818  22.8962879  25.8885803  33.6764641  24.2914181
  25.3877945  33.0619545  22.6864796  25.3072872  36.2779999  24.1983547
  24.6097755  37.1137238  24.2544212  25.3275928  35.6863060  25.1135559
  26.7180214  36.9543762  24.0015030  27.4074764  36.1663094  23.6986713
  26.7112656  37.7407074  23.2466908  27.1332417  37.2208977  24.9734383
  24.5747738  34.7409515  20.6512184  23.5027981  34.1281395  20.6026421
  25.6497746  34.4428329  19.9025040  26.5222301  34.9433975  19.9939098
  25.6773243  33.3480492  18.9620686  24.6481075  33.0639877  18.7426968
  26.3459778  33.8888512  17.7085190  27.3196411  34.2585602  18.0300636
  26.4744148  33.0255089  17.0556412  25.6199989  34.9909019  16.9099255
  24.7441273  34.6018715  16.3906898  25.3523312  35.7480621  17.6469250
  26.5956535  35.5162010  15.8995533  26.2779865  36.5071907  15.5753145
  27.5541992  35.8016243  16.3329525  26.8570251  34.7025146  14.7134657
  27.5381432  33.9574318  14.6813774  26.2133923  34.7737045  13.5681591
  25.2198067  35.5589943  13.2838125  24.9114513  35.5917816  12.3225937
  25.1005707  36.4120865  13.8111811  26.6154594  33.8814125  12.7226028
  27.3737965  33.2862282  13.0239124  26.1789913  33.7137108  11.8273535
  26.4294624  32.0347061  19.4750309  27.6345539  31.9575443  19.5531368
  25.6005821  31.1103230  19.9803219  24.6318779  31.2643890  19.7395325
  26.0073318  29.8186665  20.5758495  26.9059010  29.8839588  21.1893749
  24.9736996  29.1913948  21.4243202  24.1212978  28.8796139  20.8207436
  25.3635120  28.3118782  21.9367657  24.6258011  30.1094589  22.6377563
  25.3210068  30.2406464  23.8806744  24.5728970  31.0969791  24.5785275
  24.8250523  31.3689194  25.5928612  23.4516850  31.4857922  23.9214497
  22.6957760  32.0710373  24.2473145  23.5058784  30.8299847  22.7327232
  22.7900257  30.8688450  21.9249840  26.4541492  28.7197819  19.5794239
  25.9403381  28.6727943  18.4384098  27.3657742  27.8545532  19.9849129
  27.6840076  27.9011574  20.9423351  27.9610901  26.8713779  19.0387268
  27.6173229  27.0541515  18.0206299  29.4786587  27.1882248  18.8682938
  29.9755192  26.9390202  19.8059120  30.0210114  26.4181213  17.6447697
  29.7903500  25.3683662  17.8261700  29.4539375  26.7143669  16.7622890
  31.0949764  26.5598984  17.5239468  29.7408733  28.5706387  18.5386562
  29.2425728  28.8495331  17.6102123  29.3986969  29.2404099  19.3275948
  30.8113708  28.7671261  18.4792080  27.7115536  25.4223022  19.3167095
  28.0528755  24.9125824  20.3675423  27.0611153  24.6864510  18.4457436
  26.5129242  25.2169018  17.7837715  26.6817608  23.2802715  18.4679966
  27.1742325  22.7854729  19.3051033  25.1993008  23.0846825  18.8279400
  24.6309319  23.5440140  18.0191917  25.0835571  22.0010548  18.8492641
  24.7268276  23.8041897  20.0763149  24.7880154  23.0332584  21.2261543
  25.0251217  21.9822998  21.1508541  24.4559536  23.7262154  22.3868637
  24.3904705  23.1816330  23.3172073  24.0581360  25.0998707  22.4736729
  23.6884556  25.6547871  23.6502209  23.4359264  24.9733887  24.2775345
  23.9255714  25.7982178  21.2654209  23.5021381  26.7917328  21.2598286
  24.2890530  25.1162853  20.0515785  24.1775837  25.6287441  19.1074581
  27.0929508  22.6719246  17.1334229  26.9875984  23.3424301  16.0463638
  27.7412910  21.4822636  17.2228508  27.6802273  20.9372482  18.0709839
  28.5876274  20.8903904  16.1554127  28.3571854  21.2719383  15.1607161
  30.0819912  21.1873264  16.5012341  30.1149445  20.6960411  17.4736824
  30.6821709  20.6329517  15.7797403  30.4566479  22.6627522  16.5537357
  29.8669338  23.1821632  17.3090897  31.9384899  22.7619896  16.8876286
  32.0284195  22.3024845  17.8719444  32.5850143  22.1782913  16.2323380
  32.3139191  23.7841969  16.8402615  30.1725197  23.3290310  15.1480017
  29.1297512  23.1977482  14.8590345  30.3330994  24.3988075  15.2817736
  30.8794880  23.0460815  14.3681068  28.4599228  19.3087406  16.1628590
  28.1343575  18.5994759  17.1241264  28.7924805  18.7053604  15.0058556
  28.7933178  19.2059078  14.1286125  28.9069080  17.2253017  14.8319225
  29.1952858  16.9867802  13.8081808  30.1432991  16.6011887  15.6072836
  29.9672966  16.5163879  16.6796322  30.2963562  15.5550203  15.3423223
  31.3583031  17.4423466  15.4144382  31.2174091  18.5031204  15.6218243
  32.1020241  17.1750832  16.1651382  31.9543209  17.3780212  13.9684706
  32.8219833  16.4978142  13.7712927  31.6750088  18.1588993  13.1095295
  27.5654926  16.5666466  15.0839005  26.6674080  16.9051304  14.3246737
  27.3645763  15.6052399  16.0410175  28.1262875  15.2093306  16.5731373
  26.0485573  15.0382233  16.3519974  25.3786354  15.2134771  15.5102196
  26.1719952  13.5392876  16.7485123  26.8645802  13.4171848  17.5812893
  25.1988544  13.2918863  17.1726494  26.6235695  12.5817175  15.6160231
  25.9884186  12.6915731  14.7370377  27.6866627  12.7201204  15.4190998
  26.3680038  11.2030764  16.0251408  26.9240570  10.9656010  16.9320641
  25.2882385  11.0789299  16.1076126  26.7783985  10.0914211  15.0445795
  26.6810493  10.4194117  14.0096664  27.8357697  10.0074892  15.2956238
  26.1407776   8.8186646  15.3521233  26.5910969   8.0282993  14.9132204
  26.2064095   8.8351116  16.3598576  25.1470165   8.7929392  15.1735802
  25.3750076  15.8366051  17.4786701  24.1564598  15.7221785  17.6401615
  26.1151905  16.7628345  18.1418991  27.0922451  16.7765522  17.8863888
  25.6647091  17.5622196  19.2596130  25.0379620  16.8457527  19.7906151
  26.6851120  17.7579136  20.3728428  26.5119305  18.6626949  20.9554901
  26.5660572  17.0172424  21.1636238  27.6897774  17.6814194  19.9570370
  24.8034630  18.7572441  18.8282261  24.4900169  19.6071377  19.6375790
  24.4311752  18.9087811  17.5271301  24.8063488  18.2647858  16.8455029
  23.4226265  19.9294300  17.0955334  23.8001976  20.9094906  17.3871231
  23.2372723  19.9714985  15.5584192  22.6189785  20.8341446  15.3101130
  24.6234360  20.2366123  14.9797812  24.5806751  20.5875168  13.9486990
  25.2414265  20.9644623  15.5055399  25.0858288  19.2515850  15.0432329
  22.6661587  18.6528149  14.9069691  21.6491413  18.4839802  15.2608986
  22.6677513  18.8123684  13.8287106  23.3046799  17.8172417  15.1936893
  22.0698414  19.7963867  17.7605076  21.3175755  20.7610779  17.8425407
  21.7628365  18.5232658  18.2358437  22.3641243  17.7812996  17.9071465
  20.6249981  18.1792564  19.0940342  19.6922398  18.5172920  18.6425991
  20.5706768  16.5817928  19.3855972  19.7833080  16.3631001  20.1069317
  20.2891750  15.8414745  18.0888405  20.2470722  14.7993994  18.4057274
  19.3857594  16.0602188  17.5195503  21.0944633  15.9729671  17.3661232
  21.8394413  15.9717941  20.0488548  21.7623043  14.8939514  20.1917133
  22.7058582  16.1572990  19.4140263  21.9569607  16.5271835  20.9793549
  20.5983677  18.9342594  20.4412098  19.4908009  19.1722298  20.8567944
  21.7551613  19.3479252  20.9984951  22.6069546  19.3924179  20.4576015
  21.7994671  20.0329628  22.3063164  21.0680714  19.7007675  23.0430679
  23.1958389  19.6601448  22.8919506  23.9440441  20.0121956  22.1817741
  23.2207584  20.2250271  23.8238277  23.4526272  18.1832638  23.0809937
  23.6340523  17.8502960  22.0590744  24.7514973  17.9686050  23.8645954
  24.7837944  16.9240093  24.1742287  25.6174755  18.2279530  23.2555599
  24.6665783  18.4718037  24.8277550  22.3721123  17.2636433  23.7300243
  22.7454433  16.2413940  23.6688995  22.1749344  17.4286804  24.7892609
  21.4521942  17.3118267  23.1473331  21.6034775  21.5919590  22.2012730
  21.7536716  22.3118019  23.1523781  21.2253017  22.0929146  21.0481300
  21.3118973  21.4456005  20.2776814  20.8709850  23.5093117  20.7958088
  21.8012981  24.0511608  20.9661541  20.6069241  23.7172718  19.2478962
  20.6666050  24.7713432  18.9768448  21.4653587  23.2939854  18.7263355
  19.3178883  23.1251907  18.7316666  19.3032722  22.0465069  18.8876514
  18.4414711  23.5214424  19.2444763  19.1352024  23.4636173  17.1953983
  19.0356026  24.5277786  16.9815311  20.0908775  23.2819271  16.7036858
  17.9451923  22.8482265  16.6309299  17.1321239  23.3909245  16.3769588
  17.7532406  21.5505257  16.2516956  18.6382580  20.6601582  16.5305443
  19.4069843  20.9301853  17.1274147  18.2696533  19.7279072  16.4075050
  16.6423168  21.2858639  15.6156340  15.9997005  22.0322475  15.3919039
  16.5939503  20.3427410  15.2574615  19.5932140  23.9339008  21.5449619
  18.6440258  23.1933022  21.6512184  19.4238243  25.2341270  21.8717041
  20.4426556  26.2244949  21.7546520  20.7209339  26.4188557  20.7188492
  21.2655640  25.8991013  22.3910770  19.9203243  27.5301914  22.3033657
  19.5026760  28.0823193  21.4614487  20.7477570  28.0887623  22.7409210
  18.7823849  27.0614223  23.2392635  17.9633675  27.7331829  23.4962635
  19.3051453  26.7743816  24.1516418  18.2840710  25.7410450  22.6020031
  18.0952816  24.9698524  23.3488102  16.9496403  25.7019005  21.8120689
  15.8567209  25.8108921  22.3755913  17.0151463  25.5489273  20.4673386
  17.9468727  25.4894104  20.0820560  15.8665409  25.3787346  19.5073586
  16.2803707  25.2469826  18.5076160  15.2077055  24.0054684  19.7789536
  15.9858084  23.2423592  19.7609234  14.7714691  24.0483208  20.7769318
  14.2222290  23.5936165  18.6428146  13.4222174  22.6875038  18.9366055
  14.0948315  24.1641293  17.5445290  14.9597178  26.5972519  19.3878174
  13.7372713  26.5564957  19.6340275  15.5775766  27.8029842  19.1813946
  16.5663910  27.8043079  18.9756184  14.9166031  29.1068420  19.4287472
  14.4585104  28.9526749  20.4057274  15.8649797  30.2743607  19.4801483
  16.3216248  30.4204426  18.5012550  15.3174906  31.1377811  19.8581333
  17.0620537  30.0983105  20.4720535  17.6744347  29.2104607  20.3145161
  17.9357071  31.3353043  20.3696136  18.1963253  31.4829845  19.3215809
  17.3837929  32.2122574  20.7079105  18.8243885  31.0411205  20.9280052
  16.5689468  29.9107742  21.9081268  15.9347029  29.0277481  21.9862175
  15.9519176  30.6868401  22.3610077  17.3971996  29.7840405  22.6052895
  13.8489676  29.4024258  18.3526649  13.9491444  29.0106468  17.1860943
  12.6875772  29.8576832  18.8460884  12.6824522  30.0091953  19.8446465
  11.5522747  30.5074368  18.0281696  12.0956402  30.9557991  17.1964092
  10.6079407  29.4305515  17.4163227  11.0914526  28.8688183  16.6170902
  10.1523962  28.8153667  18.1922932   9.5724010  30.1487064  16.7981567
   8.7354488  29.7108116  16.9695015  10.8661270  31.6088924  18.8591518
  10.5085888  31.2600002  20.0530529  10.6848097  32.8112679  18.2721844
  11.0980434  32.9776230  17.3657284   9.9226475  33.9040680  18.9297142
  10.5388403  34.2157860  19.7730637   9.8318958  35.0580711  17.9081478
   9.3579712  34.7263298  16.9843311   9.0903158  35.7312012  18.3383274
  11.1196918  35.9038658  17.5398006  11.8299341  36.0562744  18.3524723
  11.7205839  35.2685852  16.3497410  12.1454983  34.2772293  16.5070992
  12.4635391  35.9859161  16.0010872  10.9815979  35.1504631  15.5572462
  10.6829967  37.3778610  17.1933517  11.5015402  38.0449333  16.9229679
   9.9028749  37.4381790  16.4344883  10.2727404  37.8266106  18.0980186
   8.5082636  33.5288353  19.4445667   8.0416365  34.0322456  20.4522858
   8.0090008  32.3990593  18.8423233   8.5951643  31.9298210  18.1668053
   6.6396680  31.7875404  19.0130405   6.0023909  32.6704674  19.0622158
   6.3112164  30.7696724  17.7563000   5.3331504  30.3020382  17.8694954
   6.4921913  31.3344517  16.3416233   7.4597359  31.7990818  16.1517086
   6.5179877  30.5160713  15.6221170   5.6695309  32.0398293  16.2242298
   7.2020388  29.6840820  17.7074051   6.6950994  28.8869724  17.5364380
   6.4082556  31.0067635  20.3418999   5.4273295  30.3565922  20.6129246
   7.4276009  31.0056095  21.1819706   8.1918097  31.5634041  20.8284855
   7.5179691  30.3810444  22.4830418   6.6883750  29.6893883  22.6296215
   8.6741018  29.4752674  22.5781078   9.6222897  30.0127220  22.5916672
   8.5071363  28.8561249  23.4595184   8.7997408  28.5768623  21.4073391
   7.8426895  28.0664120  21.2996635   9.0360079  29.1070652  20.4847546
   9.8138657  27.4437809  21.7059002  10.6598206  27.7479839  22.3222752
   9.3143167  26.6456356  22.2550125  10.3818312  26.9360771  20.3911819
   9.6476984  26.7125320  19.6171150  10.9854965  27.7541256  19.9981365
  11.1828175  25.7584114  20.5925121  10.6565094  25.0437222  21.0745068
  11.4169874  25.3093510  19.7186604  12.0745153  25.9055290  21.0434341
   7.4815369  31.3476467  23.6427250   7.2513680  30.8995590  24.7661018
   7.7538815  32.6765556  23.4308300   7.8577847  32.9434128  22.4622784
   7.6712890  33.8260307  24.3170910   7.9643679  33.4487686  25.2968273
   8.6904516  34.8786316  23.9349022   8.3135767  35.3478661  23.0261211
   8.7277145  35.6066475  24.7452755  10.0750294  34.2763405  23.6801910
  10.5968542  33.4500999  24.4600620  10.6301403  34.5535812  22.5537891
  10.0034494  34.9710655  21.8806877  11.5264235  34.1963882  22.2551384
   6.2311573  34.3117676  24.5718708   5.9110951  35.4968910  24.3563423
   5.3909950  33.3977509  25.0229683   5.6797605  32.4423637  25.1777287
   3.8856163  33.5561371  25.0119934   3.5310204  34.1810875  24.1923599
   3.2159219  32.2275810  24.9121742   2.1560407  32.4288330  24.7564507
   3.7653813  31.1720543  24.0153408   4.8519363  31.0855255  24.0120468
   3.3035882  30.2001171  24.1890717   3.5680132  31.4211025  22.9726868
   3.2712271  31.6178551  26.1373310   2.4294341  31.1733704  26.2615013
   3.3506474  34.3978615  26.2119293   2.1431060  34.5367470  26.3859119
   4.2697349  35.0103378  26.9474945   5.2104177  34.9594955  26.5833092
   3.8342278  36.0038681  27.9573708   3.1160741  35.4850121  28.5923100
   4.9770575  36.4641113  28.8164921   5.4581809  35.6387558  29.3412952
   5.6992445  36.8852272  28.1170578   4.6729002  37.4844475  29.8726807
   5.5503449  37.9328194  30.3386765   4.3027806  38.4313164  29.4795589
   3.8567860  36.8148956  30.9117184   2.6120846  36.8679695  30.7770309
   4.4464607  36.2971764  31.8650227   3.1266375  37.1757584  27.2669487
   3.4894960  37.5403023  26.1850834   2.0383878  37.7132111  27.9383106
   1.9439211  37.3336411  28.8694935   1.1541468  38.7546387  27.4417343
   1.7646854  39.3737335  26.7844181   0.0218044  38.1501198  26.5798149
  -0.4922298  37.4037361  27.1854401  -0.7073553  38.9577446  26.5152626
   0.3263751  37.6009560  25.1842289   1.1883659  36.9340477  25.2017612
  -0.9966987  37.0361214  24.6606979  -1.3776251  36.2844505  25.3520584
  -1.7542592  37.8197060  24.6465473  -0.8278241  36.7301064  23.6282520
   0.6180944  38.7559013  24.2563190  -0.1161511  39.5596237  24.3111725
   1.6108999  39.0977974  24.5487995   0.7264170  38.3585320  23.2471352
   0.6084409  39.6811180  28.5264225   0.7420842  40.9589958  28.4140911
  -0.0474146  39.1522102  29.4277496  36.4291191  46.7998962  37.8429031
  37.0170784  46.0361214  37.5411644  36.0141830  47.2530060  37.0412674
  37.0263405  47.4551277  38.3267479  35.4184685  46.2265396  38.7414665
  36.0056686  45.7992210  39.5542946  34.4412918  47.2977791  39.2297249
  35.0422745  48.1274490  39.6019821  33.8042526  47.6863060  38.4351654
  33.4531479  46.7595100  40.2937622  32.7961311  47.5403633  40.6767807
  32.8105011  46.0083847  39.8345070  34.2842026  46.1261253  41.8380470
  35.5460167  47.4037895  42.2410278  36.2544289  47.4339943  41.4131699
  35.0877113  48.3887558  42.3298798  36.0478706  47.2088089  43.1887817
  34.7640190  45.0910072  37.9211655  34.2101822  45.3637657  36.9126358
  34.9847794  43.8485107  38.1947632  35.5884781  43.6701317  38.9845886
  34.4438400  42.6985931  37.5247574  33.4034271  42.8326759  37.2286720
  35.1519432  42.5302773  36.1626205  35.0782623  43.4636650  35.6045380
  36.2060165  42.3093338  36.3306046  34.6158943  41.3749352  35.2764244
  34.4118423  40.5036240  35.8987465  33.6965103  41.7047195  34.7926064
  35.6671333  40.9383507  33.8718987  35.3648987  39.1445656  33.9157639
  36.1872711  38.7398987  33.3258057  35.4367943  38.7205238  34.9173241
  34.3641319  38.9457626  33.5323067  34.6824341  41.4009285  38.4041939
  35.6443634  41.2704773  39.1053925  33.6810760  40.5032043  38.3760910
  32.8522530  40.6562920  37.8195686  33.7225342  39.2180176  39.0963860
  34.0182495  39.3979607  40.1299591  32.2917786  38.6109467  39.1514626
  32.2897034  37.6867867  39.7294121  31.3453979  39.5982666  39.8081322
  31.1965485  40.4219666  39.1099548  30.3739014  39.1916809  40.0891800
  31.8323803  39.9053726  40.7336807  31.7741070  38.1561546  37.7254295
  31.9580097  39.0100975  37.0734596  32.3343010  37.2510185  37.4908676
  30.2355652  37.8843651  37.7330589  29.8659554  37.2689247  38.5532570
  29.7772770  38.8673210  37.8420181  30.0861359  37.3837624  36.7764130
  34.7884483  38.2696609  38.5443192  34.8391304  37.9550095  37.3980942
  35.6085930  37.7252998  39.4273529  35.6161919  38.0185585  40.3938141
  36.7067604  36.7149239  39.0854721  36.6407776  36.5082130  38.0172844
  38.0694962  37.3982811  39.4640083  37.8959732  37.7318878  40.4870911
  38.8333588  36.6238441  39.3942757  38.4775047  38.5457764  38.6339417
  37.7555237  39.3454742  38.7992439  39.4842949  38.8576164  38.9118385
  38.5605011  38.2933807  37.0886650  39.3474617  37.5976715  36.7974930
  37.6270485  37.7976074  36.8222427  38.7629738  39.4662056  36.2728920
  38.7289124  40.3680954  36.7262535  38.7612038  39.4869614  34.9603500
  38.4818916  38.4016571  34.2602768  38.2586823  37.5189896  34.6975212
  38.4075851  38.4399109  33.2537384  39.0606804  40.5567017  34.2813797
  39.1524239  40.4050064  33.2870598  39.5417938  41.2579613  34.8262291
  36.3733559  35.3561249  39.7151070  35.9728775  35.3865852  40.8568649
  36.6131935  34.2201614  38.9385757  37.0248222  34.3806305  38.0303307
  36.6304016  32.8785782  39.4261894  35.8594856  32.7701759  40.1890984
  36.4338531  32.0907898  38.6989594  37.9029503  32.6085968  40.1546745
  38.9590607  33.1073380  39.7519379  37.8790169  31.7958050  41.2222672
  37.0259094  31.3260880  41.4899826  39.1119499  31.5791931  41.9882660
  39.9492455  31.9348793  41.3878288  39.0577469  32.4743118  43.3212852
  38.2229271  32.1005974  43.9141731  40.3444443  32.0957794  44.1713371
  41.2659721  32.5815010  43.8504639  40.1644707  32.2395134  45.2367249
  40.6598358  31.0656567  44.0055771  38.8724060  34.0232697  43.0455933
  39.2978172  34.3219070  42.0874977  37.7840042  34.0408630  42.9892693
  39.3464584  34.9997978  44.1746979  40.4113083  35.2254524  44.2318993
  38.7681656  35.9191284  44.2669373  39.1042099  34.5187454  45.1223297
  39.1764488  30.0867290  42.2375603  38.1886978  29.5100613  42.6795387
  40.3146820  29.4700890  41.8829575  41.1250343  29.9690113  41.5445786
  40.4650345  27.9834423  41.9916611  39.5333519  27.4435368  42.1606789
  41.0363312  27.4284801  40.7232590  41.7741051  28.1295929  40.3330956
  41.5269623  26.4808769  40.9455833  39.9045448  27.1894798  39.7191772
  39.4684715  28.1475925  39.4364052  40.4804001  26.7251797  38.9186020
  38.8072357  26.1528816  40.0167007  38.1790657  26.6116276  40.7802849
  38.2943344  25.9079647  39.0866203  39.3314171  24.8936615  40.6634750
  39.5428848  25.0490379  41.6387901  40.0958138  23.9470406  40.1348114
  40.2184143  23.4970188  38.8849640  40.9149132  22.8077736  38.6401367
  39.6526833  23.9463387  38.1791611  40.8556366  23.2265396  40.9547310
  41.4552536  22.6202545  40.4134560  40.8356056  23.2153072  41.9644699
  41.2301178  27.5978241  43.2047424  41.9495125  28.3366890  43.8383064
  40.8931847  26.3672791  43.6692429  40.1300888  25.9218388  43.1799927
  41.7056694  25.5716400  44.5746574  42.7544518  25.7930202  44.3768196
  41.4583702  25.8837910  45.5893021  41.5281334  24.0826035  44.3085442
  40.5313568  23.6404018  43.7349434  42.4584122  23.3415527  44.8906059
  43.2203178  23.7063694  45.4442444  42.2247734  21.9231758  45.3149490
  41.1807976  21.8064461  45.6057892  42.7085991  21.0223866  44.0655785
  43.7860794  21.0080528  43.9014473  42.4670715  19.9937897  44.3334503
  42.1358261  21.3242512  43.1887054  42.9889984  21.4414139  46.5769272
  43.8722038  22.1973858  47.0126228  42.6000824  20.2962990  47.2119522
  41.6954079  20.0400372  46.8431778  43.2116776  19.5842457  48.3245010
  44.2848473  19.6210442  48.1372757  42.8353310  20.2404442  49.6642494
  43.0930710  21.2974701  49.5981636  41.2834511  20.1266174  49.9592972
  41.1688423  19.1428528  50.4144669  41.0826530  20.9745979  50.6140556
  40.7135277  20.2613430  49.0399818  43.7411118  19.6948700  50.5893936
  43.8201904  20.3389416  51.2968674  42.6870041  18.1465530  48.3518333
  41.8130684  17.8768387  47.5709000  43.2983932  17.2562466  49.1627808
  44.1237946  17.5651741  49.6561127  43.1006546  15.7882109  49.1730728
  42.1957359  15.4342823  48.6791496  44.3000679  14.9714193  48.4841003
  44.0473976  13.9201632  48.6223640  44.5007896  15.1663408  46.9657059
  45.2039642  15.9859724  46.8179054  44.8104630  14.2133551  46.5367279
  43.5093117  15.4442558  46.6081619  45.5359039  15.3004856  49.0944214
  45.5622177  14.8406477  49.9367142  43.1430016  15.2472458  50.5745163
  43.4960480  15.9307022  51.5364380  42.6498260  14.0484123  50.7139320
  42.2848854  13.6219101  49.8742828  42.5999451  13.2932358  51.9929810
  43.2112999  13.7882528  52.7475014  41.1240997  13.2730484  52.5803146
  41.1589050  12.6906872  53.5010490  40.8398399  14.7303724  52.9947128
  39.8991776  14.8767214  53.5255966  41.6280785  15.1197615  53.6390343
  40.8545189  15.4525042  52.1783676  40.0810738  12.7287312  51.6491165
  40.2704430  11.6933956  51.3657150  39.0882034  12.7036972  52.0982132
  40.0698662  13.3898983  50.7826157  43.0663948  11.8617773  51.9131317
  42.8698273  11.1601105  50.9667969  43.6575012  11.4773216  53.0537758
  43.7108498  12.1163054  53.8341293  44.1987190  10.1155434  53.1211433
  44.4797287   9.7439251  52.1357307  45.3815994  10.0315380  54.0691719
  44.9617882  10.1881247  55.0628204  45.8183327   9.0338564  54.1138878
  46.5269394  10.9597092  53.7927437  46.2638664  12.0172100  53.8168945
  47.2385712  10.8226128  54.6069183  47.2095604  10.6844244  52.4683495
  47.6051788  11.6482916  51.8052368  47.2299576   9.5176535  51.9799919
  43.0736237   9.2151775  53.5932388  43.2293358   7.9777369  53.5774460
  41.9003410   9.7097721  53.9733620  41.7200165  10.6948967  53.8425560
  40.6782990   8.9558744  54.4575806  40.6122017   8.0663595  53.8310890
  40.7418327   8.6581135  55.9849968  40.7480698   9.5300703  56.6390266
  39.8688202   8.0992041  56.3220062  41.9160423   7.8156691  56.5124512
  41.9537735   6.8110485  56.0912437  42.7701149   8.4519777  56.2805710
  41.8194580   7.5854354  58.0379181  41.0075951   6.8887844  58.2468681
  42.7725525   7.1291246  58.3052940  41.6521454   8.8251848  58.8446770
  42.1334114   9.6583700  58.5376167  41.0017548   9.0742989  59.9427185
  40.3177261   8.1350641  60.5673370  40.5168457   7.2413530  60.1410332
  39.8139648   8.3223743  61.4224663  40.8972282  10.2691698  60.4578819
  41.3434372  11.0067711  59.9316216  40.3901787  10.5324650  61.2907524
  39.3580055   9.6493759  54.1311340  39.2699966  10.8439760  54.3826294
  38.3638916   8.8888006  53.6825066  38.4436417   7.8845391  53.6103897
  36.9617805   9.3580208  53.4119682  36.9384079  10.3719292  53.0125389
  36.3157768   8.4580841  52.3824463  36.7373276   8.6869507  51.4036636
  36.4661827   7.3803816  52.4460449  34.8541603   8.7031450  52.0933075
  34.3905678   9.8812227  52.1369438  34.1835518   7.6875768  51.6987000
  36.1770515   9.4377651  54.7570915  35.5911102   8.4422865  55.1242867
  36.2008324  10.5553694  55.5054703  36.6666756  11.4271650  55.2979507
  35.4815178  10.6384411  56.8036079  34.5470848  10.0929365  56.6718559
  36.2511330  10.0095205  57.9204636  36.2515182   8.9279337  57.7852898
  37.7111435  10.4577160  58.1358337  37.6042137  11.5315199  58.2895203
  38.1523972   9.9489298  58.9928856  38.3171158  10.3494997  57.2362862
  35.7072525  10.2433224  59.1755524  34.7769737  10.0099659  59.1339951
  35.2298660  12.1056957  57.0531578  35.9318390  12.9771614  56.5017853
  34.2414856  12.4317322  57.9189491  33.6399040  11.7397423  58.3424492
  33.9120140  13.8334293  58.0832405  33.6440277  14.1947699  57.0904083
  32.5394363  13.9242516  58.8046570  31.8020573  13.2370472  58.3897820
  32.7953186  13.5485468  59.7953529  32.0388489  15.3548460  58.8370628
  32.6507492  15.9107800  59.5474281  32.1610985  15.8159552  57.8569984
  30.5207024  15.4981813  59.1976166  30.1304855  16.5976028  59.5658569
  29.7610836  14.5073347  59.1024055  35.0299034  14.7802525  58.6943512
  35.2541656  15.8418093  58.1098442  35.8528328  14.3095150  59.5816116
  35.5124969  13.4092226  59.8877945  36.9526367  15.0044689  60.2588463
  36.4634399  15.9657087  60.4163437  37.2852783  14.3193035  61.6145058
  38.0027351  15.0371017  62.0121613  36.3596840  14.2341690  62.1838226
  38.0049515  12.9153662  61.4679222  37.3894234  12.2074080  60.9129219
  38.8843040  13.1226931  60.8581238  38.5449715  12.3324318  62.7393341
  38.0438614  12.5344868  63.8737488  39.5714607  11.6076298  62.6433144
  38.2103157  15.3091478  59.4422569  38.9391632  16.1783237  59.8123894
  38.4786835  14.5939369  58.3507729  37.7638512  13.9120655  58.1406136
  39.4717865  14.8989763  57.2496490  40.4486313  15.2324390  57.5999031
  39.7623825  13.5426569  56.5627327  38.8151169  13.1453924  56.1980820
  40.3297691  13.6915627  55.6440392  40.3379593  12.5837088  57.4897346
  39.7655869  12.3720140  58.3928795  40.2755241  11.6721601  56.8953590
  41.7600060  12.8132057  57.9447937  42.2014923  11.9923468  58.7740211
  42.5003853  13.7885876  57.5760651  38.9151764  15.9815321  56.2808990
  39.4477005  17.0321903  56.1033974  37.8455048  15.6552124  55.5853157
  37.2551842  14.9193850  55.9461288  37.3265991  16.3724689  54.4699326
  38.1360359  16.4321880  53.7423668  36.1928749  15.5278082  53.8718033
  35.4938126  15.2883930  54.6731110  35.4790077  16.3616867  52.7471695
  36.2616501  16.5194130  52.0050812  34.5951691  15.7922163  52.4597092
  35.0532837  17.3063126  53.0856094  36.5846786  14.1907539  53.2558975
  37.0999641  14.3225269  52.3044701  37.2220497  13.6608305  53.9637375
  35.3425064  13.2968798  53.0250092  34.9730301  13.1635723  54.0417824
  34.5870934  13.6829538  52.3406181  35.5936470  12.3168287  52.6193886
  36.9005508  17.8120537  54.8397331  37.3186340  18.7673702  54.1479950
  36.2039680  17.9333229  55.9449081  35.9916229  17.1155434  56.4983025
  35.8001404  19.2800179  56.4326897  35.1784439  19.7594547  55.6765556
  35.0132904  19.0615540  57.6885223  34.2292442  18.3160210  57.5560417
  35.6315346  18.5724201  58.4412689  34.3544502  20.2733879  58.3872719
  35.0586853  21.0848465  58.5708008  33.0687981  20.6587524  57.6127701
  32.4772110  19.7473373  57.5264931  32.4868317  21.3637867  58.2063522
  33.4603195  21.0384998  56.6690521  33.9672241  19.8782043  59.8493538
  34.8859749  19.7903576  60.4292564  33.4130745  20.7129784  60.2785072
  33.3378372  18.9888878  59.8823891  37.0950661  20.1326218  56.6961555
  37.1883850  21.2576294  56.1288605  38.0282478  19.6379681  57.4650993
  37.8842163  18.8024693  58.0140076  39.1786118  20.3485184  57.9904366
  38.8438301  21.2584190  58.4885483  39.9814873  19.4556255  59.0731659
  40.0246887  18.4053764  58.7846947  40.9955063  19.8115501  59.2553291
  39.3080215  19.4894848  60.4122620  38.2388687  19.5835152  60.2220688
  39.5212975  18.5802097  60.9742622  39.6105957  20.6723194  61.2875328
  39.9046364  21.7781658  60.8023109  39.4256439  20.5303345  62.5839539
  39.0723610  19.6410980  62.9072990  39.8704910  21.1305676  63.2636070
  40.1599197  20.7523422  56.8803749  40.4816399  21.9751167  56.6771507
  40.4703674  19.8351994  55.9460144  40.3074722  18.8562450  56.1336670
  41.2118530  20.1986103  54.7573700  42.0819664  20.7973232  55.0267105
  41.6464005  18.9963703  53.8848076  40.8505363  18.2650700  53.7437248
  41.9714699  19.4368324  52.9422455  42.8969345  18.2293034  54.5055046
  43.1312447  17.5171814  53.7142525  43.7358856  18.8908176  54.7215080
  42.6691895  17.3955669  55.7259140  42.3583298  18.0622902  56.5302429
  41.8390732  16.7104263  55.5538902  43.8317871  16.5020828  56.1742401
  43.9108124  15.5310335  55.6854439  44.7513390  17.0597782  55.9967575
  43.6769867  16.2702160  57.6495018  43.3140640  17.0500965  58.1788139
  43.0645065  15.4676304  57.6782761  44.5282478  15.9166155  58.0623283
  40.4545326  21.2159767  53.8312111  41.0431061  22.1166668  53.2226143
  39.1195564  21.1496277  53.6918831  38.5853539  20.3915443  54.0919304
  38.2465439  22.1590157  52.8998260  38.6779518  22.3224258  51.9122581
  36.8568726  21.6266594  52.6051025  36.2203026  21.4752197  53.4768524
  36.1302605  22.4907360  51.5411110  35.2829018  21.9152203  51.1684608
  35.6984673  23.3975887  51.9645233  36.8390961  22.7885933  50.7684975
  36.8562126  20.4100094  51.9260826  37.0843582  19.7204590  52.5538330
  38.1672707  23.5488205  53.5211945  38.2875328  24.5770340  52.8261185
  38.0356026  23.5530128  54.8628616  37.8554840  22.6669483  55.3129120
  38.0503922  24.7521152  55.6979027  37.2558708  25.4505482  55.4351768
  37.8109169  24.3006783  57.1576500  36.9584122  23.6279507  57.2513275
  38.7163010  23.9474678  57.6512337  37.3772507  25.5463085  58.0016022
  37.9883270  26.4092197  57.7368965  36.3707161  25.8446922  57.7084045
  37.3459549  25.3658829  59.5102654  37.0906181  26.2967529  60.0166092
  36.6008415  24.5931492  59.6994476  38.6355553  24.7452183  60.2082214
  38.9032097  23.8189182  59.6998558  39.4182434  25.5036144  60.2263527
  38.4157715  24.4447670  61.6264305  38.4084206  25.3571033  62.0596581
  37.5736923  23.9777317  61.9311981  39.2198219  23.9741669  62.0164833
  39.3933830  25.5163040  55.5554848  39.3591995  26.7114334  55.3365402
  40.4688034  24.7578907  55.6374855  40.3218803  23.7964840  55.9099007
  41.8617973  25.1420269  55.4310379  42.0921822  26.0463791  55.9942169
  42.7135277  24.0347919  56.0245056  42.2499580  23.9114780  57.0032768
  42.4623451  23.0732670  55.5767555  44.2217216  24.3085270  56.1512909
  44.7123718  23.4775429  56.6580772  44.6462402  24.3609715  55.1487274
  44.6045227  25.5688705  56.8280106  44.7890053  25.6297493  57.9843826
  44.7751122  26.6707592  56.0941696  45.0599861  27.5087967  56.5806351
  44.5246964  26.6549511  55.1158333  42.2498817  25.4578400  53.9820976
  43.1040192  26.3706455  53.8303452  41.6381302  24.8696861  52.9467888
  41.0307732  24.0664730  53.0246925  41.9272194  25.4690266  51.6423454
  42.9850082  25.6623058  51.4639511  41.4358864  24.5268421  50.5252609
  42.0573120  23.6320114  50.4904747  40.4654770  24.1159763  50.8038216
  41.3933830  25.0506630  49.0851364  40.7703476  25.9438362  49.1317139
  42.7558632  25.5926380  48.7396088  43.4580765  24.7802925  48.5522575
  42.6144600  26.0792408  47.7745590  43.1869087  26.3096924  49.4382744
  40.7966461  24.0782681  48.0975189  41.4132156  23.1795197  48.1115074
  39.7727470  23.8647938  48.4043770  40.8038788  24.5635414  47.1215286
  41.1891174  26.8314610  51.5120964  41.7955513  27.8168335  51.1496773
  39.9461899  26.9241428  51.9568520  39.5088768  26.1201954  52.3840866
  39.1941757  28.2087479  51.9882927  39.0544357  28.6732979  51.0121918
  37.7633705  28.0699940  52.5414810  37.8510246  27.6382751  53.5384941
  37.3132629  29.0520744  52.6864777  36.8410378  27.1855221  51.6591377
  37.3606949  26.3645782  51.1650658  35.5876846  26.6524220  52.3256683
  35.9222145  26.1109676  53.2105522  34.9950027  27.4998665  52.6701508
  35.1255035  25.9529171  51.6291199  36.2692680  28.0052147  50.4655609
  36.9714355  28.4583797  49.7657738  35.5209503  27.4999275  49.8549843
  35.6638145  28.8015976  50.8983536  39.9457474  29.3251934  52.8143730
  40.0873260  30.4488029  52.4150124  40.4645538  28.9079647  53.9652710
  40.2219810  27.9413013  54.1290359  41.1538849  29.8483753  54.8877754
  40.5254974  30.7209282  55.0663223  41.4979553  29.1120014  56.1313210
  40.5885048  28.6603088  56.5275230  42.2072563  28.3142185  55.9110069
  42.2310257  29.8934708  57.3074799  42.0438309  29.1880531  58.1170769
  43.2745628  29.9847908  57.0061607  41.5982018  31.2512302  57.6259193
  42.3672104  32.1377106  58.0429192  40.3829536  31.4770527  57.6803017
  42.4658928  30.3431835  54.3359718  42.8300858  31.4703598  54.5073891
  43.1690559  29.5035629  53.4918251  42.7839165  28.5835419  53.3326721
  44.1883125  30.0964336  52.6117401  44.6679192  30.8176498  53.2735023
  45.1525612  28.9957409  52.0347481  44.6120033  28.2562675  51.4439201
  45.9040070  29.5883751  51.5130119  46.0875244  28.1818085  52.9809380
  45.5693359  27.2561855  53.2315445  46.9766731  27.8487148  52.4456139
  46.5192795  28.9961510  54.2217331  45.6405258  29.4329090  54.6962242
  46.9743462  28.3006172  54.9268913  47.4374008  30.1926003  53.8169708
  47.2139969  30.4545670  52.7827759  47.2025337  31.0756989  54.4111710
  48.8559875  29.8192825  53.8888588  49.3781395  30.6197338  53.5621529
  49.1897011  29.6639137  54.8293915  49.0872574  28.9453373  53.4384880
  43.6336098  30.9803181  51.5685616  44.1095047  32.0979652  51.5595818
  42.6435127  30.5013618  50.7954445  42.1634178  29.6376915  51.0044479
  42.0887947  31.3465176  49.6474762  42.8808289  31.3836861  48.8995399
  40.8722954  30.6517143  49.0656433  40.3059044  30.3817749  49.9569550
  39.8701401  31.4988995  48.2490654  39.5204811  32.3335686  48.8566666
  40.3960533  31.9454784  47.4052162  39.0254517  30.8997898  47.9089622
  41.3560562  29.4520092  48.2354279  41.8398018  29.8110981  47.3270493
  42.0374603  28.9204273  48.8996620  40.1907234  28.5266819  47.8097801
  40.6085320  27.5509796  47.5616913  39.4930916  28.3909588  48.6362114
  39.7007904  28.7533894  46.8628540  41.7105370  32.7909851  50.0538750
  41.9896927  33.7453995  49.3541298  41.1550484  32.8917961  51.2627487
  41.0489998  32.0772171  51.8503799  40.5359879  34.1017113  51.9240303
  39.9238205  34.6139145  51.1817322  39.5951347  33.6672554  53.1440506
  40.1851273  33.0727615  53.8416100  39.1873665  34.8365021  54.0540771
  38.6540298  35.5642433  53.4424858  38.5720406  34.5985413  54.9217491
  40.1156616  35.3111343  54.3720207  38.3174896  32.9795685  52.6016922
  37.6956558  33.7982864  52.2395859  38.6119156  32.2000198  51.8990364
  37.6968422  32.1271362  53.6979637  36.9213295  31.5849819  53.1568909
  38.2762947  31.2899437  54.0871201  37.2137146  32.7265549  54.4695740
  41.6591415  34.9783859  52.3862877  41.4313049  36.1820908  52.3503647
  42.7281837  34.4000397  52.8880501  42.7862778  33.3996696  53.0145073
  43.9368210  35.1660690  53.2258263  43.6041183  36.0431633  53.7809105
  44.7550240  34.2517891  54.0769615  44.2286720  34.2416611  55.0313988
  44.8766212  33.2739754  53.6109161  46.1824646  34.7791519  54.3968735
  46.4680481  34.1547775  55.2434540  46.8300514  34.5361862  53.5544357
  46.3625298  36.2738152  54.8462715  45.4929924  36.8478889  55.5069160
  47.3650208  36.9024467  54.4998589  44.6809311  35.5902596  51.9434891
  44.9622040  36.7732773  51.7868500  44.8576851  34.7311859  50.8875465
  44.5191193  33.7799454  50.9123726  45.6787872  35.1402054  49.7241783
  46.6337242  35.6025581  49.9740372  46.0377884  33.8268661  48.9443436
  45.1605072  33.2262230  48.7041245  46.3694420  34.0774460  47.9367142
  46.9982109  32.8759346  49.6117706  46.8102798  32.8835678  50.6854210
  46.9298706  31.8351898  49.2950935  48.4707718  33.1857948  49.2277336
  48.9810143  34.3009300  49.4685059  49.1468086  32.3220596  48.6307755
  44.9753151  36.1170807  48.7590256  45.6583519  36.7323418  48.0125961
  43.6578102  36.3029747  48.8400803  43.1807785  35.6553917  49.4509621
  42.8750763  37.1752090  47.9506721  43.5083504  37.7895737  47.3106537
  42.0365067  36.2949448  46.9611206  41.2403145  35.8477631  47.5562744
  41.5554199  36.9852791  46.2682304  42.8550491  35.1967735  46.2028313
  43.6279984  35.5205994  45.3695030  42.8354988  33.9855843  46.6692467
  43.2805634  33.4020386  45.9753456  42.4977264  33.8320427  47.6086235
  42.1137199  38.2598991  48.7357445  41.2722969  39.0002975  48.2473564
  42.3006325  38.1818657  50.0550270  42.9073067  37.4875298  50.4672699
  41.8110504  39.1333122  51.0179329  42.1448517  38.6611824  51.9419327
  42.6002922  40.4237099  50.9873505  42.1700134  41.2105446  50.3677979
  42.4547501  40.9179077  51.9479179  44.0627823  40.2854805  50.7488022
  45.1282005  39.9077721  51.5238686  45.0847702  39.6220169  52.4916267
  46.2004356  39.6999016  50.7197380  47.1438141  39.3075104  51.0696869
  45.9232788  40.1029549  49.4830894  46.4988518  40.2190170  48.6612968
  44.5573540  40.5371246  49.4867172  44.0704346  40.9339676  48.6081810
  40.2062531  39.2438049  51.0475502  39.6150322  40.3132362  51.0398407
  39.4461060  38.1714859  50.8033257  39.8742599  37.2567291  50.8059235
  38.0273933  37.9779282  50.5411682  37.8006210  38.5354576  49.6324081
  37.7601318  36.4962234  50.3007469  37.7700195  35.9874954  51.2646980
  36.4634171  36.2194519  49.6734200  36.2678337  35.1483536  49.7243195
  35.5867729  36.6512108  50.1563072  36.4242401  36.5700378  48.6420860
  38.7943764  36.0845337  49.4136047  38.5759315  36.4193077  48.5407867
  37.2476006  38.4553528  51.7117844  37.7082481  38.4666519  52.8639832
  36.0395393  38.9924393  51.5349083  35.7671318  39.1524353  50.5755882
  34.9548950  39.1439171  52.5118141  35.2430191  38.4397163  53.2923164
  34.8132935  40.6232376  52.9699516  34.0089188  40.5673447  53.7034073
  35.7912750  40.8943939  53.3676071  34.3581200  41.6377831  51.9054680
  34.8095474  41.3632660  50.9520798  33.2834930  41.5101624  51.7751312
  34.6417656  43.0468292  52.4041862  34.1017647  43.1963577  53.3391418
  35.7222748  43.1552925  52.4981651  34.0151405  44.1637726  51.4939919
  32.9382019  44.0176926  51.5774536  34.2890587  45.1388397  51.8968811
  34.4766846  44.1183548  50.0974770  34.1994209  43.2546387  49.6533775
  34.0159035  44.8112221  49.5250130  35.4817047  44.1596413  50.0062141
  33.6740341  38.6104851  51.8791122  33.5281219  38.9288139  50.7122459
  32.7579460  37.9930649  52.6143532  32.9537430  37.5578194  53.9765129
  33.2533531  38.3630791  54.6472549  33.7553596  36.8245697  54.0651894
  31.7081165  37.0025520  54.5075798  31.0274010  37.7594757  54.8971863
  31.7831459  36.2984505  55.3362656  31.1032219  36.4095383  53.2532310
  30.0334530  36.6175194  53.2322426  31.2651234  35.3406982  53.1136742
  31.6510735  37.1408615  52.0559883  32.0789413  36.3424263  51.4497452
  30.6297455  37.9149437  51.2469444  30.1180325  37.3743210  50.3091164
  30.4030800  39.2052002  51.5015717  30.7992744  39.6292000  52.3282280
  29.2974529  39.9258881  50.8542366  28.3977318  39.3192329  50.9570541
  29.0384083  41.2595482  51.6379585  28.6565685  41.0631523  52.6398201
  29.8878365  41.9336586  51.7481880  28.0641994  42.2606201  51.0707397
  28.0386200  43.1127892  51.7498970  28.3978806  42.7140961  50.1374016
  26.6454010  41.7449837  51.0429611  26.2920170  40.8306580  51.8262367
  25.8723907  42.3825912  50.2882767  29.5547962  40.2554626  49.3992424
  28.6690578  40.7241745  48.6313553  30.7824459  39.9466591  48.9333534
  31.3416882  39.4952240  49.6429710  31.2345219  40.0560570  47.4904213
  30.6035652  40.8462524  47.0834999  32.7282982  40.5216522  47.5009041
  33.2943764  39.7741585  48.0567017  33.1203690  40.4455757  46.4867096
  32.9531784  41.8682289  47.9796944  32.1872444  42.8303452  48.0194740
  34.0602760  42.1046257  48.4030952  31.1162376  38.7501335  46.6674652
  31.1694412  38.8155708  45.4703026  31.0881462  37.6317291  47.3888206
  30.7177563  37.7178116  48.3245049  31.0989017  36.2934113  46.7827721
  31.8634491  36.2156563  46.0097771  31.5535774  35.3006973  47.8582039
  30.8118229  35.4123764  48.6490402  31.5133228  33.8622208  47.3119278
  30.4685631  33.6343460  47.1005974  32.0987091  33.7408333  46.4005051
  31.8378410  33.1711502  48.0898781  32.9155273  35.4437637  48.5779305
  32.9976654  36.4906158  48.8702507  32.8509483  34.8116531  49.4635773
  33.7341118  35.1681061  47.9130707  29.7980404  35.9804115  46.0950966
  28.8076839  35.5930099  46.7546387  29.7594700  36.1245956  44.7873955
  30.6431541  36.2320061  44.3102455  28.6238060  35.9083900  43.9214096
  27.8791656  36.6569176  44.1921768  28.9216309  36.0287628  42.4139099
  29.7123394  35.4009476  42.0031471  27.6921329  35.8528023  41.5462036
  27.2525234  34.8573761  41.6092758  26.9031162  36.4334946  42.0240593
  27.9688015  36.0761795  40.5158348  29.5954952  37.3918724  42.2311707
  30.5995121  37.4093285  42.6551476  29.7793598  37.5436516  41.1675644
  28.9258022  38.1973419  42.5325508  27.8940010  34.5500221  44.1359138
  26.7087498  34.4395866  44.3702888  28.7268829  33.5237045  44.2225990
  29.7179966  33.7173271  44.2051430  28.3874130  32.0958061  44.3080864
  27.6418228  32.0501251  45.1018829  27.8246479  31.7920418  42.8911781
  27.4926643  30.7551861  42.8381157  26.9181404  32.3784332  42.7411880
  28.7357559  31.9154739  41.6545486  28.8637257  32.9877625  41.5064926
  29.6836224  31.4669170  41.9519501  28.2875557  31.1128826  40.5139198
  27.2874680  31.4444294  39.8919106  29.1327305  30.1723957  40.0584297
  29.8560696  29.8073177  40.6614265  28.8449860  29.6273289  39.2583008
  29.5886421  31.3489876  44.6928024  30.6693058  31.9741230  44.7766647
  29.4854164  29.9948769  44.8435478  28.5468502  29.6231537  44.8754196
  30.5657349  29.1588631  45.3018951  31.5244350  29.3890343  44.8371162
  30.7893963  29.2277431  46.8298645  31.1900826  30.2283306  46.9922714
  29.8614025  29.2614441  47.4006462  31.7129574  28.1358795  47.3262596
  31.5650425  28.0762138  48.4045296  31.3322201  27.1532497  47.0477333
  33.4934464  28.3576603  47.0511246  33.6705589  29.3869152  48.4782333
  34.7291298  29.6307735  48.5680542  33.1685410  30.3544235  48.4752045
  33.1666298  28.9164677  49.3225327  30.2511578  27.7146797  44.9078674
  29.1120319  27.2988777  45.0291481  31.2397709  26.9764633  44.3294373
  32.1347160  27.4129143  44.1600723  31.0444183  25.6316280  43.8551369
  30.1873798  25.2785854  44.4286766  30.6851292  25.7837296  42.3615112
  29.6545582  26.1193733  42.2459030  31.4663258  26.4633904  42.0210800
  30.7348022  24.4342232  41.5669670  31.7561646  24.0800762  41.7066002
  29.7025928  23.3914356  42.0017281  29.9193993  22.4751530  41.4526253
  29.5747337  23.3122425  43.0813026  28.6887074  23.6553402  41.7009125
  30.4756584  24.6411648  40.0271149  31.1857128  25.3731098  39.6421661
  30.6854782  23.7101860  39.5004730  29.4710464  24.8951645  39.6889725
  32.2788658  24.9376755  44.2187195  33.4853859  25.4153748  44.1545868
  32.0448647  23.7430992  44.7247581  31.0739269  23.4878292  44.8352890
  33.0207558  22.7052574  45.0925102  34.0033989  23.0105190  44.7328835
  33.1405525  22.5461559  46.6339035  32.2241707  22.0640068  46.9743118
  34.0223351  21.9281521  46.8031158  33.3380203  23.8605042  47.4829178
  33.9360161  24.5651150  46.9049721  31.9722500  24.4519978  47.9157372
  31.3538704  24.8432865  47.1079063  31.4766731  23.7307281  48.5655632
  32.1654549  25.2551556  48.6268768  34.0335541  23.5088882  48.8261642
  34.9137077  22.8708115  48.7468529  34.3001785  24.3694153  49.4397621
  33.3715782  22.9044304  49.4462662  32.8078194  21.4470119  44.3351784
  31.6619644  21.2309761  43.9568634  33.8009796  20.6215248  44.1103821
  34.7031708  20.9097004  44.4612465  33.9089050  19.3607235  43.2774239
  32.8845139  19.0058670  43.1642647  34.3132629  19.7879486  41.8535042
  33.6403618  20.6029434  41.5868874  35.3418541  20.1422062  41.7855759
  34.2161636  18.7401085  40.9570236  34.9166031  18.9130535  40.3237190
  34.7355499  18.3492050  43.9164467  35.6945267  18.7005939  44.6694832
  34.2957191  17.1024437  43.7738190  33.5556908  16.8255310  43.1447105
  34.9684143  15.9768667  44.4534569  35.9908485  16.3283825  44.5919037
  34.2555962  15.5710592  45.7360649  34.8941727  14.8434877  46.2370224
  34.1824303  16.4544086  46.3704529  33.2180214  15.3529377  45.4831657
  35.1496239  14.6874924  43.5768661  34.3418198  14.3853960  42.7073479
  36.2532921  13.9888859  43.8393974  36.9440460  14.3149204  44.5001945
  36.3812218  12.6686926  43.1827126  36.2344894  12.7791910  42.1083031
  37.8279724  12.1732893  43.2345047  37.8997002  11.1665754  42.8228226
  38.7874336  13.2385378  42.4752846  38.3331070  13.5412493  41.5318565
  38.8901711  14.0297918  43.2178917  39.7383804  12.7357912  42.2990837
  38.5017166  12.1203508  44.5100594  38.1310158  11.2752962  44.7747574
  35.4520111  11.5798969  43.8003349  35.2039642  11.6095219  45.0041122
  34.9183388  10.6471348  42.9326286  35.3301735  10.5293198  41.5281792
  36.4177399  10.5614090  41.4628220  34.8123741  11.3000422  40.9572411
  34.7435188   9.1606245  41.0962029  35.3073311   8.2588816  41.3351059
  34.5679512   9.1517296  40.0204697  33.5229797   9.0806770  41.9386749
  33.2379150   8.0339994  42.0449982  32.6903305   9.6570311  41.5354195
  33.8668137   9.7117825  43.3327522  32.9705315  10.2123728  43.6990700
  34.2734680   8.5601759  44.3165283  33.3805046   7.8743501  44.7866173
  35.5857925   8.4542027  44.6406403  36.3046951   9.0412426  44.2423172
  36.0882454   7.4474425  45.7052803  35.5825768   6.4887609  45.5898399
  37.5883522   7.2874908  45.3210983  38.0959816   6.9364567  46.2195358
  37.6566620   6.5788403  44.4957199  38.4708557   8.5122709  44.9737663
  39.6688843   8.3774490  44.9146996  37.9907265   9.6088448  44.8883018
  35.9186401   8.0049362  47.1457481  36.6547089   7.5832524  48.0340042
  34.9152870   8.9096737  47.3635139  34.3100166   9.0048056  46.5605850
  34.6360168   9.6408100  48.5897751  35.0725861   9.0261574  49.3769913
  35.3145065  11.0468702  48.5584526  34.9219055  11.6154537  47.7154350
  34.9247589  11.5434647  49.4470406  36.8366051  11.2731647  48.3570786
  37.0763130  11.0032787  47.3285866  37.1057663  12.8131866  48.5418243
  36.7214966  13.3697586  47.6870422  36.7940865  13.2197218  49.5039520
  38.1879501  12.9434891  48.5434647  37.6350746  10.5820494  49.4660034
  37.3893585   9.5254908  49.3591690  38.6859818  10.8343000  49.3243446
  37.4269638  10.8845901  50.4922867  33.1301498   9.7028751  48.6820068
  32.4080582  10.0177965  47.7124023  32.6585846   9.5233917  49.8765297
  33.3355255   9.5968552  50.6224899  31.2195263   9.2826805  50.2628822
  30.5760860   9.6780386  49.4768906  31.0550423   7.7979994  50.2707520
  31.6967945   7.4056044  51.0596008  30.0223827   7.5835214  50.5459175
  31.4522686   7.0532475  49.0034904  30.8561668   7.0827513  47.7697449
  30.1013565   7.6943703  47.4935493  31.6783791   6.5087876  46.8788376
  31.4869614   6.6241450  45.8222160  32.6741104   5.8962326  47.4847641
  33.2926178   5.2644577  46.9964943  32.5932617   6.2807002  48.8135948
  33.2158928   5.9671164  49.6384544  30.8327789   9.8851528  51.5884056
  29.6597233   9.9560022  51.9071312  31.7333851  10.3124437  52.4704285
  32.7116280  10.2248983  52.2349052  31.4073582  10.6592741  53.8538132
  30.8135815   9.8797369  54.3311501  32.6396904  10.6047268  54.7229919
  33.5082245  11.1193523  54.3120041  32.4615479  11.0272083  55.7118683
  33.0366440   9.5981636  54.8547554  30.5838165  11.9115820  54.0713234
  29.6982422  11.8570547  54.8933296  31.0064449  12.9892101  53.3991966
  31.8797722  12.8991175  52.8999100  30.3459625  14.2637653  53.4638100
  29.2748165  14.0657320  53.5029335  30.7462177  14.9567480  54.8428612
  31.0044422  14.1533661  55.5327873  31.9154968  15.8904343  54.6463699
  32.2465019  16.3027534  55.5995407  32.7014122  15.2401133  54.2622910
  31.6838894  16.6819096  53.9336090  29.6724892  15.8643694  55.4118118
  29.9489822  16.2367401  56.3982124  29.5458126  16.6964226  54.7191772
  28.7704487  15.2528677  55.4339142  30.4562836  15.2038040  52.2484512
  31.4260159  15.2336655  51.4938049  29.4103889  16.0019150  52.0767326
  28.5214100  15.8056240  52.5140991  29.4652634  17.2185287  51.2091370
  29.7338123  16.9557819  50.1859322  28.0880413  17.8631535  51.1530266
  27.8290730  17.9822941  52.2050896  28.1052723  18.8432102  50.6762733
  26.9555626  17.1637878  50.3661118  25.7962074  16.7382221  51.0081291
  25.5700474  17.1767807  51.9688148  24.8170471  15.9894066  50.2816429
  23.9197998  15.6415586  50.7718964  24.9736748  15.6270523  48.9519348
  24.2297668  15.1466208  48.3337212  26.1795597  16.0294628  48.3065338
  26.3006973  15.7563763  47.2686729  27.1216507  16.7556515  48.9912605
  28.0603867  16.9810219  48.5071259  30.6042309  18.2893066  51.6303558
  30.4813595  18.8181248  52.7638435  31.5276203  18.6970196  50.7302971
  31.7823467  18.0434399  49.3990898  31.0683327  18.3364925  48.6294098
  31.8380184  16.9609547  49.5141106  33.1800880  18.5117149  48.9091644
  33.2663422  18.4559517  47.8240128  33.8544350  17.8126755  49.4038353
  33.2643852  19.9027843  49.6269875  32.6888962  20.6631069  49.0989456
  34.3013229  20.1998901  49.7837830  32.5449181  19.7051392  50.9440422
  33.2739754  19.4666042  51.7184296  31.9462852  21.0053902  51.3717499
  32.5589333  21.8448582  52.0217705  30.6745052  21.3682899  50.9719200
  30.3297806  20.7692890  50.2354012  29.9378643  22.6013298  51.3188858
  30.3407383  23.5023804  50.8563919  28.5546608  22.4023914  50.7056046
  27.8547497  23.0301228  51.2571373  28.5239391  22.4785557  49.6187057
  28.2183037  21.3837700  50.8989372  29.9048462  22.7395191  52.8385277
  29.8565540  23.7784100  53.4027023  29.9913101  21.6552620  53.6173744
  29.9031258  20.8319759  53.0389938  29.8150520  21.7676373  55.0798264
  28.9331913  22.3799248  55.2683067  29.6166039  20.3111477  55.5854378
  29.0754700  19.7251701  54.8425331  30.6154442  19.8866100  55.6863632
  28.9219685  20.1593800  56.9071426  29.5946693  20.7036800  57.5699501
  27.9624138  20.6763649  56.9164658  28.7118053  18.7006664  57.3197250
  28.2713928  18.1378899  56.4966698  29.6640930  18.2293453  57.5628357
  27.8306313  18.5552540  58.5685005  28.2723579  19.1648960  59.3567352
  26.8462276  19.0055141  58.4407349  27.5904446  17.1768665  58.9284935
  27.0121155  17.0323353  59.7438126  27.1630383  16.6453075  58.1835938
  28.4474487  16.6505928  59.0216560  31.0397625  22.4667244  55.7737465
  30.9002686  23.0824223  56.8054924  32.1731339  22.6352768  55.0583420
  32.2049637  22.1665192  54.1642761  33.3070145  23.3798275  55.5428543
  33.4740295  23.2411537  56.6110191  34.5123177  22.9167004  54.7615509
  34.7144241  21.8623009  54.9499321  34.4319687  23.0723591  53.6857185
  35.3557816  23.4787979  55.1624413  33.0770760  24.8902397  55.4952736
  33.6998787  25.6324940  56.2527847  32.0798798  25.4184208  54.7512970
  31.4405308  24.7341366  54.3730240  31.7850761  26.8271732  54.6154785
  32.7124138  27.3885536  54.7295074  31.0932865  27.1223106  53.2553520
  30.0761585  26.7322102  53.2182884  31.2486973  28.6210346  52.9378815
  30.2973824  29.1353703  53.0741119  32.0452499  29.0606327  53.5381775
  31.5498409  28.8750877  51.9215775  31.8188419  26.4091892  52.0553360
  31.4737644  26.7575264  51.0818443  32.8598175  26.7294350  52.0990677
  31.5761089  25.3491421  52.1293640  30.9182758  27.3744812  55.7674103
  31.1119137  28.5261917  56.2182274  30.2634315  26.4768257  56.4340630
  30.2682190  25.5610104  56.0081940  29.5902538  26.6172009  57.7661705
  28.7952671  27.3580379  57.6809196  28.8575878  25.2134018  58.0989342
  28.3860455  24.8336678  57.1925392  29.5828743  24.4477005  58.3741798
  27.8760757  25.2782059  59.2142143  28.2661705  25.9279823  59.9976196
  27.0098839  25.8595104  58.8981514  27.4802437  23.8853416  59.6199188
  26.6878605  23.8769379  60.3683548  27.0598793  23.3312130  58.7806702
  28.6181431  23.1220837  60.1036453  29.5325737  23.5455704  60.0359955
  28.5985184  21.9342136  60.6255722  27.4696636  21.2853508  60.8728790
  26.6033344  21.7282581  60.6019325  27.6022377  20.4696198  61.4534874
  29.7579803  21.3424606  60.7734375  29.7879219  20.3463898  60.9378967
  30.5904102  21.8973808  60.6347733  30.5684547  27.1090603  58.8352661
  30.1290855  27.7145653  59.7656441  31.8107796  26.6247082  58.8228798
  32.0288773  26.0379543  58.0302582  32.8546181  26.8428440  59.8761368
  32.3170547  26.7813530  60.8223648  33.9113503  25.7203369  59.6200256
  34.4469833  25.9032650  58.6885033  34.6491470  25.7464066  60.4219475
  33.3619614  24.2784100  59.5641632  32.6543922  24.2454090  58.7356949
  34.1257362  23.5504837  59.2905350  32.5342369  23.9507694  60.8186302
  31.3688965  23.6600399  60.6796913  33.0940170  23.9175034  61.9304352
  33.4027405  28.2865696  59.7900467  34.3509865  28.5889397  60.5026474
  32.9968109  29.1722126  58.8421288  32.1902618  28.9902935  58.2620544
  33.5847473  30.4933281  58.5870667  34.5045509  30.6418190  59.1527672
  33.9778137  30.6933727  57.1352806  33.0502815  30.7099705  56.5629997
  34.4158974  31.6910038  57.1049500  35.0082092  29.7258911  56.5254555
  34.6484680  28.7523956  56.8586121  35.1902695  29.7173500  55.0000267
  36.2112617  29.4491920  54.7284241  34.4836960  29.0473003  54.5102463
  35.1238327  30.7084942  54.5513382  36.4505577  30.0169010  56.9340134
  36.7573814  30.9955521  56.5649567  36.5394516  30.1434536  58.0129890
  37.1358757  29.2352257  56.6062622  32.5217018  31.5391846  59.0066261
  31.3493156  31.6037369  58.5393448  32.8860207  32.4128227  59.9375648
  33.8443680  32.3485031  60.2498703  32.1238174  33.5940552  60.4441948
  31.2061310  33.2533226  60.9236259  32.9822006  34.4248047  61.4190674
  34.0034676  34.5089264  61.0475349  32.5150604  35.3939362  61.5941734
  33.0448914  33.6881409  62.6879463  32.1713028  33.6326523  63.0821114
  31.7201385  34.4433670  59.1975555  32.5172997  34.8160515  58.3633652
  30.4503708  34.8751640  59.1932907  29.8128262  34.4623871  59.8590622
  29.8411293  35.8548470  58.2988892  28.8389320  36.0838776  58.6611710
  30.3494663  36.8184013  58.2634430  29.5967274  35.4133224  56.8752937
  28.8250160  36.0704231  56.0845718  29.9556599  34.2066803  56.5113564
  30.2677174  33.6272507  57.2775040  29.5554066  33.5518417  55.2275352
  29.6119308  34.2698059  54.4093399  30.6409874  32.4648285  55.0083618
  30.8685188  31.9698944  55.9524841  30.2988987  31.7073765  54.3031311
  31.9616299  32.8842316  54.4827690  32.8674393  33.5589027  55.1385307
  32.7317619  33.8633881  56.1657982  33.9962311  33.7873726  54.3929443
  34.7723160  34.3698578  54.6731339  33.8177261  33.3185005  53.1110573
  34.6065979  33.2176056  51.9016571  35.5571632  33.6941948  51.7127419
  34.1237717  32.6117554  50.7619362  34.7283249  32.5996399  49.8670769
  32.7890091  32.0564804  50.7943764  32.4776192  31.5166130  49.9123459
  31.9734077  32.1654205  51.9901314  31.0229321  31.6576195  51.9184875
  32.4872475  32.8051109  53.1251793  28.1686897  32.8905449  55.2376823
  27.8145771  32.1173172  54.3235893  27.4218311  33.2976952  56.2194901
  27.8762150  33.9958191  56.7906837  26.1111012  32.6872597  56.5062752
  26.1855412  31.6105652  56.6588783  25.6097755  33.3245659  57.8048973
  26.3022251  33.0368004  58.5959778  25.5956211  34.4025536  57.6441307
  24.1365089  33.2556648  58.3184738  24.0683765  33.8086624  59.2553062
  23.4417381  33.6681671  57.5868759  23.7027435  31.8450394  58.6579857
  23.4647942  31.4990463  59.8322487  23.5646915  30.9514637  57.7206192
  23.7161217  31.1643658  56.7449951  23.2082157  30.0523071  58.0113792
  25.1383629  32.8239746  55.3570213  24.1215782  32.0498962  55.2691803
  25.3446598  33.8002625  54.4596405  26.1465244  34.3751793  54.6754761
  24.2729893  34.1199837  53.4735718  23.3464756  33.5576897  53.5897598
  23.8694515  35.5667496  53.5616989  24.6201878  36.3062973  53.2831993
  23.1049728  35.8406334  52.8346100  23.4112339  35.9590836  54.9300346
  22.1132259  35.6063042  55.3646469  21.4648800  35.0408897  54.7116890
  21.6335640  36.0476151  56.5952797  20.6261005  35.9626846  56.9750252
  22.5333691  36.7655144  57.5054207  22.1609116  37.2251663  58.7111244
  22.7495422  37.9592400  58.9015121  23.9027882  37.0223503  57.1008263
  24.5635910  37.5494843  57.7730408  24.3074245  36.6678314  55.7635269
  25.3411961  36.8694534  55.5246429  24.7840118  33.7895088  52.0374680
  24.0253658  33.7346992  51.0279121  26.0620346  33.5332336  51.8422928
  26.7231903  33.8131485  52.5526657  26.6393642  33.0130119  50.5517235
  26.5497589  33.7988052  49.8016548  28.1784382  32.7681770  50.6755371
  28.3021603  32.0357933  51.4732933  28.7193336  32.0369568  49.4774857
  29.8046761  31.9394493  49.4525223  28.3687954  31.0062408  49.4241028
  28.3723640  32.5547981  48.5833130  29.0587044  34.0019341  51.0885391
  28.9142399  34.7431717  50.3025322  28.6954288  34.3738670  52.0465584
  30.1277142  33.8220100  51.2023163  25.9245567  31.7459602  50.1157188
  25.7970524  30.8206978  50.8875275  25.4734783  31.6259365  48.8332939
  25.2804699  32.7078590  47.8747787  26.2300243  33.2390518  47.8093376
  24.5185223  33.3003883  48.3811798  24.7353897  32.1178627  46.6046066
  25.5178795  31.8899708  45.8808174  24.0143337  32.8125992  46.1738815
  24.0435963  30.8706207  47.1150322  23.9756660  30.1152668  46.3321342
  23.1177216  31.1496811  47.6180038  24.9325695  30.3873177  48.2880058
  24.2919254  30.0092468  49.0847092  25.9923401  29.4169044  47.8747444
  26.8919373  29.7918530  47.0909920  25.8350468  28.1644497  48.2743263
  25.0161819  27.9368324  48.8199883  26.9482994  27.1811428  48.1313858
  27.7569599  27.4607887  47.4561348  27.5550709  26.8728848  49.4847488
  26.8017082  26.3072014  50.0329704  28.8018093  25.9268551  49.4177437
  29.1887436  25.7655029  50.4238968  28.5308380  24.9657936  48.9806671
  29.5856075  26.3772507  48.8087196  27.8920040  28.1615410  50.2622910
  28.4409943  28.8911724  49.6670151  26.9845333  28.6792278  50.5730972
  28.4729538  27.8253136  51.1210976  26.4442730  25.8563976  47.4986343
  25.4220791  25.3415184  47.9519615  27.0560303  25.3903065  46.4272614
  27.8731232  25.8584499  46.0621529  26.7999344  24.0840378  45.7805824
  25.9883862  23.6839008  46.3883476  26.3354511  24.3291340  44.3328667
  26.2308865  23.3076515  43.9671555  25.0190983  25.0560760  44.2359276
  25.1852970  26.0905800  44.5363960  24.6979256  25.1404362  43.1977386
  24.2619934  24.5341511  44.8211517  27.3791046  24.9885178  43.5809135
  27.6442165  25.7717285  44.0686607  28.0114517  23.1801052  45.8895187
  29.1724472  23.5544930  46.2129326  27.7644653  21.9215107  45.4712791
  26.8087025  21.6440887  45.2990799  28.7193050  20.8496361  45.2205467
  29.7432575  21.2195568  45.1678467  28.6741543  19.8010521  46.3879013
  27.6404629  19.6014042  46.6702538  29.0676441  18.9033718  45.9109955
  29.6681156  20.3742676  47.8436661  28.9509964  21.5014420  47.8544121
  28.4825535  20.1212330  43.8944168  27.4025784  20.0284595  43.3514099
  29.5182323  19.4979649  43.3251686  30.4361229  19.4922848  43.7465286
  29.4157944  18.5989876  42.1414795  28.4261818  18.1541176  42.0372658
  29.5061035  19.4377613  40.8553009  29.2995472  18.7929478  40.0011024
  28.7224808  20.1951809  40.8740845  30.8165836  20.0449295  40.5612335
  31.1659870  20.7691326  41.2971344  31.4986534  19.1996269  40.6526031
  30.9448414  20.7346821  38.9875679  32.6306686  21.5511322  39.1303406
  32.5258560  22.4460487  39.7437248  33.3676605  20.7987461  39.4111519
  32.8783035  21.8735142  38.1189804  30.3838444  17.4495049  42.2039871
  31.1565037  17.3639717  43.1630554  30.3464699  16.4869099  41.3168831
  29.5969543  16.4602089  40.6404114  31.4514465  15.5724745  41.1575317
  32.0205116  15.5709400  42.0871887  30.7524567  14.2539673  40.7576103
  29.8231773  14.0641260  41.2947311  30.6590023  14.3208561  39.6736870
  31.5511112  12.9669046  40.9736824  31.1566067  12.2418985  40.2617607
  32.6296120  13.1244345  40.9847679  31.2717228  12.3205976  42.3562813
  30.3856163  11.5333605  42.6274834  32.0988197  12.6476908  43.2980309
  32.7501068  13.3886118  43.0813255  32.2862549  12.0841780  44.1149864
  32.3449059  15.9964437  39.9974937  31.8753319  16.4285564  38.9706802
  33.6733398  15.7535620  40.1236343  33.9957962  15.1459265  40.8631668
  34.6434937  16.0354748  39.0516319  34.3860435  16.9841213  38.5805817
  36.0792656  16.1734047  39.5788498  35.9781876  16.5818329  40.5843658
  36.3124771  15.1121702  39.6654510  37.0791473  16.9929066  38.6418381
  38.0737915  16.8199978  39.0527954  37.1444359  16.4789143  37.6828537
  36.8865700  18.4588299  38.5159798  37.5397530  19.0967216  37.7043304
  36.1860847  18.9644051  39.4209290  34.5740585  14.8219862  38.0772247
  34.2053604  13.6722507  38.4141388  34.9836693  15.0929308  36.8235817
  35.1906395  16.0204277  36.4815140  35.2421646  14.0740948  35.8088493
  34.2975845  13.5846643  35.5715256  35.7153511  14.7474709  34.5025024
  34.9303970  15.4348383  34.1871071  36.6780014  15.1883688  34.7613640
  35.9132767  13.6962099  33.3545341  36.5866470  12.8836536  33.6273499
  34.8962593  13.4078064  33.0888290  36.6154671  14.5072498  31.9397602
  37.0621605  13.2060461  30.8285961  37.5292320  13.5671186  29.9123135
  37.8258820  12.5400696  31.2302227  36.0602074  12.8081760  30.6676903
  36.1967773  12.9092808  36.2772408  37.2121201  13.1445093  36.9460564
  35.9411659  11.6338444  35.9767685  35.0776291  11.4999647  35.4703293
  36.7675056  10.4902382  36.3300171  37.3091278  10.7007179  37.2522125
  35.9296570   9.2800674  36.5184250  35.1153831   9.5456390  37.1926117
  35.6590424   8.8693151  35.5457153  36.8182907   8.1865873  37.0820656
  37.8233795   8.3507290  37.7926102  36.6728706   7.0307107  36.6535301
  37.7005463  10.3233347  35.0702019  37.2410660  10.0947380  33.9240570
  38.9836044  10.5616865  35.3173485  39.2326012  10.7936764  36.2682877
  40.0891266  10.5859184  34.3613968  39.5410881  10.4344263  33.4314461
  40.6645889  12.0419645  34.2057991  40.6782303  12.5203781  35.1851044
  42.1116676  12.1711168  33.5384827  42.1165962  11.6211710  32.5973969
  42.3686180  13.1992044  33.2833061  42.9145050  11.6944427  34.1009216
  39.6743507  12.8453016  33.3129730  38.6815605  12.8610029  33.7626572
  40.0527573  13.8648319  33.2390251  39.6461639  12.4120293  32.3131828
  41.1791573   9.5998831  34.5485725  41.5639572   9.3087406  35.7012482
  41.5603104   9.0511036  33.3970108  41.2237091   9.3154516  32.4821777
  42.3679047   7.8251791  33.4805679  41.8535423   7.2197852  34.2269173
  42.3423462   6.9785857  32.1773415  41.2965050   6.7550230  31.9667625
  43.1349640   7.4762931  30.9578247  44.2140617   7.4337611  31.1056480
  42.9449615   6.8424587  30.0916519  42.8927422   8.5196295  30.7556400
  42.9181061   5.7454381  32.5497780  42.3880310   5.0049982  32.2458534
  43.7547531   8.1845741  34.0263176  44.4813957   9.1194592  33.5358696
  44.2994461   7.5234156  35.0316811  43.7453384   6.7656183  35.4042511
  45.6267509   7.7202673  35.6444092  45.9566422   6.9596624  36.3520470
  46.4168777   7.8119020  34.8991508  45.6016998   9.0345888  36.4506989
  46.6263695   9.5263720  36.9472885  44.4513130   9.7210836  36.6280479
  43.5840034   9.3439417  36.2736015  44.2590256  11.0572319  37.3412361
  45.0198860  11.7872915  37.0651817  43.2710342  11.5030785  37.2263641
  44.5344124  10.9099035  38.8343658  44.5738716   9.8516064  39.3859634
  44.6166992  12.0977392  39.4754906  44.5973969  12.9964809  39.0150642
  44.7830620  12.1568050  40.9053650  45.7120247  11.6250982  41.1113205
  44.9809074  13.6187000  41.2947578  45.8013420  13.9797573  40.6745758
  44.2025299  14.2739620  40.9037895  45.3420486  13.9120464  42.7900925
  44.5082664  13.6376543  43.4363213  46.6221199  13.2499418  43.2798767
  46.4131699  12.1803417  43.2598114  47.4409218  13.4699059  42.5948334
  46.6860046  13.4055986  44.3568115  45.4387627  15.3753242  43.0333862
  46.4126778  15.7344437  42.7007866  44.6680565  15.9981518  42.5792961
  45.4256859  15.6060839  44.0985985  43.5379066  11.6311140  41.6579514
  42.4038124  11.8360901  41.2036362  43.6431198  10.9056778  42.8040009
  44.5680008  10.8796062  43.2089920  42.6422462  10.2502785  43.6225853
  41.6885529  10.2381334  43.0949326  43.1697922   8.7892027  43.8799820
  44.1379623   8.7609758  44.3799362  42.4450073   8.3768902  44.5819702
  43.2710342   8.0271196  42.5609779  44.0313835   8.4296875  41.8917160
  43.6237297   7.0060587  42.7063713  41.9777832   7.8533549  41.9634476
  41.1622200   7.8227153  42.6859550  41.7301674   8.7018518  41.3256073
  42.0262527   6.6024528  41.0476036  42.9231834   6.6168523  40.4283981
  42.0642738   5.7074289  41.6685600  40.8711624   6.6400881  40.1058998
  40.9661751   5.8961802  39.4293823  39.9876099   6.5572286  40.5881577
  40.8698044   7.4509325  39.5037117  42.4489784  11.1090107  44.8676834
  43.2163391  12.0240917  45.2120514  41.2960396  10.8512316  45.5657845
  40.7749596  10.0603199  45.2150192  40.8086472  11.3773394  46.8617821
  39.7236252  11.2733450  46.8639221  41.3560867  10.6124306  47.9673538
  42.4292526  10.7438231  48.1057320  40.9823189  11.0196781  48.9067917
  41.0311317   9.1291533  48.0388870  39.9492874   9.0159073  47.9689789
  41.3817024   8.6410837  47.1294975  41.5713730   8.4658413  49.3002205
  42.6563225   8.3882437  49.2298012  41.3444519   9.0656118  50.1816292
  40.9795570   7.0166793  49.4917564  40.9718285   6.7357788  50.5449142
  39.9403229   7.0723658  49.1677399  41.6557693   6.0227132  48.7122765
  41.7180405   6.2857652  47.7391243  42.6170883   5.9852557  49.0197983
  41.2067223   5.1190019  48.7542763  40.8797531  12.9272995  46.9569702
  41.4492455  13.4381618  47.9268227  40.4260902  13.6557007  45.9340591
  39.8208427  13.2470522  45.2363625  40.5481491  15.1061811  45.8095551
  41.2268181  15.4406157  46.5941963  41.2993774  15.3741665  44.4865417
  42.2096748  14.7953949  44.3300629  40.6798668  15.2223406  43.6026535
  41.8084679  17.0281734  44.5426254  41.9714317  16.9840508  45.8679161
  39.2956009  15.9756317  45.9270630  38.3117714  15.6128254  45.2887573
  39.3661385  17.0832844  46.7837334  40.2349358  17.3152218  47.2436218
  38.2993393  18.0998478  46.8310013  37.3689537  17.8109875  46.3420753
  37.8415871  18.4262562  48.2756462  38.7182579  18.8703632  48.7471542
  36.7444839  19.5574360  48.2100143  37.0449181  20.4837341  47.7203026
  35.8491364  19.1843109  47.7127876  36.5006447  19.9249344  49.2068062
  37.3856239  17.1904507  49.0948906  36.6015587  17.4793015  49.7948265
  36.8619308  16.5123825  48.4210434  38.6047859  16.5721779  49.8099518
  39.2476349  16.0699673  49.0870209  39.1762733  17.2548618  50.4387970
  38.2854500  15.8332262  50.5448494  38.7769470  19.4122944  46.1293030
  39.7915726  19.9419003  46.5435562  38.0721169  19.9638939  45.1428490
  37.2530022  19.4181881  44.9162369  38.3196716  21.2056599  44.4989548
  39.2773781  21.6120758  44.8241196  38.2263451  20.9600487  42.9663353
  37.2001991  20.6281166  42.8083839  38.2944412  21.9021263  42.4223175
  39.2903976  19.9331970  42.4431534  40.3002396  20.3332939  42.3523445
  39.4555664  19.0717506  43.0902519  38.9701309  19.3597183  41.0562859
  38.1454315  18.6470242  41.0625877  38.6896782  20.2092571  40.4336014
  40.2255630  18.7159863  40.4761086  40.9185677  19.3594627  40.1214485
  40.5252609  17.4358826  40.3814430  39.9872627  16.4836617  41.1018410
  39.4381905  16.7876072  41.8931923  40.3273811  15.5397406  40.9859390
  41.4862289  16.9953709  39.6284561  42.0228119  17.6522522  39.0801048
  41.8112297  16.0464325  39.7467346  37.3574486  22.2479515  45.0097504
  36.2015991  21.9666843  45.3487244  37.7534103  23.4716377  44.8094597
  38.7493858  23.4735813  44.6417465  37.0342903  24.6993141  44.9976196
  35.9869995  24.4330425  45.1403694  37.6951294  25.4237022  46.2405434
  38.7807045  25.5156403  46.2747726  37.2072601  26.9069443  46.3612595
  36.1466370  27.0570335  46.1596222  37.4496307  27.2731075  47.3588982
  37.8327293  27.5901814  45.7867393  37.1480370  24.9052486  47.5988655
  36.0943680  25.1683731  47.6918297  37.1648750  23.8154697  47.6132965
  37.7308884  25.1934814  48.4736824  37.1350899  25.5942554  43.7500610
  38.2013435  25.7013302  43.1326370  36.0174446  26.2749615  43.4517288
  35.2206955  25.9928169  44.0046196  35.6850510  27.1986752  42.4023285
  36.6210785  27.6650219  42.0949631  35.1146164  26.3306923  41.2587280
  35.8244972  25.5520802  40.9795647  34.2232323  25.9650936  41.7685051
  34.6823311  27.0838318  39.9897652  34.1622200  26.3619423  39.3601151
  33.9651375  27.8610916  40.2535934  36.0107498  27.8100529  39.0106735
  36.0925903  29.4689713  39.6868629  37.0543594  29.8024330  39.2971115
  35.4161835  30.2386074  39.3150635  35.7703285  29.5171871  40.7270164
  34.6781387  28.2331142  42.8948784  33.4356575  28.1821556  42.7280159
  35.2389641  29.2309780  43.6108627  36.2469864  29.2920704  43.6269035
  34.4304123  30.3314705  44.1358528  33.4063454  30.1731911  44.4739952
  35.2452316  30.8659935  45.3044891  35.5217438  30.0276775  45.9439163
  36.2040825  31.2279243  44.9333839  34.5914764  31.9184608  46.1587372
  34.3752632  32.7261963  45.4595146  33.6355247  31.6073971  46.5800552
  35.6475639  32.6177711  47.4148216  36.8041496  33.7093887  46.5270805
  37.4314613  34.2307129  47.2501297  37.5234833  33.1506386  45.9283676
  36.1680298  34.4276657  46.0098457  34.3040123  31.3561325  43.0139656
  35.0858002  31.2870655  42.0284920  33.3968582  32.3231583  43.0665054
  32.8777275  32.2729378  43.9314194  33.2642555  33.5057030  42.1269302
  34.2410431  33.5808182  41.6490784  32.1755066  33.3906326  41.0245705
  31.2133465  33.4668999  41.5310593  32.3204422  34.4364052  39.9311485
  33.3319626  34.6696815  39.5987091  31.7030315  34.0362473  39.1269264
  31.8781567  35.3685837  40.2826195  32.1607094  32.1423874  40.3574524
  32.9129562  32.0775375  39.7645569  33.0444527  34.7561188  42.9650917
  32.1127701  34.7610970  43.7949409  33.8191109  35.8584862  42.7788811
  34.5530357  35.8204422  42.0860596  33.7821732  37.0461159  43.6681023
  32.7406235  37.0801468  43.9876671  34.6784248  36.8010521  44.8893356
  34.4942474  35.7639961  45.1698570  36.1534615  37.1881790  44.5407944
  36.1883392  38.2759514  44.6011887  36.8045998  36.7288513  45.2845230
  36.3916588  36.7579384  43.5680389  34.4136848  37.7116547  46.0558434
  33.3546181  37.5875854  46.2818604  34.9935760  37.4167900  46.9304161
  34.6090393  38.7500458  45.7881126  34.0924187  38.4058151  42.9531898
  35.0123634  38.5378075  42.1808167  33.2613373  39.3913040  43.2503624
  32.4631882  39.2109451  43.8424187  33.3575783  40.7412834  42.7820969
  33.3308868  40.7854805  41.6933212  32.1154404  41.5084190  43.3581581
  31.2670307  40.8787842  43.0900879  32.1948662  41.4958267  44.4451904
  32.0132217  42.9901237  42.8212051  31.0739822  43.3574028  43.2347717
  32.8655357  43.5538483  43.2005157  32.0420189  43.0698357  41.2896347
  33.0234489  42.8377838  40.6612396  30.9792480  43.5641899  40.7324028
  30.1763210  43.8742218  41.2608833  30.9074936  43.7192154  39.7369537
  34.6923065  41.4235497  43.2152061  34.9409142  41.4060669  44.4488373
  35.5496597  42.0368652  42.3103828  35.0899200  42.0634956  41.4114761
  36.9420319  42.5569229  42.6635132  36.8494835  43.0641403  43.6238594
  37.9426804  41.4307060  42.6681099  37.6217804  40.7741165  43.4768219
  38.1502495  40.6440544  41.4172707  38.8302841  39.8150406  41.6131783
  37.1682472  40.2778091  41.1178741  38.6397438  41.2894096  40.6878815
  39.2723160  41.8567085  43.0725060  39.3033257  41.7898750  44.0296745
  37.3608284  43.5482712  41.5636101  36.6994896  43.6832542  40.5113983
  38.4158249  44.2445374  41.8571396  38.8756676  43.8798676  42.6791267
  39.1855545  45.2301903  41.0862122  38.6484604  45.4873199  40.1732407
  39.3988762  46.5093536  41.9309464  39.9507141  47.2832909  41.3974686
  38.4729538  47.0835228  41.9640808  40.1018524  46.3167076  43.3291130
  40.5151291  45.2070045  43.7550888  39.9813347  47.3599510  44.0654221
  40.5389824  44.5590820  40.5684662  41.3562431  45.2229424  39.9046021
  40.8316727  43.3476257  40.9703827  40.0735245  42.7882957  41.3343391
  42.0494957  42.5885010  40.6562424  42.8366165  43.3423615  40.6408157
  42.2482224  41.5287704  41.8415184  41.3154602  40.9661179  41.8030052
  43.5727463  40.6640549  41.5600052  43.6022835  40.0100517  42.4315033
  43.6189461  40.0585823  40.6548157  44.4916496  41.2445068  41.4775696
  42.4533234  42.2347107  43.2070198  42.4655876  41.5473709  44.0529022
  43.4072380  42.7614365  43.1805611  41.6813469  42.9853325  43.3764763
  42.0370445  42.0394020  39.2360382  41.0532646  41.3796082  38.8945045
  43.0028763  42.2507362  38.3470383  43.9373093  43.3544426  38.4750443
  44.7640839  42.9911995  39.0854492  43.4864807  44.2669220  38.8652153
  44.4372215  43.6061020  37.1250610  45.3521996  44.1984673  37.1295471
  43.6877823  44.2213287  36.6271286  44.4348793  42.1899643  36.4985352
  45.3301620  41.7093086  36.8929176  44.3841896  42.1364975  35.4110260
  43.2181664  41.5629425  37.0246849  42.3607292  41.7853012  36.3894997
  43.3832245  40.0359497  37.0525551  43.8485794  39.5175743  38.0683746
  43.2006187  39.4066238  35.9267883  42.9525528  39.9955063  35.1446228
  42.8543434  38.0396805  35.8522224  42.0432663  37.9022598  36.5673218
  42.2657166  37.8122940  34.4472694  41.3562088  38.4015999  34.3305779
  42.9716721  38.0100174  33.6406555  41.8271904  36.3349113  34.2869873
  42.6227112  35.6236992  34.5093079  40.9746590  36.0781708  34.9157753
  41.2911301  36.1530838  32.8505859  41.9847145  36.4164124  31.8706684
  40.0015221  35.8928375  32.5540352  39.2921104  35.7159157  33.2508469
  39.5798225  35.9259338  31.6368790  44.0967140  37.2180939  36.0674400
  44.0819206  36.1268768  36.5933456  45.2765465  37.7426300  35.6863098
  45.3290176  38.7348442  35.5050507  46.5325851  37.0550461  35.9104195
  46.3309097  35.9942818  35.7613831  47.6009407  37.5218391  34.8608704
  48.4985466  36.9083328  34.7832947  47.1513443  37.6350327  33.8743858
  48.1341667  38.9588890  35.1373940  49.3045845  39.2465973  35.0702362
  47.2235641  39.7986908  35.3022881  47.1110458  37.2500992  37.3749428
  48.1810455  36.7310219  37.6890907  46.5407677  38.1440544  38.1420784
  45.6549530  38.6004143  37.9772491  46.9846458  38.4837341  39.4604034
  48.0359840  38.2300301  39.5961494  46.7350616  39.9767303  39.6246300
  47.0750122  40.5990753  38.7968521  45.6682281  40.1856651  39.7040977
  47.4204216  40.5633202  40.8663750  46.8209877  40.2398491  41.7173424
  48.4097557  40.1259346  41.0005875  47.6039238  42.0551834  40.8667946
  46.7515907  42.8198280  40.5127106  48.6901894  42.6525497  41.3618736
  49.4746323  42.1204109  41.7105560  48.8122063  43.6414108  41.1964340
  46.1232605  37.7078400  40.4981842  46.4514809  37.7774239  41.7001953
  45.1285133  36.9596481  40.1273575  44.9257812  36.8731728  39.1417007
  44.3995781  36.1463699  41.1178093  44.0448494  36.6816521  41.9985695
  43.0592003  35.6630669  40.4771843  43.3562241  35.0254364  39.6445351
  42.3439369  34.7571182  41.4844246  42.7840195  33.7810783  41.2800331
  42.3391647  35.1111450  42.5153198  41.3215752  34.6792679  41.1145287
  42.1650276  36.8609200  39.9405518  42.7823296  37.4863625  39.2956772
  41.3346405  36.4482346  39.3676262  41.6154251  37.5631523  41.2093773
  40.8666115  38.2262955  40.7762337  41.1032600  36.9103584  41.9162331
  42.4070816  38.2002373  41.6037102  45.2803726  35.0202370  41.6492500
  46.0345078  34.2824478  40.9024696  45.2344437  34.7967186  42.9845085
  44.5301514  35.2749786  43.5279617  45.9001999  33.6577148  43.6128769
  46.7403564  33.5077362  42.9348335  46.4959221  34.1255264  44.9447098
  45.8423195  34.9160843  45.3133812  46.5707474  33.2315102  45.5637741
  47.9337921  34.6680717  44.8113556  48.5224724  34.0502930  44.1331940
  47.7920456  35.5609512  44.2024384  48.6206818  35.0262260  46.1660309
  48.0774002  35.8246460  46.6714706  48.7457466  34.0356293  46.6032677
  49.9031296  35.6527977  45.9359627  50.0197792  36.0937004  45.0347977
  51.0756798  35.5303688  46.6396523  51.1258926  35.0126991  47.8498459
  52.0820847  35.0504875  48.1729088  50.3570480  34.6132507  48.3689041
  52.2026138  35.9403229  46.1485481  53.0777550  35.9747658  46.6515770
  52.1034584  36.3909035  45.2500801  44.9798355  32.4148788  43.6998596
  44.1246071  32.3925209  44.6005669  45.1574516  31.4547977  42.8070869
  46.0114212  31.6185417  42.2932549  44.5299034  30.0887280  42.8268433
  43.5333290  30.3087139  43.2096596  44.5846825  29.6258678  41.3944283
  45.6201401  29.5467987  41.0632591  44.1725349  28.6289177  41.2384682
  43.8814735  30.6555271  40.5416794  42.4660606  30.7828255  40.4316902
  42.3135185  31.7562981  39.4890671  41.3569298  32.1945343  39.2455788
  43.5015373  32.0638657  38.9397278  43.6661339  32.8264084  38.2982140
  44.4940071  31.3791561  39.5558128  45.5040131  31.4843884  39.1881065
  45.2961807  29.2170258  43.7802811  46.4775009  29.1222153  43.5248604
  44.6973076  28.5526810  44.7627907  43.6924438  28.6538754  44.7734451
  45.5072098  28.0914726  45.9550552  46.5774078  28.2653637  45.8430748
  44.9456978  28.7295914  47.2018661  43.8585663  28.6633224  47.1587524
  45.6291809  28.0808582  48.3964348  45.3800087  27.0198021  48.3836098
  46.7131615  28.1767616  48.3340492  45.3178444  28.6084614  49.2979927
  45.2590141  30.2618618  47.2647820  45.0689011  30.7087402  48.2406158
  46.2633095  30.4621544  46.8914490  44.5563927  30.8058701  46.6335297
  45.4383469  26.4781570  45.9551888  44.3637848  25.9413128  45.9342194
  46.5638847  25.8064137  46.1249962  47.4296265  26.3099766  46.2554321
  46.6485291  24.3934307  45.9864311  45.6805229  23.9155979  46.1372299
  47.1959648  24.0450611  44.6458549  47.9738998  24.7652969  44.3925133
  47.4342461  22.9844189  44.5660667  46.1920395  24.2834511  43.5643692
  46.2844124  25.4471073  42.7700386  47.0872574  26.1567516  42.9051056
  45.3748398  25.6351318  41.7343750  45.4321098  26.5610504  41.1813850
  44.5134544  24.5980339  41.2852478  43.7208595  24.7267494  40.2152557
  43.5369759  23.8847599  39.7923622  44.6307373  23.3189335  41.9158592
  44.0932922  22.4964142  41.4675102  45.4694862  23.2560196  43.0656433
  45.6732864  22.2949963  43.5143166  47.5900421  23.8016872  47.1208954
  48.5546646  24.4490051  47.4667282  47.1404419  22.7326298  47.7707787
  46.2582626  22.2742004  47.5927505  47.5811615  22.2155075  49.0948257
  48.6379204  22.3114071  49.3441582  46.7480316  22.8119907  50.3151550
  45.7126732  22.4863720  50.2146492  47.1353874  22.4828739  51.2793846
  46.5807953  24.3801441  50.4366531  46.2666740  24.7317848  49.4539146
  45.3806496  24.6830387  51.4540367  44.4621620  24.1571350  51.1934395
  45.5375862  24.3048763  52.4642181  45.2617111  25.7654819  51.5016594
  47.8528099  25.0832958  50.9142494  48.2546844  24.5864449  51.7972755
  48.6263733  24.9651833  50.1554680  47.6700859  26.1506805  51.0383492
  47.4563179  20.6794758  49.2688293  46.7152061  20.0512199  48.5280075
  48.1260948  20.0667782  50.1902390  48.8578529  20.6129150  50.6219444
  48.2128448  18.5324764  50.3552933  48.8851814  18.3768387  51.1990013
  46.8208656  17.8952961  50.7696800  46.0820847  18.1484604  50.0092773
  46.8439102  16.8069229  50.8245468  46.2398338  18.3563843  52.0645294
  46.0258980  19.4121227  51.8979492  45.3042641  17.8128529  52.1963692
  47.0444832  18.2262402  53.2561150  47.0451851  19.1606293  54.1153069
  47.6178932  17.1610336  53.4733543  48.8616333  17.9112549  49.0936356
  49.6787796  18.5777607  48.4639702  48.5333824  16.6647110  48.7965660
  47.8542747  16.2256622  49.4016724  49.0319862  15.9290838  47.5981903
  50.1202774  15.8881531  47.6435318  48.6453209  14.3971663  47.7023964
  47.6285172  14.2625160  48.0712891  48.6791344  13.9917364  46.6911697
  49.6915588  13.7073116  48.5508347  50.5885353  13.7359867  47.9321976
  49.8001213  14.1325140  49.5485954  49.2776260  12.1733627  48.7069740
  48.2443733  12.1552601  49.0536156  49.5430031  11.7526417  47.7370911
  50.1079750  11.3799963  49.6879311  50.9602203  11.0514469  49.0930901
  50.3959160  12.0478477  50.4998207  49.3450241  10.1965714  50.1790924
  48.4288788  10.5290337  50.4441338  49.0937004   9.5311127  49.4620781
  49.7637711   9.8196440  51.0173492  48.6204338  16.6595364  46.2713661
  49.2986069  16.3818245  45.2207413  47.6311302  17.5203133  46.2820053
  47.1708717  17.7336540  47.1553612  46.9903870  18.1485958  45.1595917
  46.8792076  17.3843765  44.3903656  45.6584473  18.7292576  45.4605942
  44.8078194  18.2726440  44.9545860  45.4827080  18.4102440  46.4879417
  45.6233940  19.7947330  45.2333603  47.7638893  19.3264637  44.5745964
  47.4277534  19.7878342  43.4670296  48.8661118  19.7180290  45.2219162
  49.0748253  19.4263458  46.1660881  49.8658943  20.5500221  44.5929832
  49.4851723  21.5480480  44.3759613  51.0431900  20.8271751  45.6253624
  51.3910065  19.9385891  46.1521835  52.3231049  21.4662342  44.9313812
  52.7365685  20.8080063  44.1672554  51.9706573  22.4029541  44.4996033
  53.0420609  21.7268867  45.7080841  50.4472885  21.8205948  46.6715164
  50.0738945  22.7457066  46.2323761  49.6647949  21.2870560  47.2110901
  51.2246017  22.1436100  47.3640137  50.3467331  19.9479847  43.2785339
  50.6434746  20.6427670  42.3260956  50.3306351  18.6321640  43.0474625
  49.9319954  18.1486416  43.8395462  50.6498108  17.9926510  41.7773781
  51.5391808  18.5556221  41.4941902  50.9980049  16.5287151  42.0054207
  51.5953064  16.5338345  42.9171829  49.7569542  15.6438370  42.0567665
  49.8779526  14.6105328  42.3819504  49.0683060  16.1043034  42.7651711
  49.4015999  15.5585470  41.0298538  52.0190392  16.0606270  40.9093895
  52.6055374  15.2254381  41.2922325  51.5454826  15.9061327  39.9398651
  52.7488022  16.8665752  40.8320045  49.6712646  18.2709141  40.7114944
  49.9408798  18.0906067  39.5321960  48.5872841  18.9430828  40.9840012
  48.2671242  19.1890850  41.9097900  47.6500740  19.4616814  39.9079514
  47.6323357  18.6803875  39.1481056  46.1559906  19.6802959  40.4419670
  46.1157074  20.4359379  41.2265015  45.6137924  20.0144329  39.5573883
  45.5106468  18.4162121  40.9872665  46.2435570  17.9953594  41.6756134
  44.2495232  18.9313850  41.6662941  43.7160072  18.1520462  42.2104416
  44.5031471  19.7115650  42.3839951  43.6681519  19.5487576  40.9814911
  45.0610886  17.3680973  40.0122032  44.5111465  17.7593136  39.1562767
  45.9943314  16.9289379  39.6596489  44.4413719  16.6719933  40.5774384
  48.0949326  20.7481403  39.1979446  47.7657852  21.0200024  38.0167198
  48.9746170  21.5229588  39.9105873  49.3650093  21.1022301  40.7416611
  49.5629005  22.8204079  39.3994484  49.8333626  22.7219334  38.3481331
  48.6704865  23.9788017  39.5713501  48.4131927  24.0737381  40.6262856
  49.1799812  24.8942852  39.2706795  47.3391914  24.1192150  38.8130875
  46.6773071  23.2896824  39.0618591  46.9955940  25.0879784  39.1757774
  47.3907967  24.2791882  37.2924500  47.6248474  23.3344307  36.8017807
  46.3866882  24.5143433  36.9394951  48.4116440  25.2464924  36.7690315
  49.3469086  24.8729877  36.6923752  48.1916008  26.3776131  36.1860008
  47.0600548  26.9832439  36.2087593  46.9664955  27.7078705  35.5114288
  46.3938293  26.7532310  36.9321747  49.0205460  26.8081608  35.3214340
  48.5988312  27.3746815  34.5994148  49.8591461  26.2677155  35.1640587
  51.0320778  23.0460472  39.9147797  51.3287926  24.1135349  40.4432068
  51.9885101  22.1084900  39.7757378  51.8631783  20.8836098  39.0029907
  51.5916176  21.0589848  37.9620285  51.2279510  20.1523151  39.5027885
  53.2362938  20.3060074  38.9738693  53.5921478  20.7151737  38.0283241
  53.2017403  19.2174892  39.0189667  54.0160484  20.9607964  40.1031075
  55.0948715  20.9469604  39.9480133  53.8100090  20.2776947  40.9271355
  53.3758163  22.3079262  40.3579063  53.3739128  22.6161690  41.4034157
  54.2064438  23.4517498  39.7122612  55.2790718  23.9120789  40.1442986
  53.6318436  23.9955540  38.6489525  52.7771530  23.5927372  38.2920952
  54.0496101  25.2042751  37.8710976  55.1304398  25.2885284  37.7578926
  53.4708557  25.1322002  36.3904381  53.7939987  26.0703735  35.9393120
  53.9777145  24.2794991  35.9386673  51.9610519  24.9291973  36.3304405
  51.3823586  25.5538483  35.4291458  51.3270493  24.2086563  37.1685562
  53.5021591  26.4923840  38.4536285  54.0047379  27.6100311  38.1215935
  52.4834366  26.3774776  39.3097000  52.3320198  25.4318695  39.6306343
  51.6413460  27.4342480  39.9256554  51.9584579  28.3879662  39.5037956
  50.1615105  27.4119244  39.5671844  50.0605888  27.0225849  38.5541039
  49.7096901  26.7098961  40.2679863  49.4375687  28.8122234  39.7224808
  49.4975090  29.1486244  40.7575378  50.0920563  29.9395199  38.9235840
  50.5012398  29.5308971  37.9996262  49.3611145  30.6927357  38.6294975
  50.9345398  30.4158134  39.4250488  48.0205498  28.7495289  39.2498093
  47.4204330  27.9611893  39.7042084  47.5566444  29.6512280  39.6496086
  48.0733719  28.7725487  38.1613312  51.8385696  27.5843525  41.4952126
  51.9374847  28.7114277  42.0379562  51.8504562  26.4700508  42.1967125
  51.7513847  25.6193886  41.6613045  52.0351601  26.4199371  43.6923866
  51.1612206  26.9027271  44.1297035  51.9772415  25.0185089  44.2663536
  51.0775337  24.4744091  43.9789848  52.8634834  24.4679680  43.9507904
  51.9344940  25.0989170  45.7138023  52.8048210  24.7877121  45.9731827
  53.2976723  27.1695251  44.1588516  54.4189377  26.7106762  44.0450516
  53.0904617  28.3576012  44.7020569  52.1056557  28.5814629  44.6900635
  54.0620613  29.3558350  45.1244354  53.5091858  30.2946377  45.1573486
  54.5590134  29.0483932  46.5218620  55.3620834  28.3319283  46.3490791
  54.9049721  30.0222092  46.8684158  53.5059166  28.6203899  47.5205727
  53.1307716  27.6113892  47.3494453  54.3220062  28.3900661  48.8725433
  54.8318214  27.4267120  48.8610382  54.7621155  29.3344078  49.1928825
  53.6078911  28.1767826  49.6679344  52.3286934  29.5859833  47.7231827
  52.8107452  30.5381145  47.9449081  51.7645836  29.6794910  46.7952080
  51.6935959  29.1801224  48.5106010  55.1349945  29.6797009  44.0328178
  56.3418045  29.8371887  44.3484802  54.7092857  29.8926220  42.6983566
  53.7357407  29.8359756  42.4354897  55.5263863  30.5220547  41.6324387
  56.2521362  29.7554550  41.3609390  54.8198586  30.8711262  40.3463287
  54.4537735  29.9095211  39.9865990  53.6577873  31.8547630  40.4828949
  53.2003784  32.0817299  39.5198975  52.8979263  31.3347893  41.0662804
  53.9171333  32.7583237  41.0346336  55.6788445  31.3364029  39.3390541
  55.4888039  30.7703362  38.5873528  56.3849449  31.7275963  42.0072136
  55.9114990  32.7880249  42.4970589  57.6576996  31.6496582  41.6329575
  58.0478477  30.8559647  41.1451721  58.6729736  32.8119774  41.7695160
  58.6301155  33.0788765  42.8254662  60.1721077  32.3981972  41.3644180
  60.0517883  31.7386322  40.5049973  60.7867928  33.2499733  41.0733223
  60.7561035  31.6512623  42.6064148  60.8895111  32.4165535  43.3710289
  59.9656754  30.9827042  42.9475365  62.0021439  30.8147392  42.3286362
  61.8763313  30.1624641  41.4644547  62.7476387  31.5518055  42.0301781
  62.5924301  30.1288071  43.4923363  63.5152664  29.6157131  43.2217598
  62.7472343  30.8398285  44.3038712  61.7007141  29.0936127  44.0209961
  62.2408867  28.4995060  44.6336555  60.9832344  29.4866238  44.6133423
  61.4662209  28.4454098  43.2827911  58.3054848  34.1090355  40.9888954
  59.0151100  35.1265297  41.0206566  57.2082748  34.0029221  40.2815514
  56.6980743  33.1425858  40.1414871  56.7224655  35.1202393  39.4750671
  57.4676285  35.6119919  38.8497543  55.5821838  34.4422874  38.6655960
  56.0089798  33.5801086  38.1531563  54.8568192  34.0160942  39.3586349
  54.9866982  35.4423256  37.6515541  55.7132530  35.8862000  36.7554092
  53.7526741  35.8740883  37.7864113  53.2462120  35.8793488  38.6602364
  53.3199921  36.3513870  37.0085449  56.1940308  36.2685432  40.4001350
  55.2955055  36.2861176  41.2012329  56.9174538  37.3927231  40.4614754
  57.7983856  37.4515266  39.9709702  56.5776825  38.5810242  41.2715034
  56.5369911  38.2750740  42.3168945  57.7357941  39.5584068  41.2161560
  57.6253700  40.4668198  41.8083534  59.0174637  38.8794174  41.8078499
  59.3809090  38.0457458  41.2070122  59.7561111  39.6792068  41.8610764
  58.8566971  38.5346146  42.8293076  58.0642242  39.8823318  39.9367409
  57.3500900  40.4472580  39.6326561  55.3312187  39.4092484  40.9840126
  54.8518372  40.1826935  41.8052902  54.6886978  39.2047386  39.8373413
  54.9822273  38.4726143  39.2065163  53.4534149  39.9341774  39.4693565
  53.3503380  40.8984528  39.9669991  53.4005737  40.2802238  37.9566269
  53.1268959  39.3934593  37.3849182  52.5676918  40.9718857  37.8300972
  54.7786674  40.8356361  37.5259781  55.5735512  40.0969200  37.4232025
  54.6348038  41.2530975  36.5294151  55.3005447  41.9772072  38.4118996
  54.6343918  43.0568810  38.5385017  56.3059654  41.7713928  39.1257706
  52.2320862  39.1706581  39.9997368  51.2815247  38.9340591  39.1777420
  52.3711853  38.6127663  41.2062111  53.1590576  38.8027916  41.8089142
  51.3186722  37.7178879  41.7973442  50.2946243  38.0229912  41.5820732
  51.5081215  36.3212776  41.2549667  51.4600410  36.4057732  40.1693077
  52.5413322  36.0123558  41.4135284  50.5135994  35.2045975  41.7519875
  50.5049858  35.0419884  42.8297577  49.0390472  35.6305962  41.4263878
  48.9259834  35.7957344  40.3549194  48.3443222  34.7980804  41.5376320
  48.6813774  36.5472527  41.8953323  50.7839432  33.7823486  41.1381645
  49.9205132  33.1198349  41.1986732  51.0206604  34.0272903  40.1027565
  51.7006111  33.3774757  41.5669975  51.3687057  37.7554092  43.3437614
  50.3422470  37.5445099  44.0084915  52.4992485  38.0052109  43.8535271
  24.9314137  47.6100883  40.4044113  24.2444153  47.4254150  41.1213684
  25.8716164  47.5921898  40.7729225  24.7764206  48.4951439  39.9431610
  24.9064217  46.4273415  39.5452194  23.9199791  45.9639244  39.5618210
  25.1338272  46.7019958  37.9909706  24.7915726  47.6740570  37.6359291
  26.1929588  46.8814659  37.8062019  24.5904293  45.6742706  37.0133438
  24.1887398  44.7923660  37.5123367  23.7676277  46.1838799  36.5119514
  25.6571388  45.1276855  35.6147003  27.0123672  44.2839622  36.3109970
  27.7294178  44.9961777  36.7192764  26.5859966  43.6464577  37.0855255
  27.4926319  43.7700081  35.4783478  25.8189087  45.3249283  40.0629768
  26.7937641  44.9102974  39.3967552  25.3605480  44.6884956  41.1767731
  24.5329456  45.0135918  41.6558189  25.9020271  43.4454956  41.5998077
  26.9664440  43.5269470  41.3795929  25.7407341  43.4836617  43.1776581
  26.2916660  44.3281975  43.5915794  24.6719131  43.6200180  43.3423653
  26.1674824  42.2254753  44.0707092  25.9055958  42.4614105  45.1021423
  25.5094757  41.4102516  43.7698212  27.9387970  41.8718147  43.8138771
  28.1570702  40.6404953  45.1143532  29.1856384  40.2840652  45.1702003
  27.8726635  41.1184044  46.0518074  27.5216827  39.7555161  45.0798073
  25.2817726  42.1580734  40.9466934  24.1717110  42.2450218  40.3786888
  25.9748592  41.0322762  41.0311546  26.8149166  41.0579185  41.5912819
  25.5875969  39.6547623  40.5979881  24.6414776  39.6912651  40.0579605
  26.6632404  39.0569267  39.6387825  27.5827007  38.8549080  40.1882286
  26.0714931  37.6749840  39.1854858  26.8028221  37.2371826  38.5060806
  25.8477707  36.9826431  39.9970970  25.1350937  37.8321304  38.6501808
  26.9053955  39.8059769  38.3370819  27.6341114  39.2506294  37.7466049
  25.9671650  39.8039284  37.7822685  27.4602280  41.2782288  38.3465424
  27.8511276  41.5281601  37.3602180  26.6727028  41.9710579  38.6430054
  28.2726631  41.4035072  39.0623360  25.4560795  38.8315926  41.8730812
  26.2848415  38.9298782  42.7631607  24.3217316  38.1819305  42.0146179
  23.7446117  38.3211021  41.1975136  23.8907833  37.3104134  43.1147919
  24.7573566  37.0524826  43.7235794  22.6839638  37.9792900  43.7816200
  21.9130192  38.2989235  43.0804901  22.2290516  37.3688316  44.5616837
  23.0745983  39.3110237  44.4641876  23.5203476  39.9841919  43.7319031
  22.1956234  39.8810387  44.7651634  23.9251709  39.0153313  45.6629677
  23.4396477  38.2705040  46.2935257  24.8754063  38.6063080  45.3196716
  24.1536598  40.2810364  46.4244652  23.5054684  41.0438995  46.2903519
  25.1445808  40.5831871  47.2294235  26.0295811  39.6646767  47.5685196
  26.8107738  39.9926567  48.1183090  26.0003033  38.7807350  47.0807838
  25.3156910  41.7807121  47.7052803  24.7947292  42.6031418  47.4363670
  25.7091675  41.9158669  48.6256104  23.4662228  35.9399948  42.7248230
  22.7442131  35.6946754  41.7580986  23.9061050  34.8881989  43.5061188
  24.4435349  35.1187019  44.3296089  23.4055595  33.5279274  43.3762093
  23.3276978  33.2034340  42.3385468  24.0881653  32.8412743  43.8768730
  22.0499382  33.3899651  43.9712753  21.8865414  33.8983803  45.0920143
  21.1072521  32.6001968  43.4245377  21.2895393  32.2256660  42.5044327
  19.8163967  32.2638206  44.0654030  19.7862225  32.3928299  45.1473236
  18.6180363  33.1176834  43.4602318  18.3979683  32.8359756  42.4305191
  17.3947868  32.9234505  44.3838043  16.5398502  33.0141106  43.7137566
  17.3560371  31.9896946  44.9447861  17.3308220  33.7137527  45.1317558
  19.0382786  34.6031380  43.2791481  19.3797150  34.9431648  44.2568550
  19.8509941  34.7074280  42.5603142  17.7769680  35.5272331  43.1235237
  17.0559559  35.1503906  42.3981018  17.2813740  35.5438576  44.0941963
  18.1355972  36.5480385  42.9914360  19.5776768  30.7336845  43.9417381
  19.8560448  30.1853504  42.8667030  19.1222229  30.0030327  44.9328499
  18.8806324  30.5068722  45.7742043  19.1115303  28.5096989  45.0391655
  19.4061794  28.1182537  44.0654831  20.1022339  28.0213566  46.1038818
  19.9056587  28.4312382  47.0945663  20.0172634  26.9357319  46.1518669
  21.5522327  28.3189545  45.7498093  21.8108006  28.2407627  44.6938133
  21.7851353  29.3570080  45.9870911  22.5654964  27.5356960  46.5216064
  23.5610123  27.9457302  46.3515396  22.2682781  27.8760681  47.5135307
  22.4248352  26.0797062  46.3013649  22.4407787  25.7916241  45.3334503
  22.1472931  25.1040726  47.1549072  22.4060669  25.2868843  48.4380264
  22.9744301  26.0874748  48.6749268  22.2385998  24.6336136  49.1898880
  21.7203026  23.9345932  46.7643394  21.3657742  23.7725868  45.8325844
  21.6772289  23.2382069  47.4946060  17.7347031  27.8753395  45.3101540
  16.9391747  28.3699379  46.0443192  17.5955048  26.6217308  44.8880386
  18.3770409  26.2501564  44.3672256  16.6919365  25.6353149  45.5408020
  16.6879616  25.8095856  46.6167717  15.7192049  25.6765862  45.0507050
  16.9835205  24.1528721  45.2563667  17.7661419  23.8044243  44.3800430
  16.2019253  23.3111649  45.8941345  15.5886688  23.6786804  46.6075439
  16.2222576  21.9288940  45.6305504  16.5827465  21.7362251  44.6200867
  17.2573166  21.2592926  46.6326332  18.2083492  21.7881165  46.6957474
  16.8658352  21.1417122  47.6430893  17.5239639  20.2231674  46.4242058
  14.8569136  21.2865925  45.8570290  14.0362186  21.8161488  46.6393280
  14.5684271  20.1497002  45.2078056  15.2656059  19.7912960  44.5709457
  13.3072319  19.4394779  45.1032372  12.6379309  19.5467415  45.9568367
  12.4422312  19.9976540  43.9754028  12.2164783  21.0524559  44.1320076
  13.0307045  19.7944469  42.5921097  13.1396971  18.7629700  42.2570343
  12.3611975  20.2822723  41.8836708  14.0232315  20.2161560  42.7507057
  11.2120867  19.4162292  44.0385170  10.5665836  19.8891869  43.5082016
  13.4803715  17.9499626  44.9588585  14.3905382  17.5971680  44.2755241
  12.5220032  17.1532402  45.4443512  11.6253633  17.5572281  45.6744194
  12.4755936  15.6128702  45.3542328  13.4022903  15.4106855  44.8171501
  12.5087481  14.9130659  46.6952667  12.6264000  13.8411636  46.5362587
  13.5342388  15.4114227  47.6721115  13.6348534  14.6811247  48.4750023
  14.4476156  15.5140514  47.0861816  13.1849499  16.3272419  48.1489487
  11.3201962  15.0437994  47.3268471  10.7470617  14.4305153  46.8610153
  11.3640184  15.0955334  44.4721489  10.3341789  15.6981592  44.1999283
  11.5201302  13.8710718  43.9571190  12.4896917  13.5926580  43.9067574
  10.5797462  13.2190189  43.0348625   9.5724306  13.6354189  43.0297775
  11.0797081  13.2202959  41.5504990  10.3343763  12.6850891  40.9621658
  11.1041546  14.6389275  41.0997009  11.0859051  14.5340099  40.0149155
  10.3129320  15.2359076  41.5532150  12.0207720  15.1387119  41.4129524
  12.4514608  12.6096563  41.2274399  12.4879637  11.5684052  41.5476952
  12.6278763  12.6282921  40.1519699  13.2091303  13.2395906  41.6935081
  10.3929443  11.7620001  43.4758987  11.2567635  11.1898804  44.1080475
   9.1700611  11.2414894  43.3971329   8.4530802  11.8424129  43.0164375
   8.8236408   9.9127007  43.7638206   9.2775774   9.6153936  44.7091560
   7.2904868   9.9333344  44.0362816   6.8710141  10.1582355  43.0556870
   6.9458861   8.9831543  44.4443474   6.8024364  10.8391552  45.1585732
   7.1599555  11.8603077  45.0261650   5.7142696  10.8402805  45.0953941
   7.3585000  10.2514343  46.4970512   8.4383917  10.6983089  46.8772430
   6.7416511   9.2240219  46.9388466   9.1974258   8.8303442  42.7753448
   9.1172447   7.6269617  43.0276146   9.5305471   9.1992331  41.5311394
   9.7003641  10.1846170  41.3887138   9.7686739   8.2640200  40.4584236
  10.0548859   7.2567167  40.7609596   8.5629683   8.1106596  39.5434570
   8.2013235   9.1103954  39.3029556   8.9118748   7.7001686  38.5958977
   7.4670787   7.1549382  40.1038513   7.9124756   6.1665921  40.2174034
   7.2620502   7.5489550  41.0992470   6.0431886   7.0901046  39.3566551
   6.1524677   6.9394736  38.2826576   5.4498549   6.2220178  39.6438484
   5.2637730   8.3865662  39.4129829   5.0342026   8.7014160  40.3447914
   4.7410784   9.0930300  38.4223175   4.9590259   8.8628378  37.1069565
   5.4688449   8.0477381  36.7974358   4.5409374   9.5501165  36.4962616
   4.0085082  10.1106062  38.6561661   4.0235868  10.4184351  39.6180000
   3.8598425  10.8987417  38.0422935  10.9880238   8.8065033  39.6247482
  11.0124989   9.9730778  39.3538628  11.7607031   7.9842486  38.9165878
  11.3835201   7.0529046  38.8144569  12.7146196   8.4354200  37.8690224
  13.0217390   9.4728403  38.0014534  14.0216341   7.5756903  37.8778000
  14.3780155   7.4779434  38.9032478  13.8640461   6.5573673  37.5224380
  15.0989714   8.1441870  36.9476624  15.5155659   9.2953701  37.0551262
  15.5789976   7.4335775  36.0847168  11.9251957   8.4293756  36.5688553
  11.8692932   7.4268804  35.7855225  11.3940182   9.6110249  36.2176514
  11.3728876  10.4201488  36.8217812  10.8025465   9.9032135  34.9290085
  11.3488865   9.4247532  34.1161766   9.3966980   9.2670412  34.8004036
   9.5955935   8.1955633  34.7784233   8.4699831   9.5165367  36.0138588
   7.9936395   8.5716248  36.2752571   9.0042362   9.9592743  36.8544884
   7.7282629  10.1888733  35.5826797   8.7303019   9.7099743  33.6285553
   9.1898232   9.1993618  32.9579468  10.7770910  11.3964071  34.6852493
  10.5498819  12.2549429  35.5451317  10.8515911  11.7541380  33.4557991
  10.9653721  11.0120974  32.7801285  10.6710634  13.0564766  32.8914871
  11.3557796  13.7353687  33.3997841  11.0460539  12.9839487  31.3640862
  11.2651062  14.0198317  31.1051178  11.9822912  12.4416037  31.2320976
  10.0482969  12.3297300  30.3768349   9.0337744  12.6587200  30.6018009
  10.3193197  12.5290747  29.3400574  10.0321589  10.7781916  30.3937244
  10.6716194  10.1783781  31.2518101   9.4110308  10.1929140  29.4490070
   9.2842331  13.5910759  33.0893517   9.0633707  14.8239422  33.0351334
   8.3183584  12.6928034  33.2843437   8.5127392  11.7201138  33.0941048
   6.9518108  13.0918036  33.6575317   6.6840849  13.9089708  32.9877052
   5.9728465  11.9191332  33.4715004   6.1467900  11.2307739  34.2985458
   4.9630270  12.3136301  33.5843544   6.0274725  11.1687632  32.0895424
   6.1591692  11.9196501  31.3104897   6.7903137  10.3902140  32.0953941
   4.7637019  10.3756828  31.7106380   4.0407758   9.8493481  32.5558510
   4.5989590  10.0975714  30.4926662   6.8282385  13.6784372  35.1030502
   5.8669343  14.4401665  35.3075333   7.8454518  13.4707680  35.9611931
   8.6489468  12.9181347  35.6983376   7.9066916  14.0848179  37.2339134
   6.9814410  14.6460314  37.3645248   8.0312529  12.9943619  38.3489876
   8.8591366  12.2992134  38.2094231   8.3083534  13.4571371  39.2961693
   6.8145390  12.0518808  38.4430046   6.6171489  11.4962111  37.5262909
   7.0642862  11.2595329  39.1486359   5.4582438  12.7674160  38.7243004
   4.5123854  12.6722708  37.9433708   5.2816176  13.3718138  39.8072243
   9.0788574  15.0514107  37.3793411   8.9534636  16.1646881  37.8958588
  10.2433748  14.6913900  36.8675308  10.2823267  13.7450619  36.5167503
  11.4607744  15.5109978  36.9982224  11.6594734  15.6922159  38.0545273
  12.7150679  14.8330517  36.5098152  12.5308990  14.3884382  35.5318069
  13.9198656  15.7619820  36.3281479  13.7498322  16.5905590  35.6406517
  14.2454138  16.2293739  37.2574844  14.7776842  15.2206125  35.9291916
  13.0523167  13.6631298  37.4725075  13.5761862  14.1334114  38.3046722
  12.2122784  13.1523800  37.9432182  14.0821486  12.6867571  36.9428673
  13.7648649  12.4191399  35.9349899  15.0591259  13.1625223  36.8576508
  14.1475754  11.8172655  37.5969353  11.3409414  16.9113998  36.3369904
  11.7033806  17.9476395  36.9713974  10.8528194  16.9556026  35.0467110
  10.5036097  16.0791416  34.6861992  10.6185474  18.2797489  34.3442154
  11.4788895  18.9057503  34.5809326  10.5082254  18.0995960  32.8739319
   9.4939060  17.7436905  32.6934090  10.4638643  19.1211243  32.4962883
  11.6482410  17.2269268  32.1586075  11.5243483  16.1925030  32.4791031
  11.3144941  17.3019180  30.6865749  11.2604647  18.3831234  30.5593987
  12.1402464  17.0059071  30.0395737  10.3440790  16.8795376  30.4258080
  13.0675812  17.6664982  32.4340210  13.7016506  17.1426716  31.7187157
  13.1571894  18.7520428  32.3932495  13.3263025  17.2885380  33.4231148
   9.4560385  19.1358776  34.9951286   9.5801201  20.3390083  35.1304474
   8.3654966  18.5406685  35.4552574   8.4866982  17.5478649  35.5958023
   7.2438908  19.2660198  36.0313148   7.0880671  20.1691074  35.4411850
   6.0229664  18.4252186  35.8986816   5.7841806  18.2097359  34.8572159
   6.3196750  17.4716187  36.3353844   4.7906361  18.9321499  36.6617813
   4.9776354  18.9344177  37.7356224   4.5733423  19.8862000  36.1814957
   3.7146564  17.8214798  36.7289009   3.9987307  16.6703739  36.7847176
   2.4351661  18.1761990  36.7238312   2.0789981  19.1202354  36.7689934
   1.8421581  17.4029655  36.9894485   7.4728189  19.7350445  37.5043144
   7.2159772  20.9103928  37.7892914   8.1968203  18.9538651  38.3281021
   8.3617783  17.9962425  38.0526962   8.7581787  19.3613281  39.6646461
   8.0151205  19.9698524  40.1800804   9.1880789  18.1442127  40.5187836
   9.7803030  17.4743023  39.8954124   9.8218622  18.4608994  41.3471146
   8.0677023  17.3774757  41.1890564   7.3352070  16.9793453  40.4868851
   8.5409842  16.5245152  41.6754341   7.2851467  18.2204456  42.2557411
   7.8640881  18.4274101  43.1557961   7.0650892  19.1766281  41.7809792
   5.9691148  17.5554924  42.5781403   5.4933128  17.5554962  41.5974693
   6.1119246  16.5048618  42.8308792   5.1140499  18.3629398  43.4332733
   4.1831918  17.9711609  43.4438667   5.4767809  18.3648663  44.3758888
   5.1277032  19.3313160  43.1466331   9.9051409  20.3777905  39.4673958
  10.1079845  21.2749882  40.2737160  10.6063776  20.3705349  38.3099289
  10.3832445  19.5895252  37.7096481  11.6812420  21.3830051  38.1010704
  12.2428226  21.5999908  39.0097198  12.6949320  20.9424877  37.0230370
  12.0958357  20.6886024  36.1485519  13.7426281  21.9651794  36.5784836
  14.5632524  21.5180454  36.0174561  13.2163734  22.6291409  35.8926888
  14.1881437  22.4314766  37.4572182  13.4343929  19.9078999  37.5171814
  12.8999872  19.1131058  37.4515305  11.0431461  22.7545948  37.7182693
  11.5813694  23.7663269  38.1158066   9.8656044  22.7588425  37.0477562
   9.4238768  21.9062653  36.7345657   9.1132431  24.0020580  36.7118530
   9.7723064  24.8023891  36.3753891   8.0873108  23.7253685  35.5843658
   8.6001434  23.1452522  34.8171844   7.3466859  23.0582142  36.0253677
   7.1881065  24.8479443  34.8962135   6.8386674  25.4074345  35.7639465
   7.7621603  25.5460396  34.2869301   6.1219859  24.2266636  33.9685059
   6.6231780  23.7402134  33.1316833   5.4610457  23.5347500  34.4905357
   5.3736420  25.3493652  33.3144913   6.0785942  25.9839153  32.7773819
   4.6488433  24.8147945  32.7004814   4.6638875  26.1484222  34.3134842
   4.1112351  25.5038414  34.8604660   5.2099333  26.7143841  34.9472237
   3.9225028  26.6383858  33.8334999   8.4150572  24.5806465  38.0212364
   8.5924377  25.7683964  38.3714447   7.7538161  23.6614037  38.8130493
   7.7265224  22.6805515  38.5737038   7.0764709  24.0458031  40.0361176
   6.3262477  24.8248806  39.9008255   6.3769999  22.8868198  40.7631493
   6.9645891  21.9782219  40.8946419   6.2030969  23.1665936  41.8021812
   4.9791284  22.5213680  40.1484032   4.2115083  23.2031250  40.5145569
   4.9997978  22.5849800  39.0604591   4.4460950  21.1447830  40.5639343
   5.0582123  20.4318886  41.3789215   3.3407173  20.8211727  39.9757576
   2.8375726  21.4951916  39.4166107   2.8541698  19.9669647  40.2074890
   8.1693401  24.6593838  40.9705849   7.9388776  25.7467804  41.4992065
   9.4117880  24.0897522  41.0693054   9.6143112  23.2373028  40.5668945
  10.4985886  24.8249550  41.7888336  10.1789312  25.1122646  42.7905235
  11.6761570  23.8602791  41.9564781  11.2045698  23.0576897  42.5235367
  11.9030018  23.5276566  40.9435577  12.9449158  24.3665028  42.6288185
  13.3059187  25.2026844  42.0300026  12.7346706  24.7245369  44.1242065
  12.6649132  23.9087257  44.8437119  13.6422224  25.2241001  44.4631538
  11.9286680  25.4579010  44.1494675  14.0415497  23.3238697  42.6510315
  13.6654711  22.5105515  43.2716560  14.3390446  22.9038715  41.6901970
  14.9579754  23.6399670  43.1493759  10.9386368  26.1601238  41.1530991
  11.0596209  27.1649494  41.8839645  11.1039457  26.1764069  39.8090172
  10.5500231  25.5387859  39.2552032  11.6714764  27.3704319  39.1501503
  12.5095119  27.6014519  39.8077431  12.1430759  27.0771770  37.7586823
  12.7950001  26.2107754  37.8702354  11.2626190  26.8178825  37.1707535
  12.7159424  28.2991562  36.9728241  11.9335241  29.0256462  36.7534294
  13.8419476  28.9276199  37.7765884  14.6176109  28.2291050  38.0904579
  14.2925539  29.7295837  37.1918564  13.4265985  29.4376717  38.6457481
  13.3067102  27.8058949  35.7372894  14.1097298  27.1322784  36.0364685
  12.6029272  27.3545609  35.0379410  13.8023901  28.6635532  35.2825089
  10.6606627  28.5512066  39.2408371  10.9707737  29.6822777  39.6910248
   9.3612242  28.2982121  39.1138878   9.0331602  27.3447437  39.0558052
   8.3015556  29.2294121  39.3076324   8.5589628  30.0585117  38.6485138
   6.9467235  28.6754684  38.8808441   6.7491837  27.7630577  39.4435005
   6.2047315  29.4569168  39.0448189   6.7992768  28.5146370  37.3582268
   6.9548969  29.4776955  36.8720169   7.5370970  27.7542362  37.1022720
   5.4318738  27.9847946  36.9704208   4.8846989  26.9433270  37.4384155
   4.8517885  28.5905285  36.0821075   8.2880831  29.7660351  40.7504539
   8.1709919  30.9208546  40.9204178   8.2995405  28.9393826  41.8003616
   8.3612366  27.9604359  41.5596275   8.4637718  29.3252296  43.1086655
   7.6076627  29.9442921  43.3768768   8.4992371  28.0340538  44.0034180
   8.1794300  27.2135983  43.3610153   9.5262766  27.8607559  44.3247528
   7.5939088  28.0804501  45.2475471   7.8334947  27.3410072  46.0116959
   7.8066106  29.0499077  45.6981125   6.0621614  27.9559345  45.0389214
   5.8593473  26.9243107  44.7513161   5.4684582  28.1196899  45.9382553
   5.3519535  28.7410145  43.9657669   5.6153617  29.7986603  43.9760628
   5.6142931  28.2390842  43.0344543   3.9146233  28.6444035  44.1073074
   3.6636486  28.6537018  45.0855865   3.4701531  29.3796024  43.5762444
   3.5384707  27.7689266  43.7724228   9.6460762  30.2814293  43.4967079
   9.4134045  31.2194920  44.2025757  10.8583326  30.0331421  43.0178413
  10.9761353  29.1503391  42.5415192  12.1114168  30.7914886  43.1293907
  12.3000898  30.9374123  44.1929741  13.3216724  29.9096985  42.6701927
  12.9710846  29.6584320  41.6691666  14.5884724  30.7490063  42.4892540
  14.4771662  31.6547050  41.8930817  14.8917017  31.0411320  43.4946480
  15.4799061  30.2438984  42.1173553  13.5699110  28.7312698  43.5859985
  14.0393181  29.0163898  44.5275192  12.6400547  28.2505875  43.8899956
  14.4459028  27.5806599  43.0073204  14.6866245  26.8484535  43.7780571
  13.8890305  27.1815300  42.1595650  15.4353533  27.9507866  42.7387962
  12.0084047  32.1077232  42.3323669  12.4313335  33.1700668  42.8372078
  11.4105320  32.1217003  41.1393318  11.0826378  31.2153111  40.8376007
  11.0326281  33.3437309  40.3908882  11.9606190  33.9109917  40.3191338
  10.6044436  32.9764709  38.8777924   9.6690054  32.4169579  38.8787956
  10.0762901  34.2592278  38.2215614  10.6879520  35.0663986  38.6246109
  10.1935949  34.3730507  37.1438866   9.0225086  34.4329414  38.4394455
  11.7250748  32.2973785  38.1345520  12.4594250  33.0883255  37.9821091
  12.2369461  31.6141567  38.8122635  11.1610136  31.6470337  36.8004875
  10.6476355  32.4141159  36.2207146  11.9147348  31.0812645  36.2528458
  10.4910688  30.8741875  37.1772957   9.9892092  34.2455482  41.0948753
  10.2488441  35.4361458  41.2609634   8.8119059  33.7229919  41.4664383
   8.6048059  32.7598228  41.2439156   7.7835717  34.3678932  42.2959213
   7.4222193  35.2605209  41.7852936   6.5956326  33.4373245  42.6362686
   6.0925341  33.1913261  41.7011375   7.0549202  32.5143585  42.9902344
   5.5980954  33.8451385  43.7425041   4.8656740  33.0435257  43.8377762
   6.1026330  33.9376297  44.7042656   4.7420039  35.0533600  43.3859596
   4.5060892  35.2768517  42.1445427   4.2040825  35.6169815  44.3120193
   8.3504658  34.9327049  43.5849495   8.0254307  36.0475693  44.0082130
   9.3358040  34.2703667  44.1879005   9.5677366  33.3426933  43.8627396
   9.9454222  34.8795090  45.4073181   9.1910343  35.3553619  46.0338669
  10.6042509  33.6905365  46.2060471   9.9255247  32.8901138  46.5005875
  11.4208202  33.2225838  45.6561928  11.0221186  34.2229729  47.6010208
  11.4829674  33.4240570  48.1819267  11.7687645  35.0119514  47.5108223
   9.8703632  34.8045807  48.4190254  10.0262327  35.7459602  49.1686325
   8.8319330  34.1101112  48.5405235  11.0192642  36.0057564  45.0856438
  10.9168015  37.0789642  45.5700340  11.8443995  35.7699394  44.0690155
  11.8330994  34.8938026  43.5666618  12.9419098  36.7580528  43.7931938
  13.2667828  37.3333626  44.6601257  14.2612028  35.9299202  43.5387764
  14.1482038  35.0728035  42.8749352  15.0342941  36.5995674  43.1619377
  14.7175636  35.4249878  44.8588867  15.2160330  36.1028595  45.7203674
  14.4990349  34.1582718  45.0774803  14.8604250  33.7265434  45.9159966
  13.8537540  33.6865692  44.4600601  12.4777298  37.8537521  42.8247833
  13.2559338  38.7838821  42.5936356  11.3162680  37.7375145  42.2523727
  10.8134298  36.9156342  42.5553055  10.6345263  38.7493591  41.3952179
   9.7197981  38.1974525  41.1789474  10.2060032  40.0709877  42.1285172
  11.1080551  40.5796204  42.4686584   9.6652765  40.7703018  41.4908066
   9.3905840  39.8618851  43.3750877   8.4186087  38.8921738  43.6261330
   8.0957899  38.1726532  42.9951172   8.0394669  39.0269890  44.8862915
   7.4168396  38.2946167  45.3785973   8.6963463  40.0601425  45.5005188
   8.8550873  40.1493530  46.4939690   9.5281086  40.5847626  44.5137825
  10.2616844  41.3704872  44.6181946  11.4499693  38.9320297  40.0762520
  11.7921648  40.0276413  39.6881409  11.8675041  37.8487587  39.4945145
  11.5936031  36.9914398  39.9528580  12.9380512  37.6904564  38.5396881
  13.6024160  38.5360107  38.7178955  13.6989956  36.4140358  38.7755661
  13.1903858  35.5376053  38.3739586  15.0291834  36.4072342  38.0159760
  15.8269043  36.9860649  38.4814758  15.2944927  35.3587646  37.8802528
  14.9444056  36.8037987  37.0042191  13.8441219  36.2858315  40.1534386
  14.3352585  37.0195389  40.5303421  12.4771271  37.7148399  37.1479149
  11.5443277  36.9887886  36.8187866  13.1594429  38.4961014  36.2853432
  13.8999853  39.0702629  36.6622162  12.9967890  38.5119247  34.7481232
  12.0829277  37.9797668  34.4839973  12.7238684  39.9732590  34.2688293
  12.1566792  39.9984818  33.3383675  12.0000429  40.4057541  34.9595757
  13.8894138  40.9892273  34.0947952  14.2933998  41.1201439  35.0986671
  14.6351233  40.5926819  33.4057617  13.4741583  42.4230690  33.6803474
  13.2758369  42.4510536  32.6089058  12.6627560  42.7918854  34.3078003
  14.6861753  43.2911568  33.8982239  15.5649900  42.8868217  33.3959274
  14.6720266  44.2726402  33.4243164  15.0530434  43.6622849  35.2616386
  15.3626747  42.8771362  35.8164062  15.8585186  44.2651176  35.1726913
  14.3369312  44.0560036  35.8551636  14.2841501  37.8419342  34.0750580
  15.4115143  38.0913811  34.4936066  14.0657787  36.9098167  33.0895576
  12.8223610  36.5374451  32.5374756  12.1962929  37.3809090  32.2464333
  12.2678566  35.9477692  33.2674828  13.1418962  35.6941223  31.3291607
  13.2527075  36.3385048  30.4570408  12.3801374  34.9281311  31.1839752
  14.5246725  35.1346664  31.6100845  15.1289625  35.2573242  30.7112579
  14.3769779  34.1308479  32.0083771  15.1955109  36.0839424  32.6620636
  15.6662493  35.5246468  33.4705772  16.3658829  36.8339996  31.9174461
  17.5128727  36.3518677  32.0868454  16.1632614  38.0155983  31.3242416
  15.1708040  38.1969872  31.2769794  17.0892677  39.0210648  30.7132072
  17.6115055  38.6376114  29.8366623  16.1661930  40.1920700  30.3185959
  15.3862801  39.8222427  29.6529636  15.6975126  40.4693985  31.2628040
  16.7557182  41.4380875  29.6765385  16.0223007  42.2367477  29.5654526
  17.6004868  41.8146782  30.2533054  17.3069420  41.0943604  28.3506985
  16.4485455  40.9494705  27.4563808  18.4971600  40.7494011  28.2516041
  18.1853161  39.5895500  31.7196178  19.2212009  40.0924759  31.2937927
  17.8903313  39.3854408  33.0104065  17.1518631  38.7299271  33.2226830
  18.8392315  39.6469803  34.0606270  19.5964394  40.3612213  33.7372017
  18.1967430  40.1494446  35.3743820  17.4272976  39.4475479  35.6959267
  18.8831177  39.9774818  36.2034950  17.5779819  41.4862900  35.4668770
  17.9126015  42.5145035  34.8055573  16.6665077  41.6061859  36.3283234
  19.7236252  38.3525352  34.3996964  20.6651134  38.5799942  35.1579323
  19.4202499  37.1443520  33.9634514  18.6541119  37.0763321  33.3088455
  20.0552139  35.8738213  34.3818703  20.5231667  36.0901337  35.3422508
  18.9697399  34.8164520  34.4513969  18.6274948  34.5606270  33.4486389
  19.5797825  33.6125565  35.0522881  20.2608509  33.1564484  34.3338089
  20.0231056  33.8695488  36.0143242  18.8574066  32.8146553  35.2244034
  17.7716961  35.1968269  35.2969589  17.9266739  35.3564720  36.3640060
  17.2265530  36.0728836  34.9456062  17.0955048  34.3460846  35.2126617
  21.1453514  35.4497795  33.4504280  20.9344711  35.0923004  32.3503990
  22.3763237  35.5188560  33.9490852  22.4401245  35.7687149  34.9256096
  23.6721840  35.2258873  33.2952423  23.7983227  35.8509865  32.4112511
  24.8733940  35.6493568  34.2694092  24.8799458  34.9600220  35.1137276
  26.2438145  35.4622917  33.6045570  27.0091839  35.5391541  34.3768272
  26.2272053  34.4211960  33.2821579  26.3446655  36.0765457  32.7097816
  24.8607502  37.1487198  34.5826988  24.0019302  37.4510689  35.1819649
  25.6633701  37.2633362  35.3112373  24.8771267  37.9232826  33.8159599
  23.6404476  33.7702751  32.8618050  24.1266651  33.4479790  31.7740765
  23.2219601  32.9059639  33.7941895  22.6053371  33.2611351  34.5109367
  23.1112766  31.4504471  33.5214310  22.8052788  31.4288731  32.4754868
  24.5491619  30.8160934  33.5583916  24.3687248  29.8095894  33.1809120
  25.2924538  31.2962551  32.9219475  25.1148071  30.7155609  34.9475250
  24.9991150  31.7372360  35.3093224  24.4545670  29.9432697  35.3421822
  26.5861816  30.4223766  35.1207466  27.2942142  30.0334530  34.2676315
  27.0840206  30.5529003  36.3469200  27.9878540  30.1320839  36.5084877
  26.4758377  30.7055378  37.1386986  22.1453018  30.8179665  34.5418472
  21.7733192  31.4480209  35.5088158  22.0683975  29.5215569  34.4972839
  22.5390034  29.0884571  33.7155838  21.7297115  28.7090034  35.6427879
  22.2133083  29.1762295  36.5006599  20.1720448  28.5929012  35.8179512
  19.6740456  29.5268078  36.0785522  19.7511082  28.4721203  34.8197899
  19.6324158  27.4585934  36.6804886  20.2629452  26.5890808  36.4948006
  19.7318287  27.7070694  37.7371216  17.9270306  26.8467999  36.3637238
  16.9490070  28.2285252  36.8213120  16.8165646  28.2197304  37.9031982
  17.3585472  29.1769524  36.4736557  15.9767075  28.1149788  36.3418961
  22.4747238  27.2914429  35.6171417  22.6888332  26.6721840  34.5730171
  22.9166775  26.7940063  36.7650337  22.8531456  27.3396244  37.6125984
  23.4956703  25.4521847  37.0312996  23.8458767  25.0131149  36.0971298
  24.7051239  25.6507053  37.9920006  24.4429874  25.7778549  39.0423431
  25.3434753  24.7671871  37.9937897  25.6520958  26.8198299  37.6293831
  25.0298119  27.7147427  37.6290245  26.6361027  26.9536457  38.7377090
  26.0473156  26.9692020  39.6548653  27.3050766  26.0930920  38.7421837
  27.1152840  27.9310741  38.6818466  26.4269791  26.6390724  36.3386345
  25.9901047  26.8318291  35.3587952  27.2539730  27.3485241  36.3678665
  26.8312550  25.6331520  36.2255707  22.3958321  24.5468597  37.6374702
  21.7855816  24.8926334  38.6478119  22.3768234  23.3527088  37.0512466
  22.9994450  23.1218300  36.2902336  21.5111847  22.3045063  37.4712257
  20.9928360  22.5843430  38.3883438  20.5194397  22.0117588  36.3204422
  21.0552425  21.6596928  35.4389305  19.8639545  21.2486019  36.7400055
  19.6326046  23.2442036  35.9392090  19.6125679  24.0035038  36.7209778
  20.0279770  24.0350285  34.6892776  20.9895649  24.4527397  34.9875679
  20.0703697  23.4228668  33.7884102  19.2870655  24.8342209  34.6682587
  18.2322330  22.8181744  35.7163773  18.3415947  22.1474762  34.8641357
  17.8424187  22.3225460  36.6054764  17.5885906  23.6880093  35.5851860
  22.1865883  21.0165615  37.9053421  23.2996368  20.6978989  37.5088387
  21.5537300  20.1732140  38.7174416  20.7523346  20.4407406  39.2708855
  22.1657715  18.8886852  39.1684647  22.6160965  18.4689178  38.2689629
  23.1629696  19.1928215  40.2484665  23.9626732  19.8153019  39.8471031
  22.7496624  19.8402557  41.0218391  23.8376808  18.0665798  40.8042946
  24.3109570  17.5640736  40.1371384  21.0946083  17.8572655  39.6520844
  20.0015755  18.2689934  40.0447502  21.4210567  16.5542622  39.6737328
  22.3941708  16.3237877  39.5322075  20.5166168  15.5294895  40.2187920
  19.8373852  15.9861336  40.9386673  19.6205921  14.9422665  39.1222382
  19.2701588  15.7666264  38.5011787  20.2983036  14.2844696  38.5780754
  18.8071423  14.3742971  39.5736923  21.2863865  14.4195223  40.9810753
  22.4633999  14.0960035  40.7337761  20.6119938  13.8754606  42.0043488
  19.7363815  14.3110466  42.2566719  21.2341843  12.8585796  42.8633308
  22.1612072  13.3640556  43.1339302  20.4566002  12.5294771  44.2034378
  20.9293957  11.6993227  44.7282333  20.6073303  13.7014914  45.1777954
  19.8882713  13.5503063  45.9828987  21.6143932  13.7240524  45.5942307
  20.3194237  14.6431513  44.7103691  19.1805267  12.1594639  43.8604927
  19.2254143  11.2039986  43.7788010  21.6489449  11.6655893  41.9861641
  20.8778744  11.3434734  41.0874367  22.8235397  10.9986486  42.1255531
  23.8580513  11.2481976  43.1391449  23.4978390  11.4382410  44.1501999
  24.5063934  12.0631084  42.8171616  24.6757965   9.9582033  43.2445908
  24.2855988   9.2361803  43.9618988  25.7283382  10.2040520  43.3853569
  24.6364250   9.4353237  41.8357964  24.5346375   8.3503952  41.8099136
  25.5027218   9.8442945  41.3158226  23.3451614   9.9857397  41.2320251
  23.5382538  10.4504004  40.2651215  22.3702946   8.8047676  40.9367027
  22.6535053   7.9216404  40.1033020  21.4212456   8.6243725  41.8003044
  21.5367165   9.1379557  42.6622810  20.3809261   7.5831203  41.6843414
  20.8627758   6.6158438  41.5418701  19.7061653   7.2571592  43.0170822
  18.9035702   6.5279970  42.9063416  20.3680534   6.9865046  43.8397331
  18.9885330   8.4734325  43.5787315  19.5569267   9.6043959  43.6597176
  17.8648853   8.2837877  44.0916214  19.3827705   7.8024664  40.5730934
  18.8011799   6.8875399  39.9469261  19.2976627   8.9931774  39.9618530
  19.6065845   9.7899971  40.5001335  18.3773422   9.4286423  38.8851509
  17.5455151   8.7257977  38.8385353  17.8535156  10.8907776  39.1160851
  18.7693520  11.3945723  39.4251747  17.3904266  11.2471275  38.1959419
  16.9427910  11.0704393  40.3113823  17.5188751  10.7291946  41.1714859
  16.4081593  12.4750862  40.4819946  15.8142700  12.7434340  39.6082764
  15.6818304  12.5209246  41.2934418  17.1786518  13.2258501  40.6575089
  15.6934967  10.1019402  40.1803093  15.9652014   9.0508652  40.0827675
  14.9484615  10.3976707  40.9189339  15.2294512  10.3943329  39.2383614
  19.0731030   9.3344860  37.4851723  20.0945969   9.8993006  37.1822090
  18.4176636   8.6954451  36.5289612  17.5873108   8.1568470  36.7302704
  18.8393459   8.5208311  35.1289635  19.7602348   9.0680914  34.9275284
  19.1061001   6.9841332  34.8687248  18.1659203   6.4456987  34.7493362
  19.6502399   6.9991565  33.9243813  19.9815006   6.4410148  35.9965744
  21.3352489   6.6146245  36.0831490  21.8083954   7.1049972  35.3376503
  21.7946339   5.9911609  37.1201019  22.8532372   5.9011083  37.3141365
  20.7623196   5.3911319  37.7379799  20.8523254   4.7249212  38.4917450
  19.5857430   5.6890168  37.0716476  18.5557690   5.4353819  37.2746811
  17.8816967   8.9484272  34.0079803  18.3215485   9.0180540  32.8437500
  16.6522846   9.4021692  34.3315392  16.2615776   9.5017233  35.2575722
  15.6763954   9.5739355  33.2805786  15.5600538   8.6543770  32.7070160
  14.3916349   9.8814945  33.9822884  14.1765556   9.1473007  34.7586861
  14.3136911  10.9505587  34.1800957  13.5984135   9.7119732  33.2541656
  16.0640926  10.6863337  32.2495384  15.8719234  10.5164204  31.0657063
  16.7071533  11.8178501  32.6330070  17.1685905  11.8989477  33.5277710
  16.6356888  12.9700766  31.7203388  16.8711586  12.5936222  30.7248802
  15.1791067  13.4351530  31.6741524  14.3886862  12.6893330  31.5899773
  14.7843313  14.1528587  32.9464607  14.9309626  13.5454874  33.8396034
  15.3383455  15.0841722  33.0640450  13.7272434  14.4105425  32.8811111
  14.9033871  14.3448648  30.4848938  15.6207790  15.1318865  30.2524185
  14.8163900  13.8250484  29.5307846  13.9558573  14.8775606  30.5656433
  17.5719852  14.1259642  31.9892559  17.8466644  14.2784433  33.2113419
  18.0474339  14.9544420  31.0381413  17.8301334  14.8218021  30.0607529
  18.8006992  16.1269798  31.3753300  19.3927155  15.9315472  32.2694397
  19.8595295  16.4865742  30.2568798  19.3467999  16.7005577  29.3191051
  20.4445343  17.3688526  30.5166054  20.8616600  15.3910446  30.1059074
  21.8608608  15.1587372  31.0587273  21.9882107  15.7554026  31.9498920
  22.8464222  14.1299152  30.8477058  23.4547997  13.8750162  31.7028694
  22.9034233  13.4223442  29.6246567  23.6132431  12.6267014  29.4528751
  21.9364243  13.6921759  28.6762962  21.9734402  13.1516237  27.7420406
  20.9645061  14.6614790  28.9035358  20.2912140  14.8290339  28.0758801
  17.7842960  17.2592335  31.6771011  17.1660061  17.8384190  30.7214413
  17.5790806  17.6589451  32.9796486  18.4334583  17.3143425  34.1613007
  19.5008373  17.2472744  33.9508171  18.1578922  16.3418159  34.5691643
  18.1758118  18.2759781  35.2679901  18.6673393  19.2488213  35.2769432
  18.2393913  17.8372402  36.2637672  16.7340603  18.5568295  35.0275154
  16.4115181  19.4944668  35.4801750  16.1888733  17.7536888  35.5233307
  16.4947853  18.5407219  33.4875641  15.5815430  17.9818668  33.2831841
  16.5049324  20.0683041  32.9514999  15.4931545  20.7859726  33.0296326
  17.6045227  20.3416729  32.2765656  18.3641815  19.6799068  32.2052612
  17.7909565  21.5718899  31.4953995  17.8172722  22.4111595  32.1904106
  19.1373043  21.5303268  30.7583008  19.9189968  21.3282433  31.4905701
  19.0963345  20.8194351  29.9330406  19.2056808  22.5189533  30.3043823
  16.6453190  21.8915977  30.4961185  16.2856045  23.0925751  30.3296280
  15.9319563  20.9166222  29.9996452  16.2303867  19.9757786  30.2137699
  14.8561735  21.0890045  29.0461769  15.1257830  21.6512585  28.1521530
  14.4633074  19.7164841  28.4867535  14.3070068  19.0661678  29.3474274
  13.5238199  19.7307968  27.9342518  15.6241093  19.0390682  27.6795273
  16.1033325  19.7731552  27.0317917  16.3713531  18.5660133  28.3166733
  15.1426668  17.8885136  26.7604961  14.4148817  18.2562752  26.0371838
  15.9898300  17.4829578  26.2073784  14.5994701  16.7568436  27.5967426
  15.3554497  16.4720821  28.3285255  13.7666388  17.2398949  28.1077747
  14.1302710  15.6085873  26.7859707  14.7832375  15.1829863  26.1436329
  13.7238531  14.9005928  27.3806744  13.4162550  16.0308914  26.2098255
  13.6768103  21.9364586  29.6172466  12.9564962  22.6558628  28.8983097
  13.3689051  21.6675930  30.8774834  13.8950310  21.0488434  31.4778557
  12.3572607  22.3425751  31.6906910  11.4234047  22.2211761  31.1418056
  12.1237106  21.6372318  32.9478111  11.5917473  20.7153091  32.7129173
  13.0026608  21.3766651  33.5374374  11.5106430  22.2736492  33.5859566
  12.6130009  23.8441811  31.8670616  11.6755085  24.6264992  32.0663109
  13.8254080  24.2697163  31.8719597  14.5260525  23.6066608  31.5727024
  14.2118626  25.6717968  32.1189232  13.6898479  26.0395012  33.0023232
  15.7322626  25.8844833  32.3248329  16.1330605  25.7495728  31.3202133
  15.9348526  27.2819118  32.7206841  15.6255236  27.8878746  31.8690853
  15.2154665  27.6043262  33.4734344  16.9514809  27.4986897  33.0486641
  16.3770847  25.0553379  33.3755646  15.7413139  25.1373081  34.2571449
  16.3677082  24.0149231  33.0506821  17.4235573  25.2618389  33.5999603
  13.6066856  26.5600281  30.9778786  13.0454607  27.5696049  31.3040581
  13.5109825  26.1424885  29.6794395  14.1626768  25.4002628  29.4684887
  12.9644270  26.8367538  28.5803585  13.3559828  27.8486385  28.6846256
  13.6509171  26.2706718  27.3892136  13.1210899  25.3464069  27.1587467
  13.5129251  26.9631329  26.5588188  15.1655912  26.0740662  27.3887901
  15.7003489  26.9831791  27.6638374  15.4583921  25.2936554  28.0911617
  15.7924385  25.8080826  26.0295448  15.3305798  24.8707008  25.7195358
  15.5976954  26.5886269  25.2940693  17.2817574  25.6720676  26.1088181
  17.7887478  26.5265350  26.2903252  17.9846764  24.6114540  25.9766216
  17.5259418  23.3876247  25.7847233  16.5344505  23.2293510  25.6752071
  18.1016998  22.5626392  25.6952686  19.2696495  24.8392849  26.0023632
  19.9355221  24.0940628  25.8562183  19.5870514  25.7679920  26.2408180
  11.4851131  26.9756680  28.4316006  11.0735970  27.7400799  27.5187969
  10.6760502  26.3027515  29.3455124  11.1028042  25.7430649  30.0698967
   9.2545481  26.2365551  29.3199577   9.0385485  25.9039268  28.3046722
   8.6796484  25.2213593  30.2435722   9.3544626  24.3684616  30.1708279
   8.7871246  25.5925770  31.2627621   7.1160192  24.9462185  30.1432495
   6.9233184  24.5041294  31.1207581   6.6243887  25.9189396  30.1286163
   6.7276554  24.1102772  28.9345379   7.4067659  23.0767021  28.7015343
   5.6828537  24.3499336  28.3189182   8.5709095  27.6878719  29.4724979
   7.9111643  28.1186810  28.5303688   8.9445877  28.4596424  30.5289440
   9.7269793  28.1199512  31.0698452   8.4642868  29.8530807  30.7182484
   7.3753233  29.8524437  30.6707230   8.8805504  30.2052689  32.1223183
   9.9703779  30.1908607  32.1353378   8.6646509  31.2258167  32.4384956
   8.3256283  29.2549038  33.2847557   8.3024206  28.2084618  32.9805679
   9.1326590  29.6146812  34.5665016   8.6538706  28.9961033  35.3255997
  10.1729517  29.3385601  34.3943138   9.0244570  30.6739941  34.7994156
   6.8832664  29.7668743  33.4566765   6.3874230  29.6260242  32.4962578
   6.3148856  29.2158985  34.2059898   6.8737969  30.8149490  33.7559357
   9.0240946  30.8112297  29.6207981  10.0912027  30.6459045  29.0392418
   8.0813885  31.6931133  29.2179470   7.2003646  31.7249737  29.7107773
   8.4184237  32.6976776  28.2020035   8.4245253  32.2384491  27.2134838
   7.2003269  33.6749229  28.1817207   6.3083668  33.1133232  27.9040298
   6.9847984  34.0761909  29.1719913   7.3843966  34.6647453  27.2454262
   7.5439725  35.5326271  27.6234722   9.7141895  33.4999428  28.3765869
   9.9374132  33.9097939  29.5004501  10.5075150  33.6222229  27.3110924
  10.2913895  33.1917496  26.4233532  11.8369303  34.1583366  27.3944969
  12.0574036  34.4911041  26.3802204  11.8723068  35.1178627  27.9104061
  12.9907112  33.3426819  28.0116558  14.2160311  33.4179916  27.7144299
  12.6359415  32.2678185  28.7102928  11.6448011  32.0789909  28.7559853
  13.6548872  31.3871975  29.4606686  14.3382473  32.0897980  29.9376106
  12.9766979  30.6694736  30.6180840  12.0941744  30.1628265  30.2274952
  13.6087465  29.9175930  31.0906200  12.6315889  31.5674725  31.7640228
  11.4615164  32.3045807  31.8776989  10.6817045  32.1507301  31.1465187
  11.5370760  33.0647049  33.0117645  10.6842766  33.5135155  33.3140945
  12.7092133  32.9408684  33.6739655  13.1667786  33.5121765  34.8814697
  12.5707741  34.2420235  35.4091988  14.4058695  33.1179924  35.3812027
  14.7710285  33.5744629  36.2893295  15.1326561  32.1613541  34.6302185
  16.1115055  31.8581371  34.9712677  14.6464300  31.6036854  33.4421539
  15.1880808  30.8572407  32.8801537  13.4330120  31.9560966  32.9305878
  14.5621910  30.5885925  28.5237808  15.6252518  30.0847874  28.9491367
  14.1754961  30.3429585  27.2400742  13.2320490  30.5796356  26.9680634
  15.0211658  29.7472401  26.1643867  15.3303661  28.7992973  26.6047268
  14.1672640  29.5105171  24.8672485  14.7522173  28.9218159  24.1605930
  13.3736210  28.8245487  25.1633568  13.5900679  30.7841644  24.2095814
  12.8961010  31.3453140  24.8353786  14.4195223  31.4018612  23.8652611
  12.7403383  30.5617352  23.0405159  12.9966784  29.7223186  22.2087593
  11.7532349  31.3857899  22.8482685  11.5998478  32.2052612  23.4183903
  11.1527729  31.2625904  22.0455418  16.3383198  30.5263844  25.9024544
  17.3143940  29.9028873  25.4062424  16.4353848  31.7788315  26.3418732
  15.5509844  32.1969872  26.5930367  17.6841450  32.5723076  26.1797352
  18.2122860  31.9920025  25.4231548  17.3725567  33.9603348  25.5519886
  17.1506767  34.7817612  26.2332554  18.2393513  34.2318993  24.9494724
  16.2919846  34.0005379  24.5015621  16.5572872  33.5328331  23.1660690
  17.5710068  33.2742882  22.8978729  15.4768963  33.4697380  22.2683582
  15.5759621  33.1398010  21.2447720  14.1846437  33.8900146  22.6843014
  13.2394505  33.8844147  21.7628860  13.6189899  33.8205681  20.8834114
  13.9568186  34.4885864  23.9679813  13.0270109  34.8264656  24.4012222
  14.9936953  34.4788666  24.8159504  14.6740131  34.8618279  25.7738400
  18.7327232  32.6246223  27.2989483  19.8949127  32.9556656  27.1268005
  18.2644978  32.3197403  28.5116787  17.2813988  32.0981522  28.5788498
  19.1366959  32.0296631  29.5807037  19.8476238  32.8420143  29.7315865
  18.2968254  31.7391510  30.8663673  17.5977421  30.9257507  30.6720448
  19.0502701  31.3323364  32.1221886  19.9213467  31.9170475  32.4178848
  18.3708401  31.2891273  32.9734268  19.4212933  30.3391991  31.8689766
  17.6318264  33.0142975  31.2386646  17.0809097  33.0170555  32.1791878
  18.4192314  33.7635345  31.3207531  16.9227867  33.2765579  30.4534378
  19.9721889  30.7706280  29.1760864  19.3659058  29.7025814  28.8000889
  21.3124275  30.7981834  29.1774845  22.1492825  31.9863472  29.3664589
  22.5423241  31.9742146  30.3830585  21.6902370  32.9560204  29.1738205
  23.3985615  31.7193165  28.5597553  24.2831116  32.0389786  29.1106548
  23.4989414  32.0904350  27.5398045  23.5209656  30.1660690  28.4796295
  24.3173027  29.8311749  29.1443024  23.6313534  29.7173672  27.4924183
  22.1943970  29.6345596  28.9720745  21.7947655  28.9202728  28.2522221
  22.3220863  28.7768593  30.2610779  22.6202412  29.3402138  31.3519211
  22.2269077  27.4809914  30.1170883  22.0884495  27.1836567  29.1618290
  22.1491890  26.4506340  31.1880627  22.4168415  26.9175835  32.1359177
  20.6721878  26.0474243  31.4274330  20.5713711  25.4287262  32.3191452
  19.8447876  27.2554607  31.7497196  20.2239685  27.6093674  32.7084007
  19.9311600  28.1049614  31.0722351  18.8029995  27.0021343  31.9461823
  20.1564980  25.3841648  30.1277390  19.0670891  25.4196720  30.1327496
  20.5096397  25.8209038  29.1935806  20.3288536  24.3092327  30.0736198
  23.0523605  25.3238220  30.9164677  23.5284863  25.0454388  29.7924805
  23.3281193  24.5525055  31.9740086  22.9983997  24.8863297  32.8684082
  24.1104584  23.2646160  31.9208412  23.7987289  22.7764740  30.9974556
  25.6401901  23.4356880  31.8404636  25.7711849  24.0622272  30.9582005
  26.2820759  24.0573940  33.0757561  27.3420067  23.8151913  32.9983635
  26.2692394  25.1403770  32.9529343  25.8796043  23.6891518  34.0194283
  26.1126366  22.1555996  31.6008492  26.6095066  21.8767281  32.3734779
  23.6561909  22.2951412  33.1013107  23.3455276  22.7857456  34.1528244
  23.7452602  20.9787807  32.9473495  23.8719749  20.6126175  32.0146294
  23.4965782  20.0351257  34.0926132  22.9607697  20.4598122  34.9415245
  22.6763992  18.8311768  33.5888710  23.1580772  18.5176353  32.6627045
  22.5121918  18.1057396  34.3856621  21.0004616  19.3367958  33.2332039
  21.4748459  19.9561749  32.1486626  24.8493481  19.5129261  34.5143509
  25.7941933  19.5156746  33.7092743  24.9264793  18.9190693  35.7332344
  24.1114864  18.9293385  36.3297081  26.0793591  18.1364651  36.2205811
  26.5382710  17.5074406  35.4577980  27.1491776  19.0179157  36.8278275
  27.7829971  18.3147469  37.3681335  27.7899895  19.4705944  36.0711670
  26.5925732  20.0859318  37.8173866  25.6834030  19.7830086  38.3367577
  27.3078976  20.1688061  38.6356430  26.3535061  21.7009525  37.1900139
  28.0144730  22.2491150  37.2800064  28.2802219  22.5705948  38.2870407
  28.7407322  21.4546471  37.1083374  28.2267113  23.1551628  36.7124405
  25.6120300  17.1912460  37.2596016  24.5816784  17.4167233  37.8803291
  26.3280907  16.0536690  37.4337273  27.2442684  16.0556526  37.0086212
  26.0227585  15.0806589  38.5215302  24.9434929  14.9323101  38.4857368
  26.5531769  13.6412458  38.2798004  26.5391407  13.4026680  37.2163239
  27.6305904  13.6166658  38.4431496  25.9056320  12.4580030  38.9936218
  26.2494736  12.4098206  40.0268440  24.8337765  12.5898209  38.8457947
  26.3456306  11.1509533  38.3017769  27.4801064  10.9619551  37.9661026
  25.3768044  10.1791468  38.0813370  25.6653214   9.2777004  37.7288361
  24.3877468  10.2684746  38.2654114  26.2850342  15.6178770  39.8830528
  27.2523346  16.3008480  40.2019768  25.4934273  15.2301102  40.8829651
  24.6979599  14.6593695  40.6348000  25.6754971  15.3166933  42.3555794
  26.0186138  16.3148689  42.6276436  24.3812771  14.9600039  43.0487518
  23.5781212  15.5772915  42.6462593  24.2454166  13.9568834  42.6445351
  24.2099628  14.8610849  44.5818062  23.6550751  13.9353819  44.7343597
  25.1646557  14.7698174  45.0998154  23.4216576  16.0811367  45.1340256
  22.1673794  16.0532036  44.9999924  24.1020489  17.0010777  45.6151276
  26.8462830  14.3982048  42.8707466  27.0507240  13.3574200  42.3586922
  27.4841843  14.8374987  43.9382362  27.2725296  15.7360353  44.3480339
  28.5342693  14.0157928  44.5774803  29.2116985  13.6806402  43.7920723
  29.4213924  14.8434000  45.5676384  30.1035862  15.5334806  45.0711479
  28.8316708  15.4397078  46.2638741  30.4165993  14.0277987  46.3474083
  29.8183537  13.3990059  47.0068169  31.0044479  13.3619442  45.7156029
  31.3334141  15.0465736  47.5170860  32.1777573  13.7324562  48.4767227
  33.1114731  14.0707607  48.9259682  31.4729404  13.5110941  49.2781754
  32.4016380  12.8648462  47.8560600  27.9423275  12.7350445  45.2952995
  26.8423347  12.8403616  45.8573875  28.6676083  11.6213570  45.1772728
  29.5123997  11.5976667  44.6242180  28.1223984  10.2910919  45.5790024
  27.1379223  10.1207218  45.1432457  28.9745960   9.1802359  44.9610672
  29.1602001   9.3128757  43.8952065  29.9989662   9.1688023  45.3334007
  28.3381042   7.7687364  45.1641159  29.1114979   6.7491736  45.2714844
  27.0758171   7.6954408  45.2505608  28.0897617  10.1018295  47.1096840
  28.6158943   9.1487103  47.6909294  27.7808285  11.0896807  47.9610329
  27.4007835  11.9285116  47.5462685  27.5646381  10.9197874  49.5006180
  28.5482025  10.5672970  49.8111877  27.3131008  12.3081074  50.1946754
  26.4699249  12.7531595  49.6663933  27.1189003  12.3197622  51.7260132
  27.7814369  11.7026672  52.3329239  27.3366184  13.3516827  52.0014038
  26.0710754  12.1658993  51.9838638  28.6049099  13.1845827  50.0036964
  28.3693256  14.2435331  50.1096191  29.3231411  12.8337307  50.7447433
  28.9698524  13.0957594  48.9804535  26.4527245   9.9089804  49.7777596
  25.3078365  10.0528383  49.3709030  26.8018837   8.9671116  50.6454582
  27.7543621   8.9535522  50.9811783  25.9035320   8.0172749  51.3905220
  25.2142868   7.5581903  50.6817932  26.7794418   6.9249945  52.1743813
  27.7979984   7.2500954  52.3864136  26.0592690   6.3718543  53.3794060
  25.1052170   5.9082313  53.1285400  26.5613918   5.5551748  53.8980637
  25.9932232   7.1216688  54.1677742  26.8341503   5.7643247  51.4200287
  27.3578625   5.9590731  50.6393890  25.1066093   8.8520317  52.4378738
  25.7080841   9.7190380  53.0989265  23.8260479   8.6125250  52.6425552
  23.4623375   7.8418536  52.1004448  22.9511070   9.3968086  53.5184402
  22.0842247   8.8129473  53.8278313  23.5102100   9.8807144  54.3192749
  22.3827801  10.6120472  52.7882080  22.3299198  10.7233152  51.5863571
  21.7910519  11.5293407  53.5556908  21.6425915  11.4101143  54.5475807
  21.0286064  12.6909866  52.9878731  20.7752552  13.4145441  53.7627106
  21.7610531  13.1432524  52.3192329  19.8104362  12.1558104  52.2255592
  19.3770428  11.0228271  52.4088821  19.2505436  13.0348358  51.3735695
  19.6881962  13.9273186  51.1945877  18.1200867  12.6162548  50.5340462
  17.5293274  11.8244648  50.9946709  17.2102184  13.8098402  50.1834412
  17.8378716  14.6539965  49.8978615  16.5321026  13.5310097  49.3768997
  16.3851299  14.3388767  51.4060287  17.0356083  14.2909975  52.2793465
  15.9977503  15.8151274  51.1211967  15.4398994  15.9437218  50.1936378
  15.2815771  16.0573444  51.9063873  16.8978710  16.4263306  51.1868782
  15.1386099  13.4697428  51.6195869  14.6725893  13.1937504  50.6736755
  15.3269854  12.5604248  52.1903305  14.3943624  14.0339718  52.1815834
  18.6127377  11.9596672  49.1642990  19.6312885  12.3887577  48.6858826
  17.8496857  10.9884586  48.6986008  16.9704971  10.7170639  49.1151009
  18.0504074  10.3998995  47.3325768  19.0697670  10.5109262  46.9628754
  17.6020241   8.9444695  47.4051437  16.5958672   8.8812132  47.8195686
  17.4566135   8.6200781  46.3747406  18.6424599   8.0388813  48.0625000
  19.5740623   8.2843790  47.5526466  18.6654282   8.1963768  49.1408157
  18.2882824   6.6001501  47.6186218  17.2822304   6.3287477  47.9384651
  18.4510555   6.5391679  46.5425720  19.2696018   5.6057839  48.3220062
  20.3104248   5.9277554  48.2884789  19.0424709   5.4826193  49.3809395
  19.2777977   4.3078694  47.7268944  19.8520756   3.5960495  48.1554070
  18.3552723   3.8991125  47.6825638  19.7502785   4.3028731  46.8342361
  17.0326653  11.1905909  46.3602180  16.4507065  12.1611204  46.8357391
  16.8116760  10.7918329  45.1549950  17.3370590   9.9829540  44.8553505
  15.9030495  11.3990631  44.1459846  16.4443684  11.2584343  43.2104111
  14.5582027  10.5867910  44.0318108  13.8942108  10.8220892  44.8635826
  14.1262093  10.9308186  43.0920601  14.5626373   9.0761824  43.8704567
  15.3350706   8.8169241  43.1464195  14.8686953   8.6985807  44.8460846
  13.0646095   8.5285940  43.6210861  12.4907827   8.9660463  44.4380684
  12.6146288   8.8246632  42.6734810  13.1494493   7.0087595  43.8325272
  13.8117142   6.5631747  43.0902596  13.6006937   6.8252835  44.8076248
  11.8159723   6.4482551  43.7139969  11.7843914   5.5897403  44.2450867
  11.0590734   6.9248557  44.1831055  11.6571836   6.2062516  42.7463608
  15.6760759  12.9590740  44.2021141  14.5511131  13.3913097  44.3332214
  16.7472324  13.6873064  44.0682640  17.6698360  13.3214922  43.8809624
  16.7010269  15.1606445  44.4279060  15.6700592  15.4779081  44.5846062
  17.4683609  15.3844366  45.7231712  17.1144409  14.7457209  46.5324249
  18.5317574  15.1749887  45.6073265  17.3709488  17.1304073  46.4769630
  17.8091049  17.8835258  45.4641800  17.4158363  15.9573393  43.3265991
  18.5690842  15.6851959  42.9500961  16.7522907  17.0360947  42.8288383
  15.8054066  17.2597847  43.0998993  17.2735348  17.9671097  41.8436890
  18.1993122  17.5995293  41.4010582  16.2009201  18.0973473  40.6521072
  15.3221645  18.3995667  41.2218018  16.6307030  19.1915226  39.6493454
  17.5877457  18.8759880  39.2338867  15.8851929  19.3459244  38.8693008
  16.8354130  20.1617107  40.1020393  16.0223122  16.7262154  39.9360085
  15.9020119  16.9096966  38.8683167  16.8773689  16.0913773  40.1682930
  14.8239536  15.9420815  40.2833481  14.8978901  14.8740129  40.0787315
  14.5445137  16.0575600  41.3305702  13.9155464  16.2470703  39.7638512
  17.6608353  19.2059155  42.6307755  16.8352375  19.6824417  43.4300079
  18.7898293  19.8883057  42.2711983  19.3498173  19.4880619  41.5320663
  19.0084572  21.2566566  42.8156281  18.0183773  21.6011982  43.1141930
  19.8060093  21.1115246  44.1662903  19.6851711  21.9774628  44.8171730
  19.3493786  20.2652054  44.6794586  21.3391705  20.8132591  44.0815239
  21.4982529  19.9966927  43.3772430  21.8432331  21.7503166  43.8450050
  21.7302513  20.3879681  45.5153465  22.7908974  20.2210922  45.7031822
  21.4078846  21.1753674  46.1966553  21.1225605  19.1108360  45.9047585
  20.9713650  18.4597054  45.1476135  20.8377209  18.6543827  47.1147079
  20.7039318  19.3295574  48.1475639  20.6708717  18.8190460  49.0184212
  20.7512722  20.3374043  48.1934357  20.8762207  17.3505993  47.1353416
  20.8026981  16.8991566  48.0358391  21.2920570  16.8803787  46.3440933
  19.6363010  22.1928501  41.8613739  20.4013500  21.7958012  40.9652901
  19.2496223  23.5196590  41.8724098  18.8415661  23.9217949  42.7042007
  19.6557083  24.4774036  40.8334122  20.3911114  23.9798927  40.2011414
  18.3764095  24.8551483  39.9420433  18.6613941  25.4991703  39.1101036
  17.6692982  23.6249275  39.3756599  17.1405945  24.0156555  38.5062256
  18.5278988  23.0143242  39.0962486  17.0583324  23.0843620  40.0985756
  17.3962135  25.7746716  40.6444511  17.0776329  25.4233589  41.6258698
  17.8046398  26.7388306  40.9472504  16.4999981  25.9349041  40.0450935
  20.1728649  25.7312164  41.4657745  19.7382050  26.1559563  42.5793762
  20.8812752  26.5236492  40.7321968  21.3230839  26.1100273  39.9236069
  21.2821159  27.8366184  41.1737251  20.7080364  28.3072777  41.9718552
  22.6668262  27.6677036  41.8684006  22.3983841  27.0691319  42.7388916
  23.4235001  27.2598038  41.1982040  23.1799622  29.0046959  42.4151688
  23.4717751  29.6355476  41.5755424  22.3440952  29.3776627  43.0070457
  24.6008682  28.8221512  43.5822754  25.9239254  28.3907204  42.3729401
  25.7328930  28.8936329  41.4249420  26.8747578  28.7014790  42.8058929
  25.9120712  27.3085136  42.2433815  21.3874226  28.7573051  39.9222412
  22.0276985  28.4134369  38.9037094  20.7524872  29.9169273  40.0820122
  20.0370502  29.9190006  40.7949257  20.7208920  31.0615559  39.1936340
  20.7300148  30.7735405  38.1424141  19.3228149  31.7079735  39.3666458
  19.0927315  32.0091133  40.3886414  19.3524418  32.6782074  38.8707962
  18.1109657  30.9282932  38.7906952  17.9411983  31.1096115  37.7293739
  18.4996433  29.9114075  38.8452454  16.5014858  31.0773201  39.5557327
  16.3235798  32.8619537  39.0461998  16.3829308  32.9425964  37.9608078
  15.2952414  33.1495399  39.2650909  17.0678806  33.5182495  39.4972038
  21.8295078  32.0734787  39.4615135  21.9617882  32.4298401  40.6436005
  22.6201420  32.5407829  38.4381866  22.4546585  32.2263870  37.4927406
  23.5872364  33.6609917  38.5730476  23.6948986  33.8223228  39.6456528
  24.8647728  33.3189468  37.8542786  24.5825844  33.2037468  36.8077583
  26.0381222  34.2497444  38.0544052  25.8292751  35.2380905  37.6449432
  26.3095360  34.3364334  39.1065102  26.8770237  33.8248329  37.5032310
  25.3139076  32.0452805  38.2732430  25.9502010  32.1636200  38.9822731
  22.8504353  34.9237518  38.0046806  22.7277145  35.0484467  36.7995987
  22.4390678  35.9010391  38.8601952  22.7658310  35.9348259  39.8152771
  21.5840740  36.9605103  38.4295158  21.5017452  36.8473129  37.3485413
  20.1265030  36.9406700  39.0330887  20.2932663  37.2890625  40.0523605
  19.1129055  37.8019028  38.2215385  19.3984032  38.8475723  38.3363152
  18.9792118  37.3883629  37.2219353  18.1401615  37.8002205  38.7133369
  19.4676075  35.5441818  39.1159096  18.3956833  35.5663147  39.3123436
  19.6664734  34.9522362  38.2225151  19.8973045  34.9034767  39.8859444
  22.1559696  38.3581581  38.6627617  22.4829502  38.6390305  39.7811470
  22.2212715  39.2328339  37.7360344  21.8219547  39.0073128  36.8361511
  22.4386292  40.6122780  38.0809059  23.3230381  40.5930595  38.7177353
  22.5993671  41.3550377  36.7040634  21.5761681  41.5017281  36.3581619
  23.0840397  42.3133087  36.8909073  23.3774948  40.7164421  35.5254974
  24.1681900  40.0646782  35.8971214  22.7337666  40.2083015  34.8075066
  24.0275784  41.7707024  34.6386909  25.2015572  41.6694336  34.2534561
  23.4620895  42.9098701  34.3050232  24.0402927  43.6126785  33.8670197
  22.5464268  43.1714821  34.6415062  21.2725468  41.2263756  38.9077530
  20.1310234  41.3688507  38.5025406  21.5764656  41.5807266  40.1813202
  22.4578247  41.3322639  40.6074333  20.7431908  42.2880211  41.1836243
  20.3596191  43.1634140  40.6595497  19.5431538  41.4685249  41.6579666
  19.0520515  41.1362190  40.7433624  19.9210320  40.3429031  42.6356659
  20.4282169  39.5814095  42.0432205  20.6010647  40.7130051  43.4029236
  18.9788551  39.9521103  43.0199623  18.7111092  42.2842216  42.4366570
  17.9069881  42.3882942  41.9226913  21.5527668  42.8500977  42.3542290
  22.5493374  42.2043610  42.7060661  21.0721378  43.9780350  42.8523636
  20.3835526  44.3943901  42.2419548  21.5847511  44.8575096  43.8819580
  22.6623821  44.6962891  43.9105797  21.3960476  46.3467064  43.4658432
  20.3324261  46.5624428  43.3645096  21.7717342  47.0103149  44.2446785
  21.8989697  46.8135338  42.0866013  21.5065975  47.9303551  41.6467171
  22.7130146  46.0798950  41.4887161  21.0395660  44.5812798  45.3489494
  21.4388256  45.2160110  46.3639107  20.1064568  43.5953712  45.4449730
  19.6979504  43.0744667  44.6821632  19.7752895  42.9893684  46.7398682
  19.2602978  43.7902412  47.2704201  18.7149200  41.9678154  46.5044403
  19.1918964  41.2811470  45.8050995  18.1192226  41.2506752  47.7140656
  18.8203392  40.6379128  48.2806931  17.6706924  42.0072403  48.3579063
  17.3587227  40.5175896  47.4451294  17.4429188  42.6600533  45.9058189
  17.7093811  43.1164551  44.9525108  16.6138248  41.9640617  45.7781334
  17.0579720  43.4892654  46.4993896  20.9613609  42.5244293  47.4867325
  21.8448582  41.8167801  46.9566231  21.0942078  42.8910370  48.7318192
  20.2903252  43.8031616  49.4951820  19.2996063  43.3919220  49.6887245
  20.0560627  44.7411880  48.9918633  21.0248833  44.0633545  50.6940575
  20.4310055  44.1959152  51.5984001  21.5887852  44.9531898  50.4142113
  21.9658661  42.9025497  51.0013466  21.3839569  42.2063103  51.6052742
  22.9221535  43.1812592  51.4439964  22.1678181  42.3594513  49.6302757
  23.1203499  42.6624298  49.1955414  22.0575123  40.8057556  49.7299347
  20.9165001  40.2336693  49.8058434  23.1451035  40.1731758  50.0511780
  23.9826088  40.6818886  49.8064308  23.2117577  38.6815491  50.1866341
  22.9646301  38.2557068  49.2141685  24.6382885  38.3246422  50.5439835
  25.3864899  39.0623665  50.2540550  24.8096638  38.3222733  51.6204224
  25.1207352  36.9752846  50.0349350  24.6278820  36.1676865  50.5762138
  25.0049248  36.8607864  48.9571724  26.6318035  36.9009247  50.2420120
  27.1087914  36.8469124  51.3611031  27.4580441  36.8662262  49.2289810
  28.4345360  36.7824173  49.4729996  27.1738739  36.6729813  48.2792435
  22.2328453  38.0982933  51.1473694  21.7717056  36.9713326  50.8951569
  22.0597019  38.7872581  52.2524872  22.7339134  39.5186005  52.4276276
  21.1332989  38.4095154  53.3186417  21.2168045  37.3379097  53.4997177
  21.5153675  39.1539459  54.6343040  20.9680996  38.7891617  55.5035133
  22.5482674  38.9672279  54.9281654  21.4368935  40.7071342  54.4932022
  22.3980312  41.2884560  53.9237709  20.4573002  41.3023720  55.0124702
  19.6223450  38.6944046  52.9863815  18.7254810  38.0548706  53.6015167
  19.3455334  39.6135406  52.0441551  20.0815964  40.0440788  51.5029068
  17.9447651  39.8579407  51.6637421  17.3476124  39.6410980  52.5494576
  17.7389603  41.2664032  51.2087440  18.3737011  41.5109253  50.3570328
  16.6958027  41.3087769  50.8954926  17.8740330  42.3033752  52.3008690
  18.8993378  42.5016365  52.6131897  17.4529228  43.1885376  51.8241539
  17.0121822  41.9452209  53.5232925  15.8298359  41.9939690  53.4544182
  17.6099491  41.5092773  54.5826492  18.6044235  41.3812943  54.7040672
  16.9729939  41.1622238  55.2854614  17.4159622  38.8868141  50.6303062
  16.1953945  38.6787453  50.6138878  18.3124142  38.2703743  49.8000336
  19.2099724  38.7328339  49.7751350  17.9882488  37.2422562  48.7570724
  17.2595596  37.6263237  48.0432053  19.3182411  36.8155289  48.0253754
  20.1271286  36.7587852  48.7537880  19.0938549  35.5234108  47.3646736
  18.1554565  35.5162468  46.8101883  19.9525509  35.2681999  46.7436981
  18.9405746  34.7111549  48.0751991  19.7468071  37.8717728  47.0128708
  19.7345200  38.8416023  47.5102463  20.7260323  37.6758003  46.5760498
  18.8099709  38.0796738  45.8278313  17.7631340  38.2661133  46.0675697
  19.2418671  38.9187775  45.2824211  18.7351589  37.2682877  45.1038513
  17.1909809  36.1292305  49.4184914  17.3610611  35.7828445  50.5592842
  16.3106613  35.4573555  48.6507950  16.2876282  35.7776833  47.6932144
  15.5803280  34.2130051  49.1586494  15.7797394  33.9059792  50.1853294
  14.0866890  34.5632553  49.0499992  13.9415035  35.0281525  48.0748634
  13.5067997  33.6481361  49.1699715  13.5056725  35.7049942  49.9432373
  13.8560715  36.6641121  49.5619049  12.4193249  35.6605682  49.8659363
  13.8958063  35.6277199  51.4100380  14.9767666  35.4925156  51.4467239
  13.7006407  36.5369453  51.9786530  13.2245026  34.5255127  52.1022873
  12.3551559  34.2037926  51.7012520  13.7004414  33.7748756  53.0796776
  14.7793722  34.0798225  53.6873932  14.8829155  33.6638107  54.6018944
  15.3152981  34.8997879  53.4413490  13.0143538  32.7864113  53.5614891
  13.5022831  32.1298218  54.1538734  12.1676807  32.5798340  53.0510178
  15.9464722  32.9701309  48.3419075  15.9658060  32.9772377  47.1298943
  16.1298466  31.8698788  49.0215683  16.2326622  31.9410305  50.0238037
  16.3899097  30.5295658  48.4502831  16.4228592  30.5169945  47.3608551
  17.7447109  30.0009823  49.0861053  17.5607204  29.8111515  50.1435585
  18.0483990  29.0534286  48.6411095  18.8375721  30.9664574  48.8024406
  19.2903290  31.3895454  47.5234833  20.0183868  32.5021591  47.7702522
  20.5253353  33.1781464  47.0976105  20.2482243  32.6139183  49.0629616
  20.8640804  33.3248329  49.4309540  19.5118752  31.7111950  49.7500000
  19.2891273  31.6160336  50.8024864  15.1231871  29.7018871  48.8442078
  14.9137754  29.2507267  49.9464188  14.3417940  29.3985157  47.8531570
  14.8112726  29.6408234  46.9923515  13.1332331  28.5060215  47.8952789
  12.7697096  28.5875645  48.9196320  12.0114965  29.1171474  47.0456352
  12.2465649  29.0236835  45.9853973  10.6599483  28.4101295  47.2363739
   9.9693613  29.0442200  46.6803970  10.7169352  27.3758106  46.8972015
  10.2652254  28.3834915  48.2520447  11.9704256  30.5908642  47.3788185
  11.7482815  30.8344936  48.4177513  12.8507652  31.1159153  47.0081100
  11.1334467  30.9710312  46.7931213  13.4070826  27.0088043  47.5966301
  13.9444485  26.7033615  46.5100784  12.9014082  26.1242256  48.4631805
  12.4721355  26.4594212  49.3137512  12.9628010  24.6446095  48.2704086
  13.2616224  24.4312229  47.2441177  13.7325706  23.9599571  49.3503075
  13.2786551  24.3375511  50.2665405  13.5463047  22.8898125  49.2597733
  15.2542048  24.1425171  49.2444344  15.7632713  25.4392242  49.3182259
  15.0309639  26.2261715  49.4223480  17.1711254  25.6685123  49.1296883
  17.5865269  26.6654034  49.1227684  18.0415707  24.6301060  48.9403572
  19.3034725  24.9434528  48.5913277  19.8688774  24.2381935  48.9146347
  17.5317001  23.3275814  49.0265427  18.1338005  22.4329224  48.9677200
  16.1785774  23.0973053  49.1024323  15.8237009  22.0894566  49.2596092
  11.5823431  24.1013069  48.2952423  10.6034327  24.7638721  48.7442055
  11.3643160  22.7798901  47.9663582  12.1406851  22.1633148  47.7735252
  10.0830717  22.1510296  47.8156700   9.4909201  22.5343094  48.6466637
   9.5392694  22.4335136  46.4399223  10.3081827  22.1409416  45.7248955
   8.6904402  21.7785034  46.2435760   8.9890842  23.8083534  46.1244240
   9.6797476  24.6293297  46.3169937   8.6603107  23.9369354  44.6383247
   8.3633776  24.9537086  44.3812370   9.3749456  23.5273628  43.9244308
   7.8181148  23.2571030  44.5093498   7.7663593  24.1751575  46.9358749
   8.0966043  24.2695389  47.9703445   7.2822571  25.0896816  46.5932541
   6.9178963  23.5020409  46.8128967  10.1251888  20.5592670  47.9687271
  11.1647797  19.9333725  47.9132004   8.9748526  19.9125881  48.2436943
   8.1009932  20.3864803  48.0650978   8.8632078  18.5052471  48.5922737
   7.8823128  18.3433132  49.0391769   9.0932636  17.6128654  47.3069801
  10.0727882  17.7609463  46.8523331   8.9386978  16.5616798  47.5503349
   8.1135006  17.9075813  46.1778107   8.4119568  18.7747498  45.5887070
   8.2219257  17.1826611  45.3710632   6.6185584  17.8112202  46.5699005
   6.3301015  16.8263092  47.3049202   5.8474884  18.7505112  46.0978584
   9.6469154  18.0641613  49.8671570   9.8389673  18.9287510  50.7596359
  10.2803230  16.8966236  49.9842720  10.1127453  16.1886673  49.2836914
  10.8321428  16.4313087  51.2324677  10.1317692  16.4511795  52.0674400
  11.1231356  14.9711332  51.0824203  11.9292431  14.7978058  50.3695030
  11.5010290  14.6252794  52.0445404   9.9283323  14.0579729  50.8216629
   9.3369694  13.9484491  51.7307243   9.3541574  14.4824753  49.9981232
  10.5138693  12.6631107  50.5182648  11.3011112  12.7976570  49.7764778
  10.8718204  12.1271534  51.3973083   9.5516472  11.7581844  49.7939262
   8.7324200  11.4893074  50.4607658   9.1905155  12.2771730  48.9060440
  10.2433081  10.5699244  49.2994881  10.8494987  10.7633610  48.5151291
  10.6477222  10.0655880  50.0755005   9.5995274   9.9274817  48.8602676
  12.1332855  17.2743073  51.4903717  12.6360445  17.1915245  52.6036224
  12.7788897  17.9020805  50.4556580  12.4021425  17.8732147  49.5190010
  13.9815760  18.7561817  50.5061150  14.6627350  18.2821407  51.2127991
  14.5570650  18.8101559  49.0822906  15.3707075  19.5289364  48.9850845
  14.9195604  17.7973652  48.9063568  13.7798586  19.0539970  48.3580055
  13.7200165  20.1284199  51.1533356  14.6447525  20.8808651  51.2312965
  12.4550371  20.4595051  51.5372849  11.7095089  19.9028454  51.1443253
  12.0929317  21.7573910  52.1569901  12.4847755  22.4497776  51.4118996
  10.5681934  21.9316177  52.2383842  10.0835619  21.6267509  51.3108673
   9.9261980  20.9867630  53.3264999   8.8453617  20.8896179  53.2242470
  10.2195826  19.9402924  53.2432976  10.1896343  21.3792229  54.3086777
  10.1621294  23.4141273  52.5142708  10.4520445  23.7018623  53.5248451
  10.5491152  24.0523071  51.7198715   9.0801802  23.5459194  52.5032082
  12.8976088  22.0007324  53.4212074  13.1640244  23.1171837  53.7634277
  13.2652702  20.9852753  54.2234917  12.8990898  20.1048012  53.8906593
  14.2546072  21.0437202  55.2481232  13.9284430  21.7858028  55.9768410
  14.3811111  19.7330074  56.0882912  14.6756134  20.0785465  57.0792427
  13.0935936  19.0068398  56.1260223  13.1405144  18.2848492  56.9412689
  12.2857227  19.7084751  56.3337517  12.9889393  18.4475346  55.1963310
  15.3596973  18.7065010  55.5051193  14.9632492  18.4149837  54.5325203
  16.3647213  19.1242352  55.4457245  15.3355703  17.7988720  56.1082191
  15.6156378  21.6114388  54.8793564  16.3919106  22.0234032  55.7497864
  16.0261593  21.6503315  53.6112022  15.3987370  21.3768883  52.8684540
  17.4025459  21.9498558  53.1222878  17.9971294  21.5290909  53.9331703
  17.7252808  21.1351719  51.8814316  17.1246014  21.6451054  51.1282692
  18.7466068  21.4759197  51.7114868  17.7175980  19.6154327  51.7747688
  16.6751785  19.3040924  51.8421478  18.2040806  19.1465740  50.4154091
  17.5854149  19.5380402  49.6078758  19.2035694  19.5674725  50.3060036
  18.1802578  18.0668755  50.2678146  18.5642910  18.8761444  52.8404388
  18.5218353  17.8110981  52.6124535  19.5891151  19.2463360  52.8685989
  18.1042156  18.9888668  53.8221359  17.7614040  23.4371986  53.2711372
  18.9565125  23.7969189  53.4380302  16.6372471  24.2101707  53.1560707
  15.7829227  23.7314529  52.9089699  16.7277851  25.6886063  53.0990486
  17.0002041  25.7791500  52.0475311  15.2963114  26.1534023  53.1865044
  15.2180786  27.1437187  52.7378922  14.6317606  25.6345196  52.4956741
  14.6374626  26.0680923  54.5687675  14.7536201  25.1370335  55.1235085
  15.0346937  26.8538780  55.2113037  13.0315065  26.2938423  54.4976997
  13.0225353  27.2854500  54.0452271  12.5460043  25.6001205  53.8113060
  12.3754177  26.2223530  55.7495461  12.0935936  27.1562328  56.0113564
  11.9204397  25.2734451  56.4946632  11.9535151  24.0468121  56.1093330
  12.4120045  23.8972301  55.2219124  11.3401709  23.3878574  56.5672493
  11.3735294  25.4221840  57.6647530  10.9157495  24.6295300  58.0916443
  11.2404318  26.3674469  57.9946976  17.6141376  26.3928032  54.0452690
  17.5311298  26.1433105  55.2728386  18.2872238  27.4507198  53.6003342
  18.4363098  27.8933773  52.2279663  17.6091843  28.5523605  51.9639549
  18.5121651  27.0747280  51.5123100  19.6150017  28.7818546  52.1773796
  19.4117718  29.6552162  51.5576744  20.4828472  28.2045670  51.8584938
  19.8004436  29.2722683  53.6254082  19.3207798  30.2427597  53.7525673
  20.8688259  29.4609566  53.7305679  19.2051601  28.2306499  54.4797096
  20.0300465  27.5985928  54.8085938  18.5999336  28.8365707  55.7716331
  19.3649616  29.2701416  56.6561966  17.2251015  28.9987869  55.7434540
  16.6879311  28.8582382  54.8997765  16.6297016  29.7218685  56.9185638
  17.1020622  30.6799812  57.1353455  15.1694050  29.9628372  56.5295601
  14.6963434  29.0031261  56.3215485  14.6066437  30.3757610  57.3667564
  14.8835917  30.8273354  55.3669930  14.7034569  32.0085106  55.4892349
  14.7263927  30.2832088  54.2339096  16.7692566  28.8236027  58.1874199
  16.7162895  29.3019657  59.2885323  16.8113251  27.4986248  58.0418282
  17.0035248  27.0931377  57.1369858  17.1029739  26.5871296  59.1625328
  16.4685040  26.8433800  60.0109901  16.6222401  25.1729679  58.8090477
  16.9402428  24.9518929  57.7901764  17.0564594  24.4273491  59.4750862
  15.0787449  24.7993507  58.8148804  14.6046801  25.5829239  58.2237968
  14.8115654  23.4262753  58.0251312  15.4678755  22.7353077  58.5542068
  13.7516155  23.1730137  58.0467644  15.2076120  23.5353737  57.0155067
  14.5109568  24.7211781  60.1247292  15.1153469  24.1279545  60.8109474
  14.4166403  25.7254696  60.5377693  13.5108452  24.2877617  60.1304321
  18.5377502  26.8137474  59.7142677  18.6661415  26.8453026  60.9319534
  19.4833603  27.2181301  58.9075546  19.3258286  27.0792198  57.9196320
  20.7758007  27.5468636  59.3561592  21.1490993  26.7515221  60.0012894
  21.7923717  27.6113663  58.2886734  21.6880856  26.7076244  57.6882782
  21.6274090  28.3542137  57.5082436  23.0777931  27.6763725  58.8424721
  23.4358196  26.7920837  58.7354698  20.7200966  28.8722076  60.1864471
  21.1964512  28.9084282  61.3309250  20.0975094  29.8966866  59.6530304
  19.8437843  29.7463589  58.6870461  19.9885101  31.1253490  60.3737984
  21.0517178  31.3282509  60.5023499  19.3451729  32.1130028  59.4508095
  19.9479599  32.3040924  58.5629845  18.4005051  31.7540531  59.0423279
  18.9846420  33.5286446  60.2096939  18.4050598  33.3279228  61.1107483
  20.2711296  34.2070580  60.4849281  20.7543335  34.6773529  59.6285172
  20.0418739  35.1005096  61.0656891  20.9962540  33.5758018  60.9985504
  18.1228275  34.3991356  59.3292809  17.9678497  35.2955055  59.9297829
  18.6824875  34.5839882  58.4123764  17.1836147  33.8916855  59.1091080
  19.1793461  30.8216724  61.6114578  19.3923988  31.3699360  62.6721153
  18.1781578  29.8647213  61.6300888  17.9255352  29.5952129  60.6900635
  17.3542137  29.5804672  62.7746124  16.9724617  30.5087643  63.1996269
  16.1181202  28.7362900  62.4326324  16.3420315  27.7430363  62.0435143
  15.2548294  28.4592228  63.6963234  15.5246019  27.5933380  64.3009415
  15.3386393  29.4212265  64.2019043  14.2297230  28.2063007  63.4255981
  15.3468761  29.5165691  61.5264130  15.8204727  29.5805817  60.6938210
  18.2498913  28.9659882  63.8776360  18.1906471  29.3806438  65.0185776
  19.0720100  27.9503269  63.4926796  19.0565701  27.6713142  62.5221062
  19.9860916  27.2902317  64.5130234  19.4578419  26.9059048  65.3855743
  20.6979141  26.1398296  63.7958145  19.9160480  25.5795040  63.2831573
  21.2703304  26.6411972  63.0153847  21.4032688  25.1635475  64.6679535
  21.9298573  25.5955601  65.5189362  20.6215458  24.5622940  65.1321869
  22.4257736  24.2337914  64.0054932  22.0325394  23.6993122  63.1407356
  23.2840576  24.8239174  63.6842422  22.9448395  23.1937790  65.0098190
  23.2935162  23.7023106  65.9086685  22.1054821  22.5425224  65.2536316
  23.9254589  22.2945213  64.4376602  23.4907150  21.8693085  63.6312523
  24.7320900  22.8177910  64.1284103  24.1817818  21.5779572  65.1016846
  20.9979553  28.2832699  65.0848083  21.3290958  28.1704712  66.2715378
  21.6015110  29.1723862  64.2613831  21.3719311  29.1129322  63.2796211
  22.6189976  30.1847458  64.7037582  23.2821846  29.7299232  65.4395676
  23.5287724  30.4283180  63.5048599  23.0284672  30.9173698  62.6690216
  24.2979679  31.1676102  63.7282104  24.2419071  29.2028790  63.0525436
  25.1218376  28.7310162  63.7782898  23.7949581  28.6173134  61.9806633
  23.0885696  28.9758415  61.3541069  24.2684021  27.7485409  61.7777138
  21.9607296  31.3799686  65.4344330  22.6325989  31.9599876  66.2388687
  20.7029362  31.7165394  65.2502975  20.2870846  31.2758560  64.4422379
  20.0357704  32.8367462  65.9658585  20.7341480  33.6734772  65.9819183
  18.7959156  33.3901596  65.3201828  18.0635948  32.5837555  65.2812576
  18.1715870  34.5313301  66.1133041  18.8577309  35.3698311  66.2325439
  17.3578243  34.8788376  65.4768066  17.8676796  34.1951942  67.1046448
  18.9222164  33.7858849  64.0550919  19.1192646  33.0910950  63.4226036
  19.7983036  32.4106102  67.4478073  19.9341145  33.2300682  68.3313980
  19.6292839  31.1071758  67.6844177  19.6258221  30.6345139  66.7918472
  19.5952034  30.4485283  69.0121231  19.0148392  31.1211834  69.6436386
  18.8674622  29.0734348  68.8700256  17.9238987  29.1832066  68.3354797
  19.5534363  28.4110126  68.3420715  18.6709690  28.3177986  70.2229004
  18.0234852  27.4500561  70.0968475  19.6252728  28.0071735  70.6482391
  17.8870449  29.1118965  71.2037430  17.1478596  30.0077972  70.7362823
  17.9548950  29.0212841  72.4317780  20.9486332  30.3058243  69.7249832
  21.0318031  29.9693890  70.9124527  22.0835171  30.4846745  68.9727325
  21.9495602  30.8743877  68.0506287  23.3838844  30.2739677  69.5485687
  23.4935169  29.2289410  69.8384018  24.4438610  30.5172596  68.4278870
  24.2464085  29.9318199  67.5299072  24.3774567  31.5807247  68.1982498
  25.9371834  30.2846642  68.8414459  26.2424164  30.9744110  69.6283264
  26.1748829  28.7930908  69.3075867  25.8286381  28.5994015  70.3228226
  25.5752487  28.0884113  68.7314224  27.2555580  28.6522942  69.2871552
  26.7045212  30.5140591  67.5533218  26.5963230  29.6274090  66.9286194
  26.2998104  31.3484898  66.9805756  27.7747593  30.5927658  67.7443466
  23.6667404  31.0572681  70.8786621  23.3164368  32.2482185  71.0021591
  24.2019329  30.4262486  71.8410950  22.9148540  18.5046406  27.2512436
  22.5244713  17.5535698  27.6070442  23.9534473  18.3840828  26.9507160
  22.4118156  19.7648468  27.3417377  23.2215939  20.9797974  27.0026016
  22.7026653  22.0852451  27.0499268  24.4397182  20.8789501  26.8309860
  21.1092758  19.9272537  27.8154659  19.9887943  19.7167168  26.9798298
  19.0793114  20.0660496  27.4838200  19.8613567  18.2150421  26.4764290
  20.2147217  17.4245892  27.1350994  19.1614380  17.8845997  25.3496876
  18.5945683  18.9703140  24.5716801  17.7937832  18.6331444  23.9163494
  19.0459957  20.2261124  24.6230679  18.5906372  21.0706005  24.1102200
  20.1206989  20.5836926  25.6907864  21.0868320  20.3754082  25.2149773
  20.0665169  21.9416943  26.0574169  20.8659973  22.0970612  26.5897884
  18.9808350  16.4247742  25.0234852  19.0982246  15.5461235  25.8412838
  18.3485031  16.0858555  24.0032253  44.5800133  20.7156773  37.5377426
  44.9750481  19.9958153  36.8241043  45.0522346  21.6630287  37.7888527
  43.4013405  20.3968334  38.0267563  42.6648712  21.3042259  38.9915581
  43.1410446  22.4291821  39.1463509  41.6546707  21.0256386  39.6013069
  42.7353287  19.2208939  37.7421684  41.9198036  19.2034111  36.6239166
  41.5114250  18.1891403  36.5362968  42.7375069  19.4918098  35.3769188
  43.5590630  18.8010731  35.1995697  42.6663704  20.6977921  34.7164803
  41.6506081  21.6942196  35.1843262  41.8115692  22.6888237  34.7729263
  40.7776756  21.4296589  36.2110558  40.1219330  22.2216167  36.5664902
  40.6142578  20.0313911  36.7914429  40.4145546  20.0297966  37.8700104
  39.4575195  19.4876347  36.1881905  38.8029213  19.2880898  36.8798637
  43.6528282  21.1282234  33.7381897  44.7879143  20.5972481  33.5957375
  43.4346924  22.1287041  33.0753899  21.7278633  21.7453232  52.3099174
  21.0057850  22.4933987  52.6300926  22.0131550  21.0310116  53.0792656
  21.9149971  21.4287224  50.9923935  21.3872566  22.3036671  49.8475685
  21.0846729  23.4547749  49.9986534  21.3544998  21.8417263  48.7152748
  22.5426483  20.2642975  50.5501289  23.5575676  19.6157856  51.3388596
  24.0096569  18.9274178  50.6143227  23.0591011  18.7460155  52.5386200
  22.0627346  18.3250828  52.4220123  23.8423748  18.2943897  53.5928612
  25.1269493  18.9845772  53.6728554  25.7699223  18.6596642  54.4885864
  25.5306835  20.0358124  52.8921432  26.4779339  20.5112743  53.1374588
  24.7200298  20.5823765  51.7967796  24.3151646  21.5277748  52.1782150
  25.5166435  20.8897972  50.6628189  25.1914177  20.2938042  49.9658623
  23.4375973  17.3007984  54.6277924  24.2764015  17.0597324  55.5365219
  22.3508396  16.8074646  54.5262527   6.1998124  51.5721855  20.6256618
  42.3520622  64.5318985  79.2061157  29.3279724  17.2281475  84.0322495
  58.2170792  11.4521189  43.5239639  21.9270039  39.2326469   4.7809944
  24.5564098  31.0504913  83.2316284  72.8317261  33.0713043  38.7557297
  73.3372040  60.9228516  16.9677048  63.5273857  44.5073853  56.8404846
  15.4368486  52.1559830  76.7450638  15.3112001  53.0747108  76.5076065
  16.1772690  51.8694992  76.2103348  13.3587637  61.1084328  70.6343842
  13.8967590  61.0012741  69.8499680  12.4926643  61.3423996  70.3006744
  58.5304298  29.0191345  85.1765366  58.1739082  28.1581421  84.9578705
  57.9448929  29.3555832  85.8549042  50.4608383  55.6820526  50.5120773
  50.8274269  56.3980255  51.0309486  49.6750298  56.0542526  50.1118240
  82.0006332  15.9939671  58.7499619  82.7610474  15.4451456  58.5581245
  81.3022003  15.6354055  58.2023697  41.1997566   3.9673262  39.5894890
  41.5683632   3.5204163  38.8274956  41.0655060   3.2718453  40.2333145
  63.2138023  49.0719948  45.2094345  63.8249245  49.7298698  44.8778305
  62.5029144  49.5805473  45.5996208   4.5404878  63.2761917  40.6385841
   4.4299188  63.3739853  39.6928329   5.4301577  63.5855255  40.8089676
  81.2307892  17.0032444  33.5804367  82.1809692  17.0495892  33.6864204
  80.9252319  16.5389042  34.3597031  22.3074169  20.9363899  10.6066713
  23.0298328  20.3300648  10.4432240  21.5569515  20.5395603  10.1644497
  61.2201271  57.6886597  88.7565613  60.5646629  58.0759964  89.3367081
  61.2929153  56.7804565  89.0499878  78.8150711  63.6494789  63.7933617
  78.4535141  63.9527969  62.9605904  79.7575302  63.5888519  63.6374016
  47.4624367  65.8852539  33.5572243  47.1207924  65.6157761  34.4098015
  47.7628517  66.7839279  33.6927490  50.0624275  46.1820374  46.0897179
  50.7978592  45.6584587  45.7715378  49.2886772  45.7599831  45.7163353
  80.2333298  67.8100891  35.1249199  80.9067612  67.8932877  34.4497871
  79.5716553  67.2393723  34.7341614  63.6950951  16.1214733  37.1933708
  63.8707085  16.2561512  38.1246338  64.1322403  16.8538132  36.7588425
  46.2179871  33.6931572  12.1013193  46.5992203  34.2925720  12.7428780
  45.9323387  32.9395714  12.6177931  75.2015076  13.1986837  28.6641140
  74.7633514  13.9944639  28.9657555  76.0223770  13.1761303  29.1559410
  63.0090027  65.7870331  68.5893631  63.3154602  65.3550797  67.7920380
  63.3192673  66.6888504  68.5075912  23.2166615  42.7486115  19.2328968
  23.7343769  43.2680969  19.8479900  23.8639565  42.3547630  18.6479816
  14.0986567  40.9655533  66.3147736  13.9521713  41.4359856  67.1354294
  14.8930092  41.3578186  65.9523392  74.0050964  28.9513798  31.1835690
  74.3506088  28.1224136  30.8524075  73.8214264  29.4654865  30.3973179
  78.9316025  25.9361115  30.0845642  79.4535904  26.7093372  30.2987671
  79.5777969  25.2539120  29.9021587  20.3367500  61.5002785  12.2793932
  19.8996296  60.6712837  12.0846424  20.2315636  62.0195694  11.4822092
  40.8914642  56.4210091  54.5063553  40.5201416  55.9575691  55.2570724
  41.5648880  55.8301430  54.1693001  50.0425720  32.9796295  74.3149033
  50.3657532  32.2428398  74.8334885  49.1139107  32.7896919  74.1816940
  46.7481918  70.3956757  12.3426533  46.1127319  70.9620209  11.9048338
  47.4148598  70.2246323  11.6774263  72.3983994   6.1896157  51.6803017
  72.2788620   5.2407899  51.7212105  73.2216568   6.3070903  51.2063065
  15.6851282  24.9926262  82.4350891  15.6219749  25.6504650  81.7426376
  15.1953135  25.3675537  83.1670303  53.1570892   6.3945150  16.8169651
  53.6573105   5.9200191  16.1529884  53.5446701   7.2696567  16.8288403
  74.7394409  69.0570221  75.5517273  74.1534653  68.8042603  76.2651520
  74.1748886  69.0934525  74.7795944  53.0910873  68.2408600  76.7324219
  53.6330910  68.4318466  77.4979248  53.0077705  67.2872925  76.7298279
  19.5865345  60.9332619  43.3226776  19.5432205  60.0954018  43.7834892
  20.4845600  60.9800606  42.9946632  56.0568085  57.5281601  26.3029613
  55.1958466  57.9261131  26.4318447  56.5247765  57.6998405  27.1201286
  70.8878632  11.2565708  23.9494324  70.9325027  10.4327269  24.4347363
  71.2707901  11.9041939  24.5411949  84.9221878  50.7427979  50.2857246
  85.6722870  50.4638481  50.8108711  84.7354050  49.9946861  49.7185669
  39.2761688  19.3778400   6.2442908  39.9480362  18.9281197   5.7318635
  38.4494171  19.0160027   5.9252591  60.6156120  56.7216530  30.3032455
  60.5425301  55.9170456  29.7899303  59.7386475  56.8573189  30.6620750
  18.5832863  52.1814232  56.9087372  18.5739613  52.3193398  57.8559036
  18.5519028  51.2303925  56.8048592  65.5848618  51.8701210  39.8529434
  66.2264709  52.5787048  39.9026718  65.2790680  51.8871040  38.9460640
  80.4709244  14.2287226   4.0644493  80.3924103  15.1626959   3.8701236
  80.0327759  14.1220980   4.9087782  58.5734940  47.1410599  87.1420975
  58.6753693  47.7894020  87.8388824  58.2410355  46.3614960  87.5870514
  16.9812012  40.4834824  62.4849358  16.8776741  40.6995773  61.5582123
  16.4801235  39.6760788  62.6000328  70.1124268  41.9967461  84.5069275
  71.0354614  41.7532845  84.4363937  69.7087173  41.6366081  83.7172775
  72.1128235  59.9376183  77.6948624  72.2625275  60.2677078  76.8089447
  72.6783447  59.1683197  77.7625732   6.8324060  27.8944607  69.5643311
   7.0177875  28.4565907  70.3165741   6.6070304  27.0471096  69.9483032
  69.1156082  29.8452129  66.3104858  68.9203796  30.5809326  65.7301102
  68.3061600  29.3346977  66.3306274  33.5141258  53.4373055  43.6272659
  32.8361931  54.1130486  43.6299057  34.0280228  53.6105194  44.4160233
  56.7560883  23.6664600  36.7697220  56.9586296  24.5791798  36.9750328
  56.8348923  23.6120262  35.8173256  24.8124332  53.8696175  21.0833931
  25.5372963  54.1259575  20.5132217  25.1477947  53.9998970  21.9704056
  71.0948105   2.5902696   5.2472105  71.6526947   2.6356122   4.4707170
  70.6805573   3.4518557   5.2951498  62.8054008  19.5725288   6.0965757
  63.5480461  19.0292702   5.8327961  62.8969002  20.3716087   5.5776062
  38.2715569   7.0815339  34.6163063  38.7412224   6.2490468  34.5651932
  37.6199341   6.9470510  35.3044434  67.0183182  67.8041000  65.2406845
  66.3828964  67.1325150  64.9927979  67.6839066  67.7693024  64.5536575
  29.1122913   0.6798007  48.4126015  29.1677246   1.6343572  48.3680954
  30.0066032   0.3965621  48.6028938  81.5587006  15.6323986  67.5981522
  81.7620697  16.0921688  68.4127045  80.9678955  14.9271259  67.8622971
  84.7229691  25.1273308   3.9987154  84.8668442  24.2496166   4.3524818
  84.1545029  24.9899330   3.2409570  56.2021980   7.1844606  65.3602982
  55.4230270   7.7186308  65.2060699  56.2694244   6.6290822  64.5835953
  62.0554695  53.5570946  16.6088238  62.9590874  53.7784081  16.3835869
  62.0209961  52.6023140  16.5502281  83.3847427  18.4525585  35.9784737
  84.3096466  18.2082005  35.9455948  83.0141907  17.8960571  36.6634750
  27.8231106  37.3274460  88.8577576  28.4965096  37.3104591  89.5378113
  28.1844635  37.8950996  88.1770020  57.5887794  44.3450890  45.0502777
  57.4565887  43.4007111  44.9671326  57.4583969  44.5241127  45.9815025
  64.4607010  14.3819122  33.3025589  64.3826675  14.5136242  32.3576813
  64.9663925  13.5740042  33.3908157  59.5077209  35.0649719  23.3186073
  59.1671104  34.3368187  22.7989826  59.1090240  34.9506989  24.1812859
  18.5073757  47.8398933  71.1024323  17.8087521  48.4916191  71.0440750
  18.9419270  47.8776436  70.2503891  67.8823700  28.9293938  72.3655701
  68.0848236  28.6217995  71.4820328  68.6889343  28.7846184  72.8602676
  27.0626297  47.3319397  57.7381821  26.1445961  47.1682472  57.9541740
  27.0317764  47.8189354  56.9147034  36.5976028  60.7096481  68.3331299
  36.5995216  59.8413086  68.7358856  35.6813889  60.9851990  68.3623505
  25.9911480  64.4442291  17.9168110  25.7815990  63.8083382  18.6008892
  26.4459171  63.9339905  17.2466812   4.7419329  56.8000565  39.7823792
   5.6662354  56.9906960  39.9422340   4.6982880  55.8448029  39.7397842
  34.6635170  29.4214859  73.2614899  34.5946960  30.3248444  73.5704269
  34.3805580  29.4585972  72.3478241  48.0375328  11.0546684  63.3089027
  47.8749886  11.2027912  62.3773079  48.9776268  10.8830423  63.3636780
  30.4274502  57.0293045  38.2692375  30.7559948  56.9845924  39.1671753
  30.2869282  56.1159058  38.0198517  60.2852020  53.6166878  45.6429787
  61.1519127  53.2711220  45.4293633  59.7931252  53.5518913  44.8245087
  84.1040726  40.0199089  30.3713627  85.0315475  39.8000908  30.2836075
  84.0614471  40.5710411  31.1528149  23.9230747  32.6875000  76.2825317
  23.5870838  32.5922356  75.3913193  24.4335423  31.8917618  76.4323883
   7.0466208  20.8529091  30.1716042   7.7101774  20.7386322  30.8519478
   7.3107862  21.6491756  29.7107277  52.4652290   8.2798195  84.1745071
  52.6149483   7.9102483  85.0447006  52.2271156   9.1921349  84.3394775
  81.2739792  10.8949585  42.5787468  81.0627136  10.5163355  43.4321213
  81.2542343  11.8407402  42.7248306  32.7267723  70.6656952  56.0967293
  32.2905807  70.0800247  56.7155724  33.6230507  70.3338318  56.0439377
  26.0554790  30.8860302  76.1755524  26.2162533  30.5666161  75.2876511
  26.9016495  31.2282219  76.4638748  39.6521034  47.6951561   3.5949469
  39.2359428  47.6343803   4.4548001  40.1069870  48.5372581   3.6079981
  48.6645584  21.5809574  72.8477783  48.1212502  21.6317635  72.0613556
  49.5181236  21.9143219  72.5711517  71.5218277   7.3167872  17.4284210
  71.8062439   6.8908176  18.2370567  72.3121796   7.7355528  17.0875187
  41.0907822  51.4296875  21.1657238  41.4448967  52.0787582  21.7736263
  41.1937180  51.8292427  20.3020153  43.0992775  21.7761364  62.1620255
  43.8718033  22.3283730  62.2823029  42.6873169  22.1107750  61.3654480
  39.7826347  50.7987366  10.4866028  40.3409309  50.2342758   9.9518890
  39.8456383  51.6594467  10.0725441  67.6742554  50.3224220  34.9057503
  67.7509918  50.9369240  35.6356316  66.7426453  50.3267632  34.6859360
  53.2171478  51.2947655  47.7153511  52.3265495  51.6258392  47.8313637
  53.7749748  52.0651283  47.8230476  68.1684341  45.3778801  58.0984077
  68.6607742  45.3016472  58.9157372  67.7281036  44.5331955  58.0043678
  82.9331741  19.4744072  51.9642944  83.7619171  19.2295322  52.3759499
  83.1620712  19.6514797  51.0518875  43.3110619  58.1426773  18.7627754
  43.0956345  59.0404930  19.0152607  42.9243469  58.0390434  17.8933258
  11.9424734   5.6984754  16.2567043  12.5233288   6.2512560  16.7794590
  11.4651890   5.1758399  16.9011288  74.2016754  50.9667664  87.9492188
  73.8423843  50.3597069  88.5962219  75.1277618  50.7322769  87.8891296
  85.7942352  55.4910545  35.8163300  85.6278534  55.0684242  34.9737511
  86.1763763  56.3384209  35.5879326  84.0607300   9.8235302  79.7545013
  84.0067368   9.3355465  78.9328079  83.7459106   9.2101326  80.4184799
  64.8167572  53.7585640  16.7630711  65.3558197  52.9690285  16.7153454
  65.2558746  54.3836136  16.1862507   6.6442566  15.3955679  78.2111893
   6.2742219  14.6242638  78.6406021   6.3293266  15.3415518  77.3088913
  37.0138550  49.0181427  30.3475742  37.0192413  49.1436920  29.3986607
  37.2903786  48.1100464  30.4705982   4.7679386  39.0364838  36.9859352
   4.4311795  39.2333870  36.1118317   5.6118388  38.6133423  36.8277740
  43.1689377  30.5630512  16.7392006  42.6130333  31.3086166  16.9657726
  43.0500145  30.4535923  15.7957449   4.4899364  62.6095352  34.7303123
   5.4112749  62.3902245  34.5914955   4.0516763  61.7624321  34.8113899
  57.3812485  41.9717293  82.7067566  57.4327583  41.7596626  83.6387482
  56.4564209  41.8602982  82.4865265  84.9821777  12.1366348  28.7517166
  84.4859924  12.5862226  28.0676823  84.8432083  12.6670551  29.5363026
  12.2113791  22.7067566  87.5822830  12.7298756  21.9021568  87.5787659
  11.9531107  22.8292503  86.6687546  36.8608704  19.3233910  10.6801310
  35.9459763  19.0877628  10.5262413  37.0565109  18.9699802  11.5479202
  30.1442451  10.4364080  59.1714439  30.1717663  10.9557810  59.9750175
  29.5645390  10.9270859  58.5888557  29.3600349  43.7885628   5.5031538
  28.4410248  43.5528412   5.6299868  29.3366489  44.7060471   5.2312956
  10.7585993  58.1995850  53.0315132  11.5636625  58.3149490  52.5267410
  10.0610304  58.2129021  52.3761864  76.7513199  66.8493271  47.4162064
  77.6919327  66.8701096  47.5924263  76.3936157  66.2739410  48.0923843
  49.9266586  35.8917809  83.8131332  49.7396011  35.5588074  82.9354248
  50.8281136  35.6198578  83.9853821  78.6126480  66.6272736  64.3757553
  78.4693069  65.7320023  64.6826248  77.7326279  66.9735031  64.2277069
  76.8764038   5.9078140   5.0253878  76.9301529   6.3096662   5.8924847
  76.0191574   5.4821835   5.0113864  42.2354431  61.2019920  68.7121658
  41.8214302  61.9641533  68.3072815  42.6115952  61.5377502  69.5258026
  46.1047668   0.0079395   9.5002966  46.0671082  -0.0775309   8.5476646
  45.5064354   0.7278992   9.7000141   4.3519101  24.3163395  57.0582504
   4.8921041  24.1194382  57.8235283   3.4964454  24.5454311  57.4214706
  11.8143539  62.0065880  29.7602196  11.7692661  61.1358032  30.1551037
  10.9035215  62.2978325  29.7178898  54.9252930   8.7773542  16.7239838
  55.8659439   8.7836275  16.9010849  54.5295601   9.1352615  17.5186710
   9.8045177   8.4321527   1.9364786  10.0406961   9.0246649   1.2227691
   8.8505116   8.3694153   1.8899223  12.0151968  51.1638718   2.9081039
  12.6574669  50.7420769   3.4789002  12.5331974  51.5179405   2.1852329
  43.9817963  20.6535816  57.9593239  43.8720551  20.0241909  58.6721039
  43.2772713  21.2883148  58.0896835  56.8822823  18.2102375  68.8409805
  55.9267197  18.2413731  68.7945251  57.0681381  17.5563679  69.5148849
  64.5590591  13.7897348  85.4567184  63.9782181  14.4633789  85.8103638
  64.9934311  13.4203329  86.2255478  22.4174061  49.5062561   6.4358068
  23.2609806  49.3919373   5.9981465  22.6135769  50.0566177   7.1939940
  62.4782410  60.7276611  21.3159752  62.8533936  61.4660301  20.8360806
  62.7640152  59.9550934  20.8284264  35.3928909  16.8982258  63.3759880
  36.1084671  17.5336075  63.3541946  34.7303619  17.2634354  62.7895546
  82.9471054  63.5610619  59.2312355  82.8667831  63.6482277  60.1810684
  82.1089478  63.8733215  58.8903275  63.2966614  22.0270691   4.4729915
  63.5868568  21.6182556   3.6575840  63.9713402  22.6773968   4.6682158
  47.0092545  39.1951561  81.0836182  47.9621925  39.2842102  81.0690536
  46.6920090  40.0586967  81.3479843  84.8825912  11.1985073  67.7172852
  85.0715179  12.0460243  67.3144836  84.1129532  10.8765297  67.2480011
  78.2056808  36.1495056  58.3140640  79.1507797  36.2271042  58.1836815
  77.9891357  36.8555679  58.9230118  71.3759384  68.4256668  36.9083862
  70.4498672  68.5127792  37.1342926  71.7016678  69.3253555  36.8819046
   3.9070547   9.9779282  63.8522797   3.9248235  10.8994503  64.1105652
   4.3805232   9.5245218  64.5497589  35.7366524   0.4113220  66.1888504
  36.5753593   0.3301668  66.6429596  35.1031837   0.5852622  66.8850555
  45.2951164   6.9063401  81.6277008  45.1310883   6.8123045  82.5660400
  46.2128639   6.6571064  81.5188217   7.7231016  27.1885414   4.2588558
   7.8420558  27.1216087   5.2062740   7.4238024  28.0867538   4.1179070
  81.4046097  19.3488922  20.3184204  82.2645950  19.2378273  19.9130554
  81.5194855  20.0779438  20.9279423  11.2501354  54.6990242  21.4750996
  10.9802446  54.9528275  22.3576946  10.4487839  54.7540169  20.9544811
  43.8947182  49.1316414   3.3983586  43.6916428  48.2332420   3.1378367
  44.2676010  49.5305252   2.6121767  50.1316757  68.3379593  58.4229622
  50.3829842  68.1568222  57.5172768  49.4407921  68.9967194  58.3526421
  67.4209366  10.9095058  40.4032593  67.8864594  11.7433710  40.4679947
  67.4977417  10.6632500  39.4814720  37.6918983  65.5194016  24.8476467
  37.9296379  66.4349670  24.9941158  38.4866714  65.1190109  24.4951477
  73.5532379  28.4987621  47.4649010  74.2570038  29.1474152  47.4506531
  73.4838486  28.2006836  46.5579491  65.0382385  49.5440941   4.8180666
  65.9198074  49.6291809   4.4549756  64.6483765  50.4111023   4.7061009
   3.8021264  56.9597702  66.6089478   4.0240216  56.2617683  67.2252121
   3.1730821  57.5052109  67.0812073   2.9783285   8.6377325   4.9320412
   3.2059855   8.2049875   5.7549238   2.7099726   7.9246178   4.3526583
  74.3476715  53.1066284  22.2403908  74.6262894  54.0087624  22.0830421
  74.2376328  52.7339058  21.3656330  30.8354168  69.4199219  34.4822960
  29.9706268  69.8222122  34.5631332  30.6640186  68.4783325  34.4984741
  86.5505676  15.2620306  60.0320778  85.6057510  15.1107969  60.0582619
  86.7142410  15.6032085  59.1528511  54.9274101  27.3425007  80.8636856
  54.0771065  27.2866745  80.4276810  54.7201271  27.6073666  81.7598495
  54.2103043  34.6562233  43.4959717  54.9560547  34.1120758  43.2430000
  54.0905228  35.2557755  42.7594757  65.7086258  20.8001785  27.2713470
  65.3400497  21.5355892  26.7818985  64.9512405  20.3802128  27.6790714
  65.2495270   1.1850039  10.0283861  65.8127289   1.7707531  10.5342903
  65.8527069   0.7002664   9.4649706  71.3860550  54.8569679  70.5569000
  71.2343521  54.8947754  69.6125565  72.3046570  55.1046715  70.6620178
  76.4192734  30.7545719  57.6654892  76.8207855  29.8876381  57.7242012
  76.1145325  30.9380646  58.5541382  75.9005737  42.1514511   0.8848732
  75.8159409  41.6865997   1.7173296  76.4381714  42.9160995   1.0911119
  41.4282951  69.4628983  46.9630013  41.4889908  68.5503540  46.6804886
  41.8357048  69.4730911  47.8291130  52.7991714  41.7653618  55.5205193
  52.0448875  41.6314011  54.9466362  52.5386505  41.3732452  56.3539505
  80.1557617  14.3573761  79.7201614  80.4160538  13.4497309  79.8771973
  79.6834106  14.3305387  78.8880615  67.4189987  55.6758232  17.9158955
  67.9300766  55.0699043  17.3793392  67.5536957  56.5304451  17.5063782
  57.7021599  57.4897385  48.5261154  58.0852013  56.6506271  48.2703743
  57.8458023  57.5405121  49.4711113  35.3546982  43.6285172  46.2756729
  34.9554939  43.1319923  46.9900513  35.2845039  43.0519829  45.5148087
  57.6004524  17.3255806  40.0774117  57.0800476  17.7721119  39.4095650
  57.1059875  17.4479599  40.8878212  22.2389469  61.9039383  52.5494766
  21.8627758  62.7553024  52.7728806  22.9413719  61.7776337  53.1873474
  68.8021698  67.8585281  62.8777847  69.1897278  67.1316833  63.3653488
  69.2111282  67.8123093  62.0135803  84.3311081  57.7917671   0.0375971
  83.7936020  57.9123611   0.8203967  85.1676254  58.2026863   0.2558134
   5.3382015  41.4758186  37.9442863   4.8589077  41.4967194  38.7725792
   5.0920076  40.6409111  37.5461044   3.6086037  51.7089958  87.0307312
   3.1559176  52.5245705  87.2455521   2.9053483  51.0832596  86.8571854
  70.3041840  63.1900940  35.4438972  70.6557922  62.9423523  34.5887794
  70.2413940  64.1446152  35.4096451  41.0135994  53.4057312  36.6925201
  41.2359085  52.6235580  37.1975098  40.5720253  53.9782906  37.3197556
  35.0999489  18.8044949   0.4359258  35.8736420  19.3669777   0.4006668
  34.3675613  19.4111233   0.5447596   7.3657970  37.5549927  41.3449593
   7.1243539  36.9991875  40.6040039   6.5693502  38.0468292  41.5449600
  77.1787338  66.6341400  11.9111547  77.4715118  66.4636612  11.0159168
  77.0443649  65.7649231  12.2888279  71.4511490  25.1523018   1.6845856
  71.4461441  25.8322945   1.0109254  71.3946915  25.6329117   2.5104535
  15.7027645  70.9363556  33.6433640  16.4019775  70.5220413  34.1490097
  15.1803370  71.4036255  34.2952499  46.0838242  26.6540604  78.6280670
  46.6956978  26.6587582  77.8919830  46.0449600  27.5670280  78.9130478
  55.8168945  59.5038605  19.1439743  55.5551949  59.1609459  19.9984665
  56.5303993  58.9304466  18.8640785  43.3448105   9.9288025  12.1698256
  43.3417778  10.8389225  12.4663115  42.5348892   9.5595341  12.5218220
  74.2924118  37.5573502  88.1479416  75.1906662  37.7326813  87.8675308
  73.7992325  37.4715652  87.3320694  26.3561745   5.3372474  37.2909126
  25.7968388   5.2167807  36.5235367  27.2363281   5.1227331  36.9818077
  24.5913620   1.6207563  31.2804337  24.1747379   2.4659305  31.4487705
  23.9157200   1.1038394  30.8416443  29.4212055   5.3374128   9.9878445
  28.7605801   5.8181677   9.4891653  29.2406197   4.4165554   9.7990541
  13.5014601  51.4558487  78.5952225  13.9499788  51.8720932  77.8591537
  12.5790911  51.6796494  78.4712067  27.5471687  45.9252281   1.7769004
  27.1839771  45.0420494   1.7111734  27.4584732  46.2869110   0.8951124
  64.0048676  18.2169189  33.6936684  63.3198853  17.5492992  33.6574745
  63.6086006  18.9405899  34.1789551  55.9248924  26.9263058  77.2050247
  56.4223709  27.6911240  77.4945145  56.5420303  26.1981049  77.2764206
   6.3262177  54.3954811  67.7628860   6.3670669  53.4847908  68.0547791
   5.8543005  54.3593864  66.9308853   2.8488517   2.0796962   6.5797329
   2.5352712   1.7931626   5.7219462   3.7758951   2.2748876   6.4429030
  79.7787781  39.8813286  58.5134735  78.9493256  39.7509804  58.9730873
  80.4412689  39.5374603  59.1127129   6.8435898   8.5398064  82.7870026
   6.8008795   8.3586454  83.7259369   7.1932125   7.7354717  82.4035416
  35.1020660   9.5998688  81.5553284  36.0410194   9.7411013  81.4342880
  34.7402649   9.6227036  80.6694260  57.1936531  52.2873192  75.2997208
  57.1716499  53.2125549  75.0554276  56.2855949  51.9960899  75.2169800
  62.3476105  13.0280962  58.2654953  62.1107330  13.9020910  58.5757408
  63.2713013  13.1013670  58.0253716  51.8669701  37.8052101  56.8146286
  51.9840240  38.7374306  56.6316147  51.0381126  37.7568703  57.2909546
  53.2597122  21.9661713  61.6144333  52.4236183  22.0672340  61.1594963
  53.3239098  22.7411613  62.1725540  60.3158493  71.6217804  87.4247055
  59.5100174  71.1975708  87.7195129  60.2547836  71.6143875  86.4694824
  48.2406845  48.8508301  21.7617149  47.4469795  48.7162666  22.2795525
  48.6690903  47.9948959  21.7531986  77.8511810  60.2493286  64.7323074
  77.0424500  59.9778786  64.2981339  77.5596619  60.7990189  65.4596939
   3.9829881  32.2761345  28.8257751   4.0621758  32.0316849  27.9037094
   3.0451167  32.4155312  28.9569130  35.2744560  44.1041298  28.7063637
  35.7976036  43.3077927  28.7979755  34.8996353  44.2457924  29.5756588
  78.0706482  60.0406075   2.7006290  77.9141846  59.4844398   3.4637973
  77.3409195  59.8495407   2.1113715  16.3154812  19.6009674  72.0168381
  17.0692787  19.2590485  72.4975815  16.5606556  19.5164909  71.0954361
  78.8664932  24.1399899  86.3989563  79.5600357  24.3258228  85.7659607
  78.2731857  24.8880291  86.3306961  49.3247643  35.0543022  51.9927139
  49.3305550  34.6671715  51.1173134  48.7426224  35.8102913  51.9164352
  44.9217644  39.3784332  30.7316456  45.6494141  39.4478912  30.1136379
  44.5003166  38.5472870  30.5129871  40.4062500  67.6917648  39.9958153
  39.5394974  68.0827408  39.8857841  40.7233391  67.5570145  39.1027718
  68.1649399  51.5426064  52.8910217  67.9970093  52.3367043  52.3836327
  68.0352478  50.8280525  52.2674637  59.4180260  26.8422527  46.0611038
  58.9117622  27.2747345  45.3734322  58.7581863  26.4741745  46.6487770
  35.8558655  64.4674454  67.1182175  36.4241104  64.5164719  66.3495026
  35.6061783  65.3754349  67.2897949   9.4660845  70.9578476  41.8294411
  10.0096140  71.6703033  41.4929543   9.0597963  70.5780716  41.0503845
  82.6259613  16.0804653  49.1185570  82.2557144  16.8852749  48.7560310
  81.9051437  15.6846571  49.6084404  33.2956123  40.1876183  70.0094910
  33.1740379  41.1315346  70.1118393  32.4419594  39.8662567  69.7192612
  82.6793442  35.6780701   5.6174960  82.5404282  36.1043282   4.7717776
  82.7315063  36.3999863   6.2438717  45.7213135  14.8774710  11.2475557
  45.4448395  15.6735716  11.7014494  46.4823723  15.1469622  10.7333593
  49.2403526  52.0085335  42.9802551  50.0449257  52.0335617  42.4623108
  49.2680435  51.1613655  43.4249687  33.8556366  19.3246384  71.1292877
  34.5146713  18.7673340  71.5431900  34.3017311  19.6995506  70.3698959
  74.4213409   0.2391543  39.7127609  74.3810120   1.1217673  40.0809975
  73.8443451  -0.2804856  40.2724762  59.1399956  35.0444450  88.5303421
  58.9668465  35.8945732  88.1259460  58.3406410  34.8434792  89.0170441
  24.7446918  22.4405823  54.8254852  25.1722565  23.0618172  54.2360039
  23.8204517  22.4734268  54.5786438  12.2532701  43.1525459  84.6654434
  12.8915215  42.5513916  84.2814102  11.9460344  42.7043228  85.4534378
  26.8613224  67.5718307  43.4124870  26.4841671  67.6295700  42.5346184
  26.7890625  66.6458130  43.6437874  70.5738449  10.5808764   5.8708210
  70.0631332   9.7884455   6.0365319  70.5273438  10.7018375   4.9224339
  57.3738174   8.9021969  34.5550652  58.0687485   9.2537470  33.9985428
  57.8364677   8.4941835  35.2869911   4.4145694  40.0846291  73.0348892
   4.6600628  39.6574402  72.2142334   5.2017026  40.5587883  73.3028946
  83.0418777  20.7358742  71.9600525  82.2640839  21.1916466  72.2818222
  83.4749603  20.4138298  72.7505951  42.0996170  58.2464218  87.0976410
  42.1461716  58.6715813  86.2413101  41.1652298  58.2258301  87.3043442
  37.1913338  60.1996574  46.1752930  37.4312439  60.9817085  45.6782303
  37.5262756  60.3640251  47.0567856  53.5490875  32.3589706  65.6334610
  52.6766739  32.4027557  65.2420425  53.4226227  32.6566925  66.5343475
  54.2202950  45.7294693  27.2701073  54.9408951  46.0727043  26.7417545
  54.3023262  46.1817436  28.1097183  78.5189438  70.2021332  54.9449425
  78.6172409  70.4774323  54.0334702  78.4024887  71.0187378  55.4305611
  81.0599747   1.7848362  58.4349937  80.5043182   2.5637541  58.4073563
  81.2465210   1.6565822  59.3650398  68.6932297  22.6430397  38.1295433
  68.5385971  22.2625446  38.9941483  69.5026550  22.2307873  37.8277168
  69.1981277  39.6869164  59.2224770  69.3295212  39.6663628  58.2745628
  68.4669113  39.0885849  59.3759499  85.5726471  64.1106491  52.5464058
  85.3345337  63.9957733  53.4663696  85.0545578  63.4539185  52.0810928
  24.2824402  18.7951660   6.0192428  24.6569157  17.9206676   6.1253152
  25.0394535  19.3809490   6.0147471  40.2751465  37.2594337  20.9164352
  40.9099579  36.5953560  20.6476498  39.6559525  36.7874031  21.4732265
  13.7083931   9.7889051  18.4169674  14.0833931   9.6151352  19.2803402
  14.2141619  10.5287161  18.0806503  34.2756538  21.7842598  13.6988411
  35.1421280  21.8953438  13.3075428  34.4025612  21.1213474  14.3775702
  56.2978668  59.9094238   5.1017880  55.4412766  59.9837608   5.5224538
  56.5806236  60.8147354   4.9725866  29.1409740  46.6233406  78.7699203
  28.2671375  46.9653091  78.9588623  29.6675320  46.8802338  79.5268707
  21.9777603   0.1728848  45.1924782  22.0021152   1.1074989  45.3977470
  22.8107338   0.0024508  44.7527733  73.4945984  66.9539032  37.9433136
  73.1747284  67.7471237  37.5135345  72.7023697  66.5066910  38.2409935
  72.2650833  46.5213814  28.4659481  73.0389709  46.9995613  28.1681671
  72.3580856  46.4842377  29.4178944   7.2193065   4.6415043  48.2352066
   6.6614852   5.2508931  47.7517700   7.4199109   5.0973859  49.0526199
  43.6773262  64.8570557  42.0998955  42.7471771  64.9780426  42.2907295
  43.6914139  64.3699646  41.2760201  50.9050026  19.9967957  32.0174904
  51.8241310  20.2575455  32.0762367  50.9337997  19.0643311  31.8032227
  45.9429703  62.0581055  55.4510117  46.5808067  62.3377953  56.1076469
  45.6919708  61.1749954  55.7218361  63.6926308  50.2030296  49.7421188
  63.0770416  49.6024818  50.1623917  64.2492828  50.5138435  50.4561005
  64.6198654  47.2088242  36.4281387  65.3521423  46.7550545  36.8453941
  63.8684959  47.0177460  36.9895325  66.2161331   8.0942421  55.6759300
  65.3696518   8.3635502  56.0325394  66.2483749   7.1490202  55.8234024
  41.3104134  51.5937996  69.1825256  40.7699699  51.3370857  68.4353638
  41.1685562  52.5365601  69.2680511  81.6944351  37.0137367   3.4936352
  82.5445404  37.1197090   3.0666509  81.0606079  37.0481491   2.7771792
  66.5956268  36.3472672  78.3327103  67.5000992  36.3644943  78.6455383
  66.6223984  36.8128967  77.4968262  60.0610085  71.2727356  42.2106628
  60.2472534  70.3426743  42.0820885  59.2049561  71.4041595  41.8030701
   9.4353504   1.5082561   4.5830493  10.2064085   2.0743687   4.5481639
   8.7245398   2.0503321   4.2407999  29.4702091  14.9308815  84.5718155
  29.1627483  14.5083990  85.3738174  30.3389053  14.5576916  84.4223938
  39.2978897  63.0523453   8.9365425  39.3200264  63.8419533   8.3959322
  38.7283287  63.2808952   9.6711168  12.7194462  19.3341541   7.8616915
  12.8444576  19.0596581   8.7701273  13.5405426  19.7665195   7.6269760
  37.5980835  42.2314491  50.8845520  38.1778069  41.6529121  51.3799782
  38.1896706  42.8301735  50.4287148  73.0671539  31.0053825  88.7745895
  72.2841110  31.0780792  89.3202972  72.7540588  31.1640968  87.8840714
  83.2887268  24.2145061  79.8727417  83.2152328  24.0073071  80.8043518
  83.9098511  23.5705891  79.5324402  58.2533264  51.0493240  62.1878281
  59.0617714  51.0410767  62.7002563  57.9083557  50.1602707  62.2703781
  76.0042801  31.4186058  51.4750786  75.3264084  30.7499352  51.3770714
  76.6808777  30.9978142  52.0055313   4.1230865   9.9217672  12.1158552
   4.6791339  10.1800795  12.8509188   4.1317840  10.6795340  11.5310946
   1.2007946  63.9216728  60.9980736   1.4643984  64.6628647  60.4527473
   1.9560552  63.3337708  60.9845085  34.0101814  53.6263657  70.8259659
  34.0222664  53.2525482  71.7070694  33.3805847  53.0882416  70.3460999
  27.7271080   3.4556677  81.8741531  28.5869560   3.6865337  81.5225983
  27.3721256   2.8272700  81.2453995   3.3724689  46.5407066  12.8296623
   4.2525382  46.1680298  12.7765331   3.0169821  46.1994171  13.6502609
  65.4266891  38.9806061  76.0163498  65.6979141  39.8932762  76.1148529
  66.2214279  38.5227928  75.7424316  21.3944511   9.1704788  81.6764145
  22.0863152   9.6393652  81.2098312  20.5913334   9.4026899  81.2102509
  14.1318226  71.1444397  46.4479179  13.7478428  71.7528152  47.0793266
  13.4896088  70.4384613  46.3744965  30.2039890  10.0604849  17.6624966
  29.5836182  10.2364149  18.3699017  31.0101414  10.4977484  17.9366322
  46.9298859  20.4403191  84.0373688  46.8504410  20.0746574  84.9183960
  47.7335091  20.0539856  83.6892700  10.2029285  67.0007935  46.0554008
   9.9503775  66.7814178  45.1585579  11.1062098  66.6934357  46.1318512
  26.7912788  67.0812683  54.1449928  27.0872040  67.7980728  53.5838737
  26.1319923  66.6245880  53.6224861  63.7768517  54.6062698   7.7953305
  64.7101440  54.4098816   7.7139220  63.3983727  53.8156204   8.1798592
  38.8517494   3.8320391  84.7701569  38.7043953   4.7698746  84.8925705
  39.1256294   3.5181310  85.6319504  70.6435242  59.1863556  24.7991371
  71.0122757  59.7248650  24.0989494  69.7203979  59.4371758  24.8333111
   3.7827260  17.8284416  82.9872818   4.7316084  17.7236652  83.0571136
   3.5484493  18.3882141  83.7275543  76.0081558  44.3172417  36.1396904
  75.8430786  43.4055901  36.3802643  76.9611130  44.3788300  36.0740280
  72.0742111  52.1166496  38.0693626  71.5865555  51.3752899  38.4282646
  72.9801331  51.9585762  38.3349724  20.7207222  59.4156723  16.6429348
  21.0939064  60.2386742  16.9585896  20.2499027  59.6565971  15.8451138
  66.6634903  56.0175934  30.4468708  66.0592804  55.3640900  30.7991467
  66.8917770  55.6886635  29.5774326  79.1245956  30.5729733  67.0393982
  79.4483719  30.1295700  67.8234863  78.8924789  31.4516830  67.3397675
   8.7758093  62.4493446  82.6180954   8.5720167  61.5152054  82.6637421
   8.6402330  62.7679520  83.5104752  85.2420654  41.2505302  45.2629356
  84.7858734  40.7535248  45.9419823  85.1249542  40.7318573  44.4670143
   4.9240808  50.8246613   8.1195145   5.3240485  50.1344566   8.6485481
   4.3183904  51.2636070   8.7167540   7.6019797  51.5002327  18.3896065
   7.5497961  51.7183876  17.4590588   7.7119837  50.5495300  18.4069290
  34.2518044   1.9831237  17.1298485  35.0961952   2.4339309  17.1324425
  34.0325394   1.8905971  16.2027054  51.1467628  41.7972298  48.7045631
  51.8002472  42.1880112  48.1244965  51.1015320  40.8809128  48.4315338
  79.8531189  63.0529861  56.3756599  80.1877975  63.9255028  56.1684265
  80.6366730  62.5298347  56.5447388  40.8792458  54.3203087  69.8284683
  40.6094055  54.4151039  70.7419357  40.6554413  55.1586723  69.4243774
   0.7156492  24.4475155  52.7621689   0.1531308  24.9455128  52.1690369
   1.2380123  25.1120968  53.2112770  43.9660568  44.8032417  16.5745163
  43.2067108  44.7088242  17.1495914  44.0423050  45.7466049  16.4314137
  77.2667694   3.4482849  39.1201820  77.6380615   2.5668833  39.0813560
  76.8626709   3.5759757  38.2619133  38.8797493  47.9330978  20.0634232
  38.1805382  47.3069611  20.2512703  38.4254227  48.7059975  19.7280903
  72.8531952  34.5825500  43.6508980  73.2784500  33.9290466  44.2061653
  71.9211578  34.4974174  43.8516312  56.6935387   2.3574474  78.9716187
  55.9368591   2.9431677  78.9470901  56.8938065   2.2637453  79.9029312
  62.2787209   6.6613703  85.2746277  61.5857162   6.5102549  84.6318588
  61.8739662   6.4530907  86.1166611  64.6884613   5.1537910  23.8431416
  65.0664825   4.3497267  23.4870300  65.3795624   5.8083825  23.7425404
  62.8769722   5.8521485  50.9652176  63.3307991   6.0171885  51.7916756
  62.0695229   6.3621883  51.0293503  73.2979355   7.1565166  34.4019051
  72.6346817   7.0630670  35.0857086  72.8659897   6.8477621  33.6054649
  68.7829437  45.7940140  47.7761650  68.3905334  44.9819908  48.0968971
  69.0292511  45.6000977  46.8717537   4.9305935  39.4612007  63.5053253
   4.1809869  39.6153107  64.0802765   4.9660215  40.2364311  62.9449730
  52.7501106  62.6252747  52.6618919  52.4164009  61.9505348  53.2531624
  53.2109451  62.1384087  51.9786453  55.5194283   6.6551208  12.5216770
  56.3883286   7.0018697  12.7241707  55.3769684   6.8868680  11.6039457
  55.9562187  25.8883915  16.6229877  55.2458534  25.7006607  16.0094986
  55.5583153  26.4548130  17.2840996  20.7177811  67.2719727  64.2130890
  21.6380405  67.0736771  64.3863831  20.2559166  66.9672852  64.9941635
  43.4140587  31.1710072  88.2795029  42.4874802  31.0158329  88.4628143
  43.6458855  30.5025425  87.6348038  50.0478096  38.4133224  25.1465645
  49.6272087  38.8614006  25.8804245  49.3267212  37.9945412  24.6765785
  15.3641777  62.2230263  48.0434036  15.2162113  61.3349724  47.7182961
  15.9834852  62.1138153  48.7650414  80.6118240  64.6479416  15.8264313
  81.5292892  64.3819580  15.8876371  80.6065598  65.5591812  16.1194248
   3.1572130  27.5384827  73.5180054   2.6085606  26.7556190  73.4696655
   4.0451369  27.2189541  73.3576126  32.5426979   9.4190693  75.5473862
  32.7559891  10.2818012  75.1918182  32.5966873   9.5311480  76.4964676
  76.5940018  10.6777697  54.7582550  77.0530167  11.0394325  55.5163727
  76.5479355  11.4045362  54.1370316  50.4761887  13.2498198  82.3583069
  51.3626518  12.9165401  82.4973679  49.9224663  12.6935186  82.9061737
  81.2931061  57.6994286  15.9447155  80.9101715  58.4391556  15.4731245
  81.9767838  57.3711281  15.3607368  20.4335270  55.3641281  88.7189255
  20.0147591  55.0132980  89.5049210  21.2958050  55.6544800  89.0162582
  56.9464569  24.1249256  51.5811043  56.9129524  23.3261642  52.1074982
  57.3052139  24.7866096  52.1724625  40.3563766  66.3929520   2.9620218
  39.4628830  66.6756744   2.7671559  40.2486382  65.6559219   3.5631919
   3.8669024  33.2786331  52.6059418   3.2191758  33.2073288  53.3070793
   3.7768617  32.4631691  52.1128464  22.9266911  51.7112312  20.5696945
  23.5023232  52.4623108  20.7137680  23.3366394  50.9979477  21.0589790
  52.8994026  30.1077824  11.3633633  52.1809540  30.2743187  11.9735498
  52.8397255  29.1716290  11.1728745  18.1428242  36.8835526   3.1339221
  17.5823421  37.4926758   3.6146111  17.6599236  36.0571251   3.1411607
  58.5704460  17.4281349  12.7184019  58.5492592  16.5864868  12.2629766
  59.4179688  17.8061447  12.4837885  49.0374565  57.0047379  66.2725067
  48.2893410  57.1254921  66.8572922  49.6338348  56.4370346  66.7606506
  16.6889420  15.9222431  80.5213623  16.5687504  14.9889889  80.3458023
  16.8513260  16.3088570  79.6609039  18.5339603  46.0900612  10.3461418
  18.2190838  45.1897163  10.4265137  18.7318840  46.3556442  11.2442083
   9.5443401   0.1557938  12.8903017  10.0895939   0.9309700  12.7560196
   9.4095049  -0.1974466  12.0109425  52.0789070  49.5933418  51.2776756
  52.2549477  49.3163986  50.3784828  51.6275330  48.8479843  51.6738281
  38.8118858  55.7292900   8.3063774  39.0088692  56.0912132   9.1703453
  38.1831551  56.3433723   7.9271250  17.2962189  54.0401230  69.6154404
  16.9772835  54.4475555  68.8101425  18.1798630  54.3906212  69.7275009
  41.1194611   3.7249851  32.4516029  40.3472443   3.8359578  33.0062180
  40.8474503   4.0519409  31.5940800   5.9042411  70.2510757  57.5155792
   5.6837597  69.5895691  58.1713448   5.5905371  69.8832321  56.6894379
   3.7924850  65.6906662  52.6935997   3.9053893  65.1992340  53.5072212
   2.8646920  65.5909271  52.4803276  31.8018284  61.0662651  68.9686584
  32.4867744  60.4950256  69.3161697  32.2539635  61.8844185  68.7626572
  29.4281387  14.5495071   0.3487556  29.5864677  14.7174616  -0.5801983
  28.4745808  14.5259085   0.4287615  59.8171806  70.5319519  73.8497696
  60.3936043  70.5058517  74.6134949  60.3794556  70.8316727  73.1354523
  29.2387943  31.9088154  84.6007538  30.1664219  32.0171852  84.3909988
  28.8195534  32.6920357  84.2443314  53.6825638  16.5405312  37.8017616
  54.1718254  17.1344833  38.3710403  52.9563217  17.0693817  37.4714279
  63.3402519  47.9193039  51.6670303  63.1822586  47.0023918  51.4422073
  64.0036316  47.8860321  52.3562660  50.9423180  38.3097687   3.9566741
  50.7165680  37.4444656   3.6153266  50.2561073  38.5016022   4.5958495
   2.6798527  40.9172630  44.5968361   2.8916457  40.3343048  43.8677711
   2.2273774  41.6557922  44.1893234  12.4233828  13.5285416  83.2806854
  13.1125460  13.0169830  83.7044678  11.7564983  13.6396322  83.9582977
  24.1763096  64.0184402   1.3229332  23.8208580  64.8294144   1.6865438
  24.9686241  64.2906189   0.8599104  56.4543266  35.5012131   0.7623505
  56.2137184  36.3616753   1.1057740  55.9269676  34.8846130   1.2702181
  80.1578522  51.3120003  87.6634598  80.0517883  52.2500381  87.5051270
  80.3938675  51.2505188  88.5890656  39.9196014  48.3520889  12.2086096
  39.6827850  49.0633850  11.6134577  40.4107323  48.7800865  12.9099197
  42.5418892  34.6755714  87.6757507  42.3628998  35.4542046  87.1485596
  43.0395927  34.1014061  87.0936279  43.0460510  48.4335289  26.9488926
  43.6411934  49.0614014  27.3585434  43.2387848  48.4960709  26.0133858
  13.5340624   2.7842515  79.9815979  12.8222361   2.4896789  80.5497208
  13.1800604   3.5518782  79.5325241  68.3995209   9.8091536  61.9265862
  67.5366974  10.2232895  61.9430237  69.0110474  10.5346384  61.8003464
  15.9743519  19.6749229  13.4991579  15.6574574  18.7729092  13.4524679
  16.1436749  19.9167347  12.5886145  78.9557877  69.2558289  79.5082550
  79.1732330  69.1261215  78.5851517  79.4272614  70.0511932  79.7559204
  83.8167267  26.8173637  17.2996426  83.3960419  27.4543877  16.7221813
  83.3740616  25.9907589  17.1072750  54.9128876  60.0938644  23.5020027
  54.6077538  61.0010757  23.5116444  54.8528671  59.8112717  24.4145660
  35.1513290   9.9112806  11.5663872  35.3510895   9.1041842  11.0921268
  34.1950340   9.9423704  11.5940895  73.0597687   0.2657590   3.4852371
  73.8329163   0.8269313   3.4255409  72.4444962   0.6376857   2.8533077
  47.0641975  54.2003975   8.9061012  46.6646729  54.4556656   8.0745649
  47.9170799  54.6349335   8.9054251  62.6847801  20.3688354  41.4754677
  63.4693108  20.2554646  40.9389114  62.0671158  19.7208805  41.1365318
  53.5659904  59.0175667  51.1094475  54.2331467  59.6403542  51.3980103
  54.0593338  58.2352943  50.8626747  86.0702896  58.5068932  55.0230713
  86.0550613  57.8173676  55.6868134  85.8225403  58.0637436  54.2116127
   9.1872540   9.5195160  66.8021622   8.5014248   9.5490656  66.1350861
   8.9257908  10.1798487  67.4439011  43.4110146  70.8674927  20.0031319
  42.8858566  70.5067444  20.7174835  43.3698921  70.2023239  19.3160477
  56.7016678  26.2967968   1.7305681  57.1148415  25.6092911   1.2082118
  57.1137123  27.1066246   1.4295228  41.1446457  46.9942932  48.2146873
  41.5762177  46.1663551  48.4256248  41.2311325  47.0742645  47.2647629
  23.6495190   5.4092937   3.5524766  24.1431904   6.2124491   3.3867626
  24.2391281   4.7055535   3.2816565  80.8087616   8.5469685  29.2559814
  81.4409790   9.2655506  29.2428341  80.8213501   8.2333879  30.1602726
  64.1615067  40.0603142  84.9850159  63.4618263  40.7071037  85.0763168
  64.9060745  40.4461594  85.4465103  55.3460732  67.4329681  46.3682060
  55.4549141  67.4266891  45.4172325  54.9272003  68.2729568  46.5558014
  69.2213821   7.8358645   5.4406719  69.9718094   7.2451696   5.5052919
  68.7412415   7.7034259   6.2580781  37.7154961   1.8632076  14.4469004
  37.7035065   0.9246036  14.6342793  38.1271706   2.2558820  15.2166815
  25.4577179  53.1640167  80.6160660  25.8139229  52.3504105  80.9729843
  25.2045135  53.6728287  81.3862839  51.8149376  59.6646500  31.5330963
  51.2011566  59.4870758  30.8203773  52.4431496  60.2828598  31.1597347
   5.0385804  10.1159382  74.3909607   5.6118350  10.5975304  74.9873505
   4.5329313  10.7949305  73.9442902  34.4308586  57.7879562  31.5089054
  33.6174736  58.2125931  31.2362881  34.2374649  56.8513870  31.4680424
  66.7308960  51.5090294  74.0290604  66.7817154  50.9433708  73.2585526
  65.7939758  51.6600876  74.1539154  75.5828629   6.3838968  23.8644562
  75.9818268   7.1346130  24.3043270  74.7401428   6.2690492  24.3036137
  60.3738441  21.7196503  10.8542480  60.4891548  22.2795753  10.0865116
  59.7545509  21.0475445  10.5696745   1.4463446  22.9536972  72.1982803
   2.3034656  22.7859592  72.5899963   1.6340048  23.1237164  71.2751846
  51.5814323  29.4702454  77.1937256  52.2493172  29.2555771  76.5425110
  52.0601959  29.9244328  77.8870773  70.6348267  15.9635010  86.6056824
  70.5201340  16.7766075  86.1138077  69.7767029  15.7962761  86.9954300
  55.4570847  52.0223618   6.1962109  55.4332352  51.4975929   6.9963880
  54.5747604  52.3859711   6.1218619  75.5846786  58.8757057  10.4500904
  75.1863708  59.5673866   9.9217415  76.4511108  59.2148628  10.6748295
   1.4629302   0.4724527  43.5062408   1.8274482   0.6474320  42.6386337
   2.2195880   0.2279375  44.0390739  10.7259750  21.2942352  76.7968445
  11.2293549  22.0983696  76.9241486  10.7117128  21.1682625  75.8480759
  28.5124035  60.2513618  50.5790405  28.4340076  60.6271439  51.4558945
  28.5082493  59.3050232  50.7227707   5.9931364  49.4588928  61.4135704
   6.7199049  49.2086334  61.9840164   6.3998704  49.9825249  60.7232018
  20.1662159  19.4733963   9.0254116  20.0248833  18.6216850   9.4387436
  21.0150280  19.3907852   8.5907555  48.2037735  59.1608086  78.4213486
  47.6105118  58.4324455  78.2376175  47.7456398  59.6825180  79.0802612
  48.3956146   0.9272195  15.7130470  48.5226173   1.5788970  16.4025536
  48.3226357   0.0950955  16.1804600  38.2656555  45.8202019  26.5474834
  39.1571426  46.1649323  26.4961033  38.2124634  45.4222221  27.4164009
  75.1597977  59.9188843  47.6227417  75.7379379  59.2597237  48.0067978
  75.6570053  60.7349548  47.6779633  50.8599854  11.4734097  62.6385345
  50.8443909  12.1978331  63.2639923  50.7427254  11.8910923  61.7852898
  83.9751816  57.3555145  82.0082932  84.4455643  56.6756401  81.5258636
  83.1291885  57.4216690  81.5654144  51.0538788   9.6518812  25.3900700
  50.4835281   8.8944235  25.2589626  50.4606323  10.3559103  25.6520481
  61.0888290  27.0748653  79.5435181  61.4294739  26.2487202  79.8865585
  61.8517876  27.5080318  79.1607742  16.7588844  57.5907402  36.7334671
  16.8936443  57.8202400  35.8140068  15.9237041  57.9986382  36.9622154
  47.0269165  38.2303352  12.0757732  46.4908409  38.9771652  11.8091288
  47.0506325  37.6647873  11.3038759  48.8404198  19.7101364   3.3227842
  48.7623749  20.3944626   2.6580744  49.6217499  19.2184658   3.0697684
  84.9409790   8.2591772   0.2449323  85.3420715   9.1203423   0.1276847
  85.4606323   7.8446951   0.9336953  72.3113098  37.5247726  30.6457024
  71.8004837  38.2266655  30.2424145  71.8351898  37.3129692  31.4486237
  80.9058228  67.2933655  88.8429947  81.5622330  67.3778534  88.1514664
  80.0707245  67.2531052  88.3769150  83.4369659  34.6290474  60.9397011
  83.2609558  35.4191208  60.4287872  83.4137115  33.9189148  60.2982979
  12.4031773   3.5743895  52.8447571  12.3984671   2.6338687  53.0226059
  12.6606703   3.9739649  53.6755829  45.2486801  23.4692307   9.2673187
  45.8392067  22.9327927   8.7384119  45.1655998  22.9914646  10.0925875
  51.4521027  64.1819229  56.0251770  51.1940269  64.1222229  55.1053581
  51.6650276  63.2822342  56.2730751  11.0714064  45.7731628  22.4318657
  11.2292252  44.8548775  22.2125969  10.3966799  45.7448807  23.1102276
  40.3747177   9.2506857  88.0818405  39.4682846   9.5579777  88.0953217
  40.7876511   9.7534714  87.3797531   4.0247016  36.8535156   0.7629715
   4.2594385  37.5544968   1.3710488   3.1110773  37.0282745   0.5371774
  75.5665054  25.8591080  38.5983810  75.0571442  26.6005554  38.2712135
  76.4464569  26.2122688  38.7295113   4.2745705  25.6875954  15.7094717
   3.4110880  26.0971031  15.6553202   4.1861959  25.0330162  16.4022560
  40.4928360  59.5178108  27.8736267  41.4043655  59.3957672  27.6081944
  40.1590652  58.6295662  27.9995308  84.8179321  37.1865692  45.8463211
  84.5204010  37.9379425  46.3592987  85.6332932  37.4812775  45.4406586
  57.4802475  12.0593863  15.4437523  57.8466225  12.8861599  15.1299896
  57.0078850  11.7054405  14.6902075   7.6554470  68.7105408  68.7406540
   7.3668227  67.7996750  68.6836929   8.5243196  68.7120361  68.3390427
  44.1371574  30.9988708  59.7790451  43.5761833  31.3228893  59.0743790
  43.7280846  31.3257084  60.5803337  73.2915421  53.0239029   2.0984015
  72.5867767  53.5432358   1.7113239  74.0375290  53.1592827   1.5140928
  47.7281418  14.8495293  65.7297058  47.5846596  13.9276028  65.9434662
  48.6752968  14.9675226  65.8018494   7.1225219  11.6114721  75.8819199
   7.0066533  12.5241690  76.1460953   7.9151244  11.6162367  75.3452682
   3.4664266  48.6674652  46.1402321   3.6459177  48.1765289  45.3383636
   2.5239837  48.5688629  46.2755547  68.8946457  36.8608246  22.5580711
  69.7652435  37.0344353  22.2000923  68.3386536  36.7409210  21.7881851
  31.5837021   6.4759488   8.5021544  30.7543240   6.2575288   8.9271898
  31.5514793   7.4257693   8.3879852  21.2441578  61.5247574  61.9838142
  21.8283730  61.2848854  62.7031097  21.3005657  62.4791718  61.9375496
  10.8535776  23.4772701  70.4745178   9.9803848  23.8568878  70.5727844
  11.0120955  23.4823189  69.5305481  78.6060944  39.7157211  44.9289703
  77.9233322  39.1202736  44.6199150  79.4226608  39.3275833  44.6146507
  72.4493408  57.0256348  65.3746338  72.6754761  57.2945099  64.4842377
  72.1524277  57.8302536  65.7996750  48.8069267  12.8025389  13.0702686
  49.3884048  12.0497637  12.9632931  47.9747543  12.4239845  13.3538456
  39.1415291  63.3319473  21.6117363  39.4003868  63.0247498  20.7429142
  38.9815063  62.5311470  22.1110802  76.1799545  54.3721657  87.3210831
  76.1146622  54.0877838  86.4094391  76.5488892  55.2539940  87.2710648
  26.8100834  43.6283760  63.5966568  26.6886692  42.6907310  63.4473000
  26.5637646  44.0369606  62.7668266  43.5308151   4.2371912  28.5950012
  43.3963432   5.1396656  28.3057098  44.4814987   4.1257043  28.5977917
  60.2992744  13.8710947  62.5506096  59.6064262  13.5006514  63.0973854
  60.6038589  13.1356611  62.0190086  22.3647804  49.2232933  76.7762909
  22.3799915  49.3660507  75.8299179  21.4392281  49.2837563  77.0127869
  20.1452732  50.9213982  79.4228668  20.3014030  50.1517067  78.8756638
  20.9923840  51.3656464  79.4586639  24.4275780  61.8599358  30.8415813
  23.7479553  62.3269501  30.3555317  24.3261032  62.1610756  31.7444935
  44.1063156  49.5387344  87.6688919  43.6695137  48.6945305  87.5559540
  44.8451195  49.5093613  87.0609970  75.8757477  64.9757004  58.2515335
  75.5241776  65.8545074  58.3941650  76.8161392  65.1101151  58.1339684
  40.3177567  58.7507362  52.8460007  39.3670959  58.8604851  52.8253632
  40.4519653  57.9045563  53.2728462  61.0763397   3.6243584  75.0755615
  61.1817474   2.7033234  74.8372040  60.1605949   3.6989932  75.3440247
  77.2473679  44.9152908  40.3382149  77.3203430  44.0716362  39.8919487
  76.7116928  45.4504509  39.7526550  69.7341843  38.2442360  49.0854416
  69.0231552  37.7955093  48.6279297  70.3698196  37.5542374  49.2754402
  69.0156326  68.6661911  22.2261772  69.5558243  68.6674271  23.0163822
  69.0772705  67.7701111  21.8953152  85.4622269  41.7553062  87.5405502
  85.7463913  41.0284081  86.9863815  86.2622681  42.2514839  87.7136612
  85.6086044  32.6709709  66.1703491  85.9713593  31.8847332  65.7623444
  85.5139389  33.2931557  65.4491348  79.2405548  26.6209011  63.7796783
  80.1583023  26.4610863  63.5596085  79.1666489  26.3650036  64.6990738
   3.8945863  41.9122772  47.3303566   3.3617229  41.5013695  46.6495934
   3.3097250  41.9780197  48.0852394  20.3568134  39.6433983  75.9981766
  20.9136906  39.6145363  75.2201767  20.9515419  39.4597397  76.7253647
   4.6654191  38.8970757   2.6158807   5.3594966  39.3812943   2.1686459
   5.0444674  38.6627083   3.4630096  67.6618271  59.3485603  33.5912285
  67.2450943  59.5080376  34.4380646  67.0461655  58.7839813  33.1238518
  45.1517372   6.6319423  22.5915508  46.0722198   6.5351653  22.8356323
  44.9664459   7.5622249  22.7198963   5.4231138  10.0533791  20.5348206
   5.9669414   9.9678011  21.3178673   4.6375990   9.5430927  20.7318153
   5.0278883  50.7868118  56.7805061   5.3273158  49.9628143  57.1646996
   5.8063250  51.1516724  56.3596191  59.7682343  31.2662735  14.2976599
  60.5432167  31.8245373  14.3606987  59.8320923  30.8648109  13.4310675
  21.7300034  50.4064560  67.0619354  22.4381161  49.8112984  66.8157730
  22.0766850  50.8954849  67.8081894  71.1839676  70.2286758  14.7663240
  71.8490677  70.5628052  15.3681831  71.5669785  70.3460541  13.8969812
  86.3503952  45.7800446  84.7652435  86.6200180  46.5421677  84.2527008
  85.9735031  45.1798592  84.1218491  45.0129623  33.2521133  16.3187218
  45.2006340  32.4516792  15.8285036  44.0616112  33.3456230  16.2695045
  20.7109184  16.0109882  81.7176437  20.6757202  15.9473801  80.7632065
  21.0805130  16.8776684  81.8864594   3.7768748  20.1095562  50.8826561
   4.6516571  20.0505047  51.2667122   3.9338973  20.2164764  49.9444962
  53.9459686  69.8987961  46.7053986  54.0521812  70.5797043  47.3697166
  53.0055122  69.8819122  46.5279617  62.0609550  11.4633398   1.4851501
  62.4427605  11.9565334   2.2112477  62.7929802  10.9632988   1.1241341
   2.1847353  27.0364265  54.1712532   2.4916148  27.2131653  53.2819748
   2.9223306  26.5991783  54.5966949   2.3179052   1.2465028  40.8886414
   2.1353586   1.9209317  40.2343826   3.2616935   1.1001301  40.8248405
  58.7887383  18.7962437  34.9897194  58.5450897  19.6197453  35.4124641
  58.2392235  18.1373730  35.4141655  65.9620438  69.6905289  39.0860634
  65.9340897  70.0448380  39.9748344  65.0890656  69.3233719  38.9470139
  23.2369289  55.6512680  19.9786530  23.8973446  55.0996323  20.3979187
  23.3901176  55.5373688  19.0406799  70.1557693  45.0729332  29.9783516
  69.6535950  45.3894310  29.2274303  69.7994919  45.5545502  30.7249069
  52.6157722  19.2339020   7.4111614  53.0254822  20.0969753   7.4700990
  52.3653297  19.0256901   8.3112497  53.3320351  63.4894257  82.8102188
  53.4977608  62.9119263  83.5553741  52.7483559  62.9862747  82.2424164
   5.9282074  35.0425453  65.9689713   5.0572696  35.3202744  65.6851273
   6.3176346  35.8289604  66.3512421   7.4783459   6.2925072  81.7622681
   7.0854597   5.4336810  81.9181213   7.8573275   6.2270160  80.8857346
  76.9564285  41.7359200  24.6093674  76.3402863  42.0450592  25.2734699
  76.4055176  41.4990005  23.8633099  36.5259209  59.7693291  35.2332230
  35.6066399  60.0200119  35.3243980  36.9240913  60.4916229  34.7474403
   2.5284982   9.8341179  69.0147705   3.0536551   9.0592976  69.2150040
   3.1711154  10.5092611  68.7969208  28.9753361  11.4743681   5.2954335
  29.5078239  11.1424341   4.5725870  29.6016407  11.9086571   5.8745413
  74.0895844  33.9728355  41.0779686  73.2811508  34.1850433  41.5444908
  74.6596298  33.5935783  41.7468834  82.3182297  49.5234947  30.8963928
  81.5609360  49.5407181  30.3112049  82.4690399  48.5935211  31.0656261
  69.3491745   7.4838681  82.1162491  69.5776978   7.0912843  81.2736969
  69.0743713   6.7443991  82.6583710   8.4718990  22.7014065   6.3995976
   8.7220221  22.1914749   7.1700778   8.2671204  22.0447617   5.7339287
  34.8641739  39.8569565  73.0380554  35.6836510  39.8470612  72.5434952
  34.8808403  39.0454865  73.5454712  32.7850189  69.1700745  47.0853157
  33.4947319  69.7783203  46.8789711  32.8701820  68.4730911  46.4347801
  68.1319427  49.7081413   6.0380750  68.9408646  49.3708954   6.4229646
  67.6519547  48.9259949   5.7658782  17.1421242  28.1455612  29.6322918
  16.5405159  28.7249851  29.1647816  17.9145603  28.6859169  29.7983913
  58.1626472  53.5981102  40.0287666  58.7883835  53.8310814  39.3429031
  58.2080040  54.3240585  40.6510010  78.0816422  13.2511759  56.2985764
  77.2984314  13.1212626  56.8333015  78.6050034  12.4632072  56.4449615
  74.5475464  22.4495316  50.4329033  73.6560593  22.6904163  50.1810036
  74.5749741  21.4976692  50.3357391   9.6154547  42.2880363  27.7214565
  10.1103525  42.5363312  26.9406528   8.8284388  41.8626900  27.3809853
  45.9133034   7.1152630  17.5059700  46.7197495   7.3491969  17.0464630
  46.0858688   7.3374767  18.4208870  42.3172989  52.9731331  15.9080324
  41.4589500  53.3480415  15.7107649  42.9212646  53.4409256  15.3312969
  23.5871601  45.5119781  26.9378414  22.6797962  45.7833748  27.0766468
  24.0951462  46.3178825  27.0311337  10.6745853  38.2060204  27.4709454
  11.0822630  38.3022881  26.6102695  11.4109564  38.1229477  28.0768223
  12.2451410  45.9351768  33.6840668  13.1366663  46.2307587  33.8685799
  11.9200029  45.6149750  34.5254860  29.2418251  51.4197273  64.7586212
  28.9039974  51.2312012  63.8830872  29.0254269  52.3404694  64.9057159
  50.6142921  60.0867691  39.0740471  50.7944450  59.9736290  38.1407852
  51.1660042  60.8234940  39.3368874  55.8710098   0.5110579  11.6614065
  55.7419167  -0.0974968  10.9339256  55.4120140   1.3067774  11.3923616
  52.9375114   6.3021102  28.0153809  53.4946976   5.7688322  28.5822926
  52.5904999   6.9826312  28.5921879  54.8841400  28.6044617  29.6039715
  55.7610359  28.3856316  29.2886963  54.6705360  27.9055576  30.2221432
  47.2382889  31.1009731  26.7388763  48.1284218  30.9733639  26.4108372
  46.6794205  30.9669399  25.9734116  61.5394859  29.6389885  67.7474365
  61.2535706  29.6898785  66.8353577  62.4901886  29.5406208  67.6952896
  44.2809944  66.6102371  19.7862129  43.6510963  67.1245422  20.2911358
  45.1260834  66.7989502  20.1941929  27.3599472  64.3325272   9.8924770
  26.5311623  64.2175903  10.3573799  27.9902210  64.5545349  10.5778217
   2.8673134  71.2002106  55.6243401   2.5593073  70.6018066  54.9436913
   2.8598311  72.0616913  55.2071724  35.3159485  26.4098854  88.1666641
  35.2414932  27.2563610  88.6073074  35.4533730  26.6306725  87.2454681
  54.8964348  64.5383911   7.2755365  54.8541756  65.4930725   7.3305564
  54.0005379  64.2703705   7.0711741  25.2923241  18.6484871  85.9726715
  24.5365849  18.2837906  86.4332047  25.3400917  18.1488800  85.1576004
  58.8206940  10.8767157  31.7130051  58.4123840  10.3494015  31.0263805
  58.8926735  11.7518654  31.3320007   5.7554479  66.0167465  64.9135513
   6.2326255  65.1945953  64.8013382   5.0255508  65.9560928  64.2972717
  10.0350494  52.7620621  23.1731968  10.5959339  52.8551407  22.4031467
  10.5518036  52.2363205  23.7837620  32.0156670   3.3461366  17.3462658
  31.6831951   3.1959255  18.2312126  32.6713486   2.6608202  17.2172108
  50.9745865  58.0487709  46.9753571  50.6583061  57.2925301  46.4810867
  51.8479385  58.2177010  46.6218796   2.2829487  66.3039398  59.7966919
   2.7174346  66.7347870  60.5327759   2.9991593  65.9476013  59.2710495
  84.1563644  17.6242504   1.1623902  83.8124695  18.4847279   0.9224982
  83.4170761  17.1772652   1.5745664  17.7797623  26.4259701  73.2251129
  17.6498852  27.3675690  73.1121750  18.7096672  26.2890434  73.0441132
  14.9371605  38.0968590  57.0793457  15.8748150  37.9054985  57.0589218
  14.8202839  38.6389618  57.8595352  80.8943710  38.0501251  43.6008415
  81.4150009  37.4029694  43.1250572  80.4834824  37.5535431  44.3085213
  53.0185699  47.0063744  39.8665085  52.4035034  46.8644981  39.1469307
  53.1788521  46.1316299  40.2205772  36.9919930  49.8125916  70.3590851
  37.1023407  50.6981773  70.7052078  37.8768730  49.5369606  70.1198273
  46.6010742   7.1757131  65.4706650  47.5124817   6.8874159  65.4211197
  46.4641571   7.6763163  64.6663742  -0.1835001  17.1066399  32.9783897
   0.1764745  17.6906052  33.6459465   0.1337467  17.4657364  32.1497536
  41.0793724  55.4698524  48.0778313  40.1557159  55.4228745  48.3245697
  41.5489616  55.1392441  48.8436089  27.7168159  24.7669907  82.0897827
  26.8364143  24.4007759  82.1735306  28.0062218  24.4978962  81.2179642
  35.4505806  45.8774185   3.5281339  36.0140610  46.6292648   3.3452380
  34.6583748  46.2583733   3.9069669  49.5305252  53.5104942  45.3858643
  49.4172859  53.1765862  44.4959679  48.9382477  54.2606850  45.4373665
  65.4755478  29.7498989  73.5598450  66.2181931  29.3005257  73.1563873
  64.7081909  29.3946114  73.1113434  79.2862930  67.9088821  51.4565849
  78.6256409  67.9309845  52.1488838  80.0605545  67.5338974  51.8762741
  15.5920601  32.1728020  73.1930389  15.4570856  33.1048393  73.3642654
  16.5233383  32.1000748  72.9840851  10.7525892  14.3017311  74.2499695
  11.1056051  14.0899162  75.1141129  10.5003510  15.2229109  74.3134995
  30.2854099  14.1155910  81.2125092  30.3889294  13.8907204  80.2878799
  31.1689682  14.0512609  81.5750275  84.6579208   2.6755424  45.9805603
  84.7125473   2.3263829  46.8701286  84.8547134   1.9272423  45.4170418
  20.8023891  58.7325211  78.2360840  20.1368427  58.9089546  77.5711365
  20.5769100  59.3152962  78.9611740  17.4512424  13.6952467  73.4647980
  16.5458298  13.4556437  73.6624069  17.3867970  14.5582333  73.0557327
  12.6641769  26.7176590  87.3045197  13.3937540  26.1233692  87.4799271
  12.1046038  26.6446800  88.0776825  54.4607964  27.0913887  32.2111664
  55.0661087  27.1010342  32.9526100  53.7945824  26.4484901  32.4542122
  85.6405716  28.2059078  77.7766418  85.3811493  28.6367168  76.9621887
  86.5433350  28.4896507  77.9206696   1.4724045  64.3696671  77.7291565
   0.6594892  64.4785614  78.2226562   1.4842675  65.1087799  77.1210480
  83.9133224  37.0953941  31.6346569  83.9360657  38.0210495  31.8773041
  84.8149872  36.8904228  31.3872318  59.8403931  33.8665199  48.3828545
  59.6701508  34.8084412  48.3766365  59.5796204  33.5817757  49.2587242
  10.0112171  35.3856430  34.2809639   9.1211910  35.0333862  34.2820587
  10.1924810  35.5813446  35.2002411  46.6465340  49.2397690   7.8534198
  46.7468605  50.1889496   7.9256706  47.5418167  48.9018631   7.8762932
   0.2963791  60.5314140  44.6408119   0.7662135  61.0624390  45.2838554
   0.7839422  60.6545677  43.8263512  39.9200020   3.4447091  15.9273195
  40.1699448   2.7247009  15.3482265  40.1714325   4.2349267  15.4492283
   8.2526522  62.9778481  85.1126251   7.5109439  63.1426048  85.6948242
   8.8138971  62.3777580  85.6036758  27.1621552   1.0182494  30.7365551
  26.2262535   1.1834893  30.8506470  27.5901852   1.6802020  31.2795467
  35.2888184  27.2084713  82.8847733  34.4254684  27.0300179  83.2576141
  35.1055908  27.5556622  82.0117798  64.8811417  26.0424023  78.0185165
  64.4656982  25.6845016  78.8030853  64.1552277  26.2053680  77.4162521
  53.2935944  32.9018097  52.4458008  52.7224884  33.2177010  51.7455978
  53.5381203  33.6906738  52.9296722  52.3923569  47.2114067  43.4444008
  53.3027077  47.3444710  43.7085648  52.3132210  47.6797142  42.6133461
  80.6132050  42.5028648   3.9118185  80.2187729  42.8940735   3.1323256
  81.5245743  42.7947884   3.8912835  34.0472527  68.6868668  26.5249310
  33.9689865  69.0861893  25.6585293  34.5274887  67.8732529  26.3711720
   5.3726358  37.9269028   5.1082311   6.1196513  38.4099960   5.4615326
   5.7085609  37.0434227   4.9570880  80.5851746  53.2910690  49.2446976
  80.8550186  54.1252289  49.6288757  80.9832001  52.6278038  49.8085136
  63.9526787  43.2049370  47.9012260  64.5250549  43.8160248  47.4373436
  64.0551147  43.4348640  48.8247375  50.9687042  19.9761944  55.9452362
  51.7757301  20.4884949  55.9950638  50.5492859  20.2681160  55.1358528
  81.4332047  40.2168808  24.7690773  80.8306656  40.0161972  24.0529060
  80.8988113  40.1422958  25.5597038   8.3559856   2.0217400  79.8271713
   8.7626371   1.4844357  80.5070038   7.6676283   1.4656821  79.4622116
  64.1717300   3.9010665   6.6698947  63.6057281   3.3716586   6.1081085
  63.8368912   3.7535014   7.5543952  72.8584290  42.3676376  58.7916565
  72.8959198  43.2719612  59.1031532  72.4893723  42.4328079  57.9108734
  69.1056671  70.8830414  53.6409988  69.8198471  70.5690155  53.0864105
  69.3192215  71.8007278  53.8097649  62.7074356  36.0294380  26.5290813
  61.9333572  36.0260239  27.0921268  62.4843636  36.6311531  25.8188648
  70.5124817  34.6523857   5.9156747  70.8785477  35.2528229   6.5650582
  71.2713776  34.1840668   5.5678453  45.3452682  66.6120834  39.5923920
  45.2309761  66.2804337  40.4829941  46.0830383  66.1119537  39.2434044
   3.2225504  48.9532623  79.1892929   2.9869440  49.2910690  80.0533600
   4.1149826  49.2676010  79.0444183  58.6750336  35.8456230  58.3319550
  57.9584351  36.3183556  57.9085922  59.3985786  35.8982048  57.7074928
  34.1948166  60.8810806   3.0867100  34.8762360  61.1076012   2.4537928
  34.0627365  59.9402466   2.9700115  15.1498680  54.3917351  38.2075386
  16.0388565  54.2411003  37.8862267  15.2188282  55.1838303  38.7405090
  48.6453247  31.6211662  43.2626686  48.9780388  31.8696671  44.1250954
  48.1135292  30.8423138  43.4264183  77.5773849  18.6851959  23.3353157
  77.0478668  18.9569702  22.5856647  77.1047897  19.0213394  24.0968227
  53.2612076  13.7776194  78.7432785  53.2475014  13.0683546  79.3859253
  53.9946709  14.3306017  79.0124893  85.7123795  21.7037067  71.1528244
  86.0890350  22.5665474  71.3256454  84.8534775  21.8889961  70.7731018
  54.3399925  63.8290138  40.6424561  54.0084229  63.4876823  41.4729919
  55.1548538  63.3490753  40.4944839  11.9139366  69.4722366  24.3823910
  10.9688034  69.4104462  24.5207291  12.2918463  68.9030991  25.0528393
  28.4483356  52.1230240  18.2927837  29.0822601  52.1414108  19.0097446
  28.9497929  51.8158722  17.5375156  44.9075737  47.0917091   5.7972040
  44.6384926  46.2428665   5.4460683  45.6188698  47.3741379   5.2222900
  80.8066559  25.5380459  35.3085518  80.6443253  25.2546730  36.2083168
  80.8474960  26.4928875  35.3618393  40.9799957  39.8654785  20.3176994
  40.1533051  40.2963982  20.5347862  40.8360100  38.9455147  20.5394306
  32.1259422  68.4076004   9.2224884  32.0096130  67.8697739   8.4392653
  31.7851639  69.2673035   8.9754725   4.1187220  69.5060501  60.4904633
   3.6346340  69.9329071  61.1973419   3.5811837  69.6492920  59.7115135
  70.0470963  47.1081467   2.3607349  70.2152481  46.4091797   1.7287551
  69.5624847  47.7679977   1.8647683  66.5881195  52.6724625  47.9449844
  66.1288757  53.3284302  47.4205475  67.1733551  53.1812782  48.5060921
  10.2961006  36.6789093  74.6612930   9.9619522  37.3666306  74.0854263
  11.0750046  37.0619125  75.0648346  26.5484581   3.2387125  34.6040382
  27.2380104   3.5082967  35.2107277  26.0277653   4.0300093  34.4663467
  65.1430283  58.6715431  15.0774393  64.2139893  58.8968811  15.1258297
  65.1592484  57.8109207  14.6587534  76.7658539  35.4339523  37.2677650
  76.3796158  34.9816208  36.5178032  77.1856232  34.7398376  37.7759285
   0.6711805  34.6794930  22.3386326   0.4228671  34.5146332  21.4290218
  -0.1266557  34.5092354  22.8393345  12.5854445  20.6390324   2.7763762
  12.7841320  19.7931938   2.3747394  11.8913479  21.0067768   2.2293613
  68.7753067  41.4280739  73.9923630  69.2952194  42.2317123  74.0021973
  68.7824554  41.1493797  73.0766602  49.7244682  65.4770813   7.6594558
  50.1162491  64.7354050   8.1206055  48.9843521  65.7364578   8.2082539
  25.3093548  23.2640305  73.1048203  25.3712654  23.7318478  73.9376144
  25.5326672  22.3588009  73.3214417  67.8440018  62.8258705  32.7386169
  68.5600662  63.4581375  32.6776009  67.9979935  62.2190018  32.0145798
   3.6217501  32.9692001  18.8074169   2.7792618  33.3242950  18.5239525
   3.4214880  32.0787621  19.0959492  56.4326248   1.3868563  22.1292286
  56.0872421   0.9471644  22.9061546  55.7414055   1.9970949  21.8722172
  39.8248978  12.4120617  87.2093430  39.8914566  13.3653088  87.1534805
  40.7317429  12.1118078  87.2702637  73.0172348  29.7761765  63.5098038
  73.4573212  29.0046825  63.1529350  72.0928116  29.6429768  63.3002052
  11.3896074  53.4337578   6.5433254  12.2806025  53.6921043   6.3074937
  10.9264526  53.3805504   5.7073302  12.7336712   6.8887391   6.5987134
  12.8502760   6.2204676   7.2740264  13.6217690   7.0859036   6.3009872
  83.3186874  20.5880966  40.1167107  83.2717972  20.5181904  39.1632195
  84.2293091  20.8229561  40.2951508   6.0582509   6.2225780  35.9237251
   6.0697627   6.6646037  35.0747757   6.9011583   5.7713904  35.9702835
  35.2649307  37.1875229  73.0782242  34.5549698  37.2367859  72.4380951
  36.0555916  37.0742188  72.5507355  76.0935059  19.4860516   2.8267632
  76.4880371  20.3458920   2.9725320  76.6424332  18.8826427   3.3275669
  33.1198540  69.0147781  51.5580406  33.2930603  69.7178421  52.1840820
  33.9242020  68.9488449  51.0433464  15.4052801  46.5237846  25.3425694
  15.1284828  47.2946320  24.8471813  16.1180935  46.1495743  24.8247890
  35.4708405  51.1534004  20.6461601  34.9843178  51.3892136  21.4360447
  36.3046608  50.8135681  20.9709549   7.3655596  21.1029739  12.5911036
   6.6786666  21.3929958  11.9908562   7.1772809  21.5614223  13.4100113
  63.9241295  49.6137085  13.5904474  63.6311073  49.2480545  12.7557812
  64.0584946  48.8504906  14.1523018  80.7629166  53.3632889  23.7332535
  80.1615753  53.0207596  24.3945293  81.6321640  53.1169357  24.0494156
  30.5085945  33.3814049  63.5228043  30.2709427  33.8237000  64.3377457
  30.2169361  32.4781685  63.6466446  84.2834549  21.8049221  54.5193405
  84.4099731  20.8566818  54.4867363  83.9306870  22.0292358  53.6582565
   0.6485995  49.1970329  77.9981308   0.2883202  48.4503136  77.5197601
   1.4971842  48.8900986  78.3173904  74.1835327  16.4813614  35.5832024
  73.4848785  15.8986416  35.8807716  73.7694626  17.0318508  34.9185677
   5.0478091  13.4044781  79.1785736   4.4775653  13.2375116  79.9290237
   5.3231068  12.5347366  78.8887558  39.0871925   2.6216779  57.6292458
  38.2719765   2.1228359  57.5762367  39.1994553   2.7985504  58.5632401
  25.4512272  66.7150269  59.4241447  25.1103783  67.6087265  59.4609566
  25.4633045  66.5015335  58.4911346  84.0955811  40.2648430  24.8559265
  84.2505951  40.8814774  25.5714417  83.1434479  40.1728745  24.8210506
  31.5803814  49.3159943  84.2326279  30.8965092  48.6931953  83.9863129
  31.7611198  49.1218910  85.1523514  62.6269226   3.8306615  78.1450653
  63.2663689   4.4412537  78.5118332  62.8415413   3.7902267  77.2131119
  24.6958885   8.5403690   0.6261029  24.5052319   9.4686956   0.4915976
  25.6188202   8.4486628   0.3894157  60.5649071  67.8209305   1.5260105
  60.1275864  68.0729141   2.3393288  59.8667068  67.8126450   0.8712731
  72.7378769  10.7434244  67.8277206  72.5114594  11.6476440  68.0453339
  73.6245499  10.6295528  68.1698914  83.5897751  47.5232544  19.0178833
  84.4450684  47.9528809  19.0065479  82.9799881  48.1955681  18.7139320
  56.0252838  10.5906286  86.9212799  55.3404350  11.2061024  86.6597366
  56.5500832  11.0734291  87.5598145  26.7252598  16.2290325  56.4592743
  25.8876457  16.6336861  56.2336884  26.9453392  15.6932058  55.6972466
  73.7282715  47.9188271  58.4836044  74.1353607  47.5477257  57.7007942
  73.3788223  47.1617432  58.9536514  37.5943489  43.1675415  22.5124817
  38.4235344  43.6028099  22.3144283  37.6474113  42.3301468  22.0518475
  75.7056656  51.9749641  19.7435741  76.6375351  51.9777336  19.9623070
  75.3873444  51.1303749  20.0622787  22.7392673  18.8991280   8.5926027
  23.2834187  18.7144432   9.3581228  23.3649006  19.0319176   7.8804374
  55.3546219   3.7050800  62.6608009  54.5614929   3.3244040  63.0379753
  56.0058327   3.0057557  62.7165222  58.3493843  31.8124104  11.1810064
  59.0000534  32.5060120  11.2895412  58.8265648  31.0045719  11.3705416
  15.0442791  38.6213303  62.0170860  14.5373116  39.2775078  62.4952583
  15.0640574  37.8623962  62.6000633  57.8470345  54.1612968  49.9474831
  58.0080223  54.4500427  49.0491829  58.6989098  54.2322769  50.3781815
  56.9192390  33.1908646  54.6716232  56.8274841  33.4267044  53.7484818
  56.6103096  33.9617271  55.1476135  30.4359093   6.4545860  65.1200638
  29.5430336   6.7707229  64.9819946  30.9078636   7.2127786  65.4645004
  81.0239334  28.2467060  19.1506271  80.4702301  27.9130306  18.4447174
  81.4238434  27.4647999  19.5313129   3.8632817  56.6421623  61.5437202
   3.1738276  56.0039253  61.7268639   4.1539941  56.9351540  62.4073601
  29.3209972  63.0885925   8.4752541  28.6516209  63.6683502   8.8386421
  29.2593555  63.2154045   7.5284963  50.5668678  15.5015850  78.5639725
  50.5940323  16.4072933  78.8724899  51.4695663  15.1937265  78.6451645
  73.6824722  47.6249771  63.1953125  73.1401596  48.0373039  63.8677063
  73.5137711  48.1369476  62.4043274  11.6700344   8.5720005  50.9320107
  11.9614229   7.9714684  50.2459450  11.1456432   8.0279970  51.5196381
  31.0916233  10.9174643   1.0721847  31.3578892  11.8364477   1.1005403
  30.3944149  10.8902187   0.4169064  80.0285797  17.5248051   6.7702432
  79.1640549  17.1563091   6.9520140  80.0432892  18.3508720   7.2535954
  22.9520779  65.7036438  48.5474548  23.7711220  65.2244110  48.6728973
  23.0083141  66.0444794  47.6547623  25.6218624  64.4247360  32.3456306
  24.7605457  64.7578812  32.5973854  26.2170181  64.7740021  33.0089836
  72.8635712  44.4944458  70.1877365  72.1264420  44.7982597  70.7174225
  73.5826035  44.3962021  70.8118973  80.4083099  38.0284729  40.6659203
  80.1012497  38.5868950  41.3801422  80.6928101  38.6414261  39.9879990
  26.4016323  42.4024200  82.7674255  25.5420609  41.9941940  82.8709641
  26.8924828  42.1268349  83.5416031   0.7931454  49.7437096   3.0300264
   0.6078981  48.9347954   2.5529852   1.7477070  49.7695045   3.0961976
  24.9991779  69.2027054  41.2303238  25.7769871  69.7176895  41.4448738
  25.3438244  68.4001083  40.8388023  19.2057285  71.7650146   4.8748507
  18.3381367  71.4069061   5.0626564  19.6438408  71.0793915   4.3706632
   8.9020300  50.5414047  27.0754490   9.2960911  50.0339050  27.7849483
   8.4811068  51.2803993  27.5146999  43.1489830  12.8890972  80.8677826
  42.2565956  12.5548496  80.9580994  43.4737701  12.9505978  81.7660904
  81.2060471  29.2983265  68.5704269  80.9691849  29.5015678  69.4753113
  81.4876328  28.3838444  68.5961761  36.1595573  45.0860786  84.1968307
  36.1292305  45.4718437  83.3213272  36.6192055  45.7355537  84.7289429
  10.6121769  39.5930557  77.5539246   9.9579058  39.1641884  78.1054993
  10.9160194  40.3355713  78.0760269  47.8001709  43.2672882   3.5484216
  47.2670898  43.1436386   4.3337665  47.2021408  43.6597328   2.9123535
  30.9590607  16.7535686  72.7217865  31.2453251  17.1268387  73.5554276
  31.6594467  16.1487465  72.4770813  45.1287689  44.9122162  68.1294479
  45.5721054  45.6239281  68.5911331  45.7094498  44.7029724  67.3978348
  62.1932411  59.1116219  15.4529591  62.1027374  58.2196007  15.7881336
  61.7285995  59.1013489  14.6161585  22.3133316   1.0739418  69.3395920
  21.6374435   1.3796551  68.7346573  23.0956993   1.5677066  69.0939713
   8.0611315  58.5319710  23.3171597   8.5729151  59.2555466  22.9555683
   7.1873221  58.8994942  23.4498787  61.8689537   9.8200026   8.7644987
  62.1690521   8.9682608   9.0818434  61.3252144  10.1619997   9.4741602
  16.6368027  66.3201141   5.7965398  16.1260509  65.7045135   5.2707939
  16.2420712  66.2762375   6.6674557  57.8699799  44.8703041  28.8365860
  57.7994804  45.2608719  27.9655399  57.0824089  44.3331337  28.9226685
  36.2097321   3.9064591  46.0279388  36.5196533   4.3645997  45.2467270
  35.2711945   3.7896147  45.8805466  29.3711891  60.6756554  16.5128689
  30.2026730  61.1424637  16.4294529  29.2715740  60.2132607  15.6807041
  29.9718876  50.1343155  74.5021820  29.7295780  49.2808952  74.1427460
  29.5307045  50.1707802  75.3508606  63.9480858  46.5496521  22.8124886
  64.8868484  46.5561981  22.9993591  63.6422997  47.4126968  23.0915661
  20.9376106  69.7881165  35.8116150  20.8744507  69.8943100  36.7608070
  21.7351418  70.2592926  35.5704346  10.0258646  56.2705612   3.4298458
   9.0865726  56.4536362   3.4087265  10.0824986  55.3194923   3.5219920
  33.6094360  65.9930573  55.1363258  33.7617493  66.4698181  54.3204041
  32.8720360  66.4466171  55.5446815  73.5510483  63.3683319  69.2451172
  73.5150833  62.4921150  69.6287537  74.4679108  63.6296997  69.3304214
  12.2177744  46.5569839   3.7326753  12.0134296  45.9216423   3.0465171
  11.3669767  46.7905083   4.1039457  83.1184464  35.7339859  44.1860275
  83.5384750  36.4093018  44.7187157  83.4907761  35.8522186  43.3121719
  36.0540657  40.7671928  79.2495422  35.7532349  40.9083900  80.1472092
  36.0297966  39.8171234  79.1354599   7.8830805  54.9465866  72.2116928
   8.5686865  55.4512596  72.6492767   7.0650172  55.3063774  72.5545578
  81.7089310  55.3721237  39.5591087  82.2733459  56.1105537  39.7879791
  82.1642075  54.6056442  39.9076271  60.1525230  67.7470779  64.0851059
  59.3685837  68.2665710  64.2634048  60.3662148  67.3400726  64.9246979
   3.3872468  16.7715111  18.3065510   3.1664836  17.5752068  18.7772636
   2.5429666  16.3534012  18.1374149  77.6086426  66.5885696  27.7830181
  77.7465591  66.3357697  26.8701630  76.9613647  65.9635162  28.1094723
  54.2875938  32.2865601  49.4413300  53.3650284  32.4011955  49.6692848
  54.6461334  31.7565479  50.1532097  55.8479805  29.9826965  21.8644810
  56.4052429  29.2575645  21.5818634  55.0345840  29.8650131  21.3737946
  69.2221375  50.1141090  13.2321625  69.8860855  49.9403343  13.8993950
  68.3999939  50.1644707  13.7197838  69.4718857  23.6228542  69.5324707
  69.8799133  23.5492134  68.6697311  69.6422958  22.7789574  69.9508362
   0.4967234  14.0193863  72.4871521   0.8390112  14.1794615  71.6076889
   0.2654364  14.8880863  72.8159332  17.5860424  55.9778328  82.4594345
  17.7279434  56.9211884  82.3808212  18.4102058  55.6400490  82.8099899
  53.1684341   3.8232522  71.0541306  54.1006241   4.0364766  71.0118179
  52.9159279   3.6712596  70.1434326  27.7704449  70.2345505  84.8467484
  28.4137821  69.7485886  84.3308258  27.7428112  71.1008911  84.4406357
  83.7464600  63.8520508  76.8871231  83.1339493  63.1171455  76.9184723
  84.4662552  63.5885582  77.4604492  30.0334969  25.3010998   8.9821339
  30.4846306  25.9796410   8.4798460  30.1446800  25.5653439   9.8953943
  54.7830658  39.7171021  65.3218689  55.1699524  40.4927292  65.7280121
  55.0690002  39.7567749  64.4092331  80.9135971  67.2983856  15.9834366
  81.5758972  67.3299332  15.2930813  80.1927719  67.8316345  15.6483593
  69.8097610  70.7917404  77.1809158  68.8705444  70.8595428  77.0091629
  70.0013351  69.8574600  77.0993347   3.7063351   5.7813601  46.8339424
   3.9153116   4.8727188  47.0505791   3.3637159   5.7419877  45.9410286
  60.3539009  52.4877701  38.7732925  61.1647301  52.8517380  38.4178848
  60.1153069  51.7916565  38.1611443  65.4572601  34.3651733   3.7800000
  66.1054077  35.0462723   3.6004324  65.2501068  33.9990196   2.9202034
  11.2857876  66.2919006  13.9259272  11.0992022  67.1329956  13.5088224
  10.4418926  65.8404694  13.9427624  53.5282898  32.6651649  19.5527382
  52.7851105  33.1564217  19.2026138  53.9607697  32.3019409  18.7799129
  14.9067011  59.9936905  83.8841858  15.0957279  59.1205902  84.2279892
  15.2343206  60.5917206  84.5559387  67.6697388  65.6476974  57.6860313
  67.1489487  65.4781952  56.9009972  67.9860001  66.5442505  57.5746803
  50.1810608   1.3659980  37.7360573  50.2305794   0.9384047  38.5910110
  49.5557404   0.8377421  37.2399178  85.1616745  18.1063843  81.9579773
  84.8906937  19.0222797  82.0207214  85.4644241  18.0074825  81.0553207
  84.1146927  46.1407814  10.6683006  83.7149963  46.8174744  10.1218901
  85.0536041  46.3219910  10.6254892  26.0412540  27.0985489   1.6243508
  25.1796570  26.6849041   1.6770773  26.5649929  26.4947491   1.0977044
  32.9995537  47.0083847   4.6572371  32.9264183  46.4656830   5.4423208
  32.3570404  47.7058411   4.7874913  47.1213531   6.5595455  76.5460358
  46.2509651   6.4158611  76.1745300  47.1830521   5.9281344  77.2627945
  36.9959946  29.0972404  60.8463402  36.0473824  29.0762901  60.7201118
  37.1315804  29.7472725  61.5357628   6.4799867  25.4175091  62.6564369
   6.0619192  26.2777729  62.6190453   5.9180870  24.8547821  62.1236725
  48.9787064  10.7868042  83.5694504  49.4849739  10.1722183  84.1006851
  48.9964447  10.4129438  82.6884613   1.4238399  16.5561619  68.1695023
   0.6213952  16.6696377  67.6601562   1.2255625  16.9490891  69.0195236
  82.7369080  51.0973434  81.5987473  83.2380447  51.5983734  82.2422180
  82.1441803  51.7378006  81.2053986   4.5691290  17.9882278  14.3858385
   4.6288872  17.1379147  14.8213015   3.6695125  18.2750435  14.5428705
  79.6451263  23.7078800  83.1880417  79.4315109  23.1370602  83.9261246
  78.9172440  23.5921936  82.5772858  28.0256443   9.4837084  11.0467987
  28.7564487   9.2673769  11.6258984  27.2514153   9.1593494  11.5067902
  35.5376701  42.4880180  61.1007423  35.3823357  42.3952560  60.1607971
  35.2500534  43.3779907  61.3043518   8.9266634  51.0621223   6.0464931
   9.7082357  50.5104408   6.0144229   9.1406212  51.8129997   5.4927459
  48.4898682  14.2614908  87.2993240  49.2859497  13.8006840  87.5641785
  48.1960564  13.7999897  86.5138855  33.8662834   0.2432333  46.1524544
  33.1248589   0.0016718  45.5973244  34.6189804  -0.1879291  45.7477608
  62.8064880  34.7311821  87.1447754  62.2917671  34.6728859  87.9496994
  62.2994614  35.3123093  86.5778122  19.6938534  37.2533188  11.1112623
  18.8764687  37.5108185  11.5376501  19.8028469  37.8854370  10.4007816
  27.2767506  55.6506691  24.2021198  26.7221527  54.8842621  24.0562668
  28.1644497  55.3419724  24.0206585  41.5596771  58.3138351  21.8671112
  41.3608246  57.9259567  22.7193069  42.4860687  58.1189194  21.7255363
  68.8586502  62.3780098  75.1834259  68.0910568  61.9684143  75.5825043
  68.6242371  62.4780769  74.2607803   1.6344463  34.3672943  45.2954407
   2.5845482  34.2673912  45.2357941   1.4081136  34.9448776  44.5664673
  13.8761721  45.7528076  49.7504883  13.2632113  45.0415916  49.9367218
  14.2955475  45.9339752  50.5916367   6.8531470  57.8637543  34.3725319
   6.8390279  58.3854599  35.1749382   6.7734475  58.5063629  33.6675987
  44.4871445  47.6069183   8.3655996  45.0074959  48.4023666   8.4784088
  44.6607552  47.3328438   7.4650578  39.9971848  70.0962830   3.9110618
  40.9367256  70.2777863   3.9345906  39.5872612  70.9215088   4.1702867
  82.9998550  66.7825928  33.0827141  82.7674255  67.5781631  32.6038780
  83.9530029  66.8206558  33.1620674  29.0507240   9.3391666  39.6692924
  28.6030083   9.8369913  38.9852180  28.8444672   9.8059406  40.4791145
  74.0353470  25.4411354  26.4414444  73.7055206  24.5716896  26.6683960
  74.8527985  25.2724094  25.9728966  42.9156456  45.2806168  64.5293121
  43.8623695  45.4174576  64.4944305  42.6698914  45.5324020  65.4195023
  76.2488632  36.7549629  49.5926819  76.1339111  37.3083115  50.3652229
  76.8301163  36.0529671  49.8852272  27.6429062  44.9920425  74.5992126
  27.5175438  45.9094009  74.8420486  28.5925655  44.8721428  74.5983124
  62.9112549  67.9291687  88.9982300  62.4572754  67.8569031  88.1586380
  62.2089767  67.9906769  89.6457291  64.7506943  35.1750641  58.0148392
  64.7803268  34.2371330  58.2036285  63.9991798  35.2782516  57.4310532
  25.2879219  61.2779808  50.8848114  25.1447048  62.1447258  50.5047188
  26.0681591  61.3812981  51.4295921  69.7737045  46.1848450  23.3411961
  70.4178009  46.2077980  24.0488968  70.2708206  46.4182854  22.5572262
  50.0422249  30.0360622  74.7804031  49.1533203  29.6881599  74.8514328
  50.4883156  29.7152920  75.5642014  60.6369667  36.6115685  28.0092678
  60.0350037  36.3685532  28.7126999  60.4384041  37.5308189  27.8310013
  67.1679001  70.9027939  75.9031906  67.4032211  70.1908035  75.3082733
  67.2078705  71.6908112  75.3612823  34.7939606  60.1225700  19.4477482
  35.0846252  59.6182785  18.6878586  34.2323112  60.8055954  19.0813313
  14.4449329  42.6219635   6.0178905  14.0959110  41.8823433   6.5152626
  14.9910879  42.2199402   5.3423729  35.1514397  51.7818756  28.5044880
  35.6021461  52.0095177  27.6913013  34.4374962  52.4162598  28.5683041
  20.7193165  22.3557453  56.6262474  21.1027794  21.6165886  57.0983009
  21.4161339  22.6541214  56.0417404  50.9223518   8.2753887  35.9287148
  50.2979927   7.5743818  35.7416382  50.3963966   8.9609928  36.3404808
   9.9573011  58.2189255  32.3794098   9.6000166  57.5441132  32.9566498
   9.2506523  58.8587570  32.2928467  13.3263521  28.3091908  74.8848419
  14.2367163  28.5466423  74.7085342  13.0996332  27.6946526  74.1868668
   8.7531796  65.2494507  69.4952774   7.8657560  65.5340195  69.2768021
   9.3010025  65.6215973  68.8041687  19.0383224  20.4175053  76.0137024
  19.3880119  21.1083851  76.5764084  18.4441338  20.8724861  75.4169083
  61.0401917  24.7762394  45.1634407  60.5935936  25.4504147  45.6755638
  60.8301582  23.9567947  45.6113586  35.7725182  59.7203674  24.5821457
  35.0628471  59.6954308  25.2240009  35.8192940  60.6375580  24.3123207
  79.0583496   9.5798597  26.3510761  79.6304626   8.8674765  26.6364346
  79.6019592  10.3649025  26.4175987   2.0093415  69.2927551  53.6452637
   1.5452235  68.5181580  53.3277473   2.2909584  69.7457886  52.8504753
  86.2048645  28.7084656  56.4521446  87.1088333  28.9930592  56.3177032
  86.1127625  27.9335728  55.8978081  62.6325760  42.3279190  53.3819122
  62.7309113  41.5527802  53.9348335  61.6987381  42.5341568  53.4224854
  79.2755127  47.8311691  21.3722916  80.0181656  47.2273216  21.3642101
  79.5079422  48.5052414  20.7336674   4.6256919   5.9276562  43.8270531
   4.6517382   5.0716863  43.3994217   5.4939437   6.0267911  44.2176208
  37.0565910   4.2664471  40.0817451  36.4617081   3.6670532  40.5323830
  36.5233192   4.6581764  39.3900795  20.9041920  35.8743057   6.9416232
  20.3443737  35.1774483   6.5992408  20.4501019  36.1828346   7.7257428
  23.9464684  21.5375729  69.8072510  24.3740063  21.9972706  69.0846710
  23.8662663  22.1968899  70.4965210  66.0858765  68.1496124  48.9970741
  66.3308640  68.8595734  48.4036369  65.4987640  68.5599899  49.6319847
   9.1554489  43.9901085  47.3651047   8.4152927  43.6021500  46.8983154
   9.0422983  43.7056999  48.2720413  51.7089195  59.9776115  59.7438164
  52.5123596  59.9862633  59.2235832  51.9804840  60.2840843  60.6090088
  59.2950935  28.2485561  22.6330643  58.6782112  28.3272724  21.9054012
  59.7360229  27.4121666  22.4838505  61.5325203  30.7345295  20.7748547
  61.9622421  29.9581375  21.1337261  60.9126129  30.3896561  20.1321964
  80.3702850  13.9145718  70.8415680  80.6483994  13.1502113  71.3461838
  80.1038132  13.5580912  69.9941330  41.3313637  43.8478889  62.3158264
  40.5498924  44.3045235  62.0043373  41.9895668  44.5364685  62.4099503
  34.2290344  19.0040855   9.9374380  33.8155823  18.9200058   9.0782423
  33.9796562  19.8777180  10.2387829  69.9449615  25.2944450  12.5810356
  69.5614243  26.0101624  12.0742064  70.3607788  25.7256413  13.3276262
  29.8627262  48.1304474  55.9521637  28.9180126  48.2753830  55.8998032
  30.2066479  48.4958954  55.1370583  21.4673157  17.7087040  76.9805984
  20.6784191  18.2120647  76.7793427  21.7980022  17.4300900  76.1266327
   5.3994555  62.1177597  -0.0070541   5.1995349  61.1841049  -0.0744943
   4.5765309  62.5193825   0.2717381   8.4531746  54.6049957  52.2992706
   8.9115171  54.3222313  53.0905991   7.6829085  54.0385933  52.2533073
  61.3964844  29.8016777  59.8422890  60.5579109  29.9173908  60.2890968
  62.0364265  29.7252846  60.5500145   7.6434426  55.5852242  16.7200642
   6.9364629  55.2110100  17.2457790   8.4352455  55.1545181  17.0422001
  47.5643311  55.7166901  18.1462688  47.2310028  56.6088409  18.0504055
  47.9633751  55.7022858  19.0162048  24.5476131  70.3051529  31.8921089
  24.5513840  69.7663574  32.6832581  24.2789059  71.1726913  32.1944275
  35.8870964  41.6587105   4.3622899  35.2328682  42.3380089   4.1986628
  36.0135765  41.2381592   3.5117779  84.5833130  46.4387512  79.4186325
  85.3833084  46.5315399  78.9013062  84.2964096  47.3376884  79.5793610
  26.1440620  42.8380165  53.8956680  26.1034164  42.2726250  53.1243629
  25.3241730  43.3315315  53.8743477   9.6649637  51.2725868  69.3611984
  10.3681765  50.7477646  69.7436676   9.5095806  51.9674416  70.0009308
  34.8801651  58.5251999   8.5901861  35.1555367  58.7685051   7.7063293
  35.4069901  57.7544746   8.8015480   9.1293030  17.7527084  17.8512383
   9.6062136  18.5671101  17.6914349   8.2068739  17.9959030  17.7724113
  59.1136894  15.6999941   2.5344274  60.0155792  15.5979958   2.8384440
  58.6092110  15.8626432   3.3314700  29.8429470  20.1112061  63.8928566
  30.1027622  19.7485180  64.7397232  30.6064186  20.6095676  63.6013451
  31.1399555  57.7912407  79.5762024  31.2781963  57.3840294  80.4313660
  30.3775482  58.3564949  79.7005234  54.4177666  33.4013138  56.8386993
  54.9577789  33.9662514  56.2860146  54.7231750  33.5746994  57.7291451
  47.5408440  66.8559265  52.1837196  47.3586617  66.7144241  51.2547302
  47.0181465  67.6233902  52.4161148  82.6599884  70.9780579  42.1107750
  82.8956833  71.0262604  43.0372505  82.9159164  71.8285980  41.7539597
  82.4818420   4.6879644  67.4568100  83.3187180   5.1413579  67.3552704
  82.6271286   4.0756903  68.1780930  68.6513748  69.9956665  28.6994686
  69.0050125  70.3706741  29.5060291  68.0959930  69.2739563  28.9942875
   4.7095146  53.5867882   3.8432276   5.0202260  53.9919586   4.6528740
   4.1225061  52.8890686   4.1344976  60.4202538  15.8981590  19.2707176
  60.4943657  15.2648029  18.5568562  61.3080711  16.2380314  19.3825035
  34.3155823  56.5348663  89.0715103  33.4604912  56.9628067  89.1153030
  34.5406647  56.5440865  88.1411972   9.6030912  63.3997459   5.2849555
   8.6652994  63.3715630   5.4746499   9.6679220  63.8994408   4.4711170
  31.8689842  10.8491831  85.4153519  32.3242531  10.0095148  85.4779510
  32.4277229  11.3830585  84.8505325  72.1318970   1.0323675  29.8743248
  72.8445740   1.2279409  30.4826603  71.6393051   0.3307357  30.3001137
  58.3228645  13.8098373  76.7068863  58.3928604  13.0816221  76.0896072
  59.1475868  14.2859659  76.6101227   5.1475925  18.6819229  79.9066086
   4.4370604  19.2168579  80.2604752   4.8002787  17.7899609  79.9097290
  32.0435486  39.5524788  79.3315353  31.1946011  39.8999405  79.0580521
  32.6433067  40.2940331  79.2502136  10.4423103   1.0673617  87.0504837
  10.0828314   1.9492723  86.9543610   9.8264084   0.6195683  87.6304626
   0.9686576   4.0225282  37.3814621   0.4414674   4.8180594  37.4551659
   1.1011548   3.9093473  36.4402580   9.5320187  18.3331680   7.7671218
   9.8134289  17.7944927   8.5066271  10.3196802  18.8092823   7.5041828
  15.0655651  11.2812786   4.4997201  15.6524019  11.6278915   3.8276231
  15.4911633  11.5044641   5.3275409   0.7162030   8.5895720  38.6597862
   1.1679914   8.4279633  37.8315353   1.2354223   8.1187391  39.3116760
  39.1011391  52.5218048  15.8853626  38.4887581  52.8053246  16.5642109
  38.8164406  52.9848022  15.0974474  72.4315109  60.0072212  87.5515518
  73.1462021  59.4395676  87.2630692  71.8332443  60.0372849  86.8049545
  21.2545719  48.2543678  38.5726280  21.3271751  48.0607567  39.5072250
  20.3257675  48.1345329  38.3746529   8.6258030  56.1165390  34.1333885
   7.8020778  56.5649338  34.3248329   8.3852615  55.1925888  34.0649147
   2.2564421  17.7773666  41.0169144   1.4173304  17.3556576  40.8317528
   2.8901212  17.0599518  41.0173073  78.2033005  63.9622803  86.9774170
  78.4990540  64.4086685  86.1840134  77.3498764  63.5976181  86.7430801
   5.5739498  34.6802979  60.8260078   4.8878899  34.1200981  61.1889534
   5.1161089  35.2494774  60.2074242  68.3989258  17.5330257  70.6986542
  68.6125565  17.4975166  71.6310349  68.8284302  18.3287411  70.3846588
  55.3130722  19.3503361  63.2201080  54.4431572  19.6588478  63.4736900
  55.3048248  18.4153996  63.4251862  71.5417862  15.1403103   5.4666324
  70.6040421  14.9717979   5.3745284  71.5908203  15.9514904   5.9724126
  85.9440155   1.8923473  37.1549454  86.9006882   1.8635033  37.1417274
  85.7289124   2.3285255  37.9793892  34.0298195  50.9777527  42.3175430
  33.7074699  51.8502045  42.5437012  33.4547043  50.6858253  41.6102562
  58.1349564  70.2491837   1.6599687  57.2957687  70.6237869   1.9276816
  58.1944389  69.4250717   2.1432216  86.6613007  16.8139286  73.0082626
  86.7177582  16.9778614  73.9496307  85.7231064  16.7383842  72.8341446
  16.3686352  67.9283447  28.7762051  15.9623756  68.7528915  29.0432434
  15.7997046  67.5946350  28.0825272  75.2109604  45.7868958   4.3800588
  76.1583176  45.7681541   4.5156813  74.8801956  45.0535507   4.8987432
  82.0584412  53.3804054  17.5848942  82.7688828  54.0142860  17.6833763
  82.4469833  52.6604767  17.0879288  35.9249611  45.2037811  23.7132263
  36.1323090  44.6639366  22.9504642  34.9812660  45.3520012  23.6523571
   9.4885635  29.7484035  50.3173866  10.1315222  29.6529198  51.0200386
   8.7882938  29.1383057  50.5489807  81.5784378   4.9577384  50.7054710
  81.8050995   4.7641954  51.6150856  80.8546448   5.5811539  50.7664375
   4.7408786  11.4666414  18.0901527   4.6876240  11.1199150  18.9807568
   4.6923580  10.6929703  17.5286274  38.5929756  43.7722321  87.0897827
  37.8356590  43.2394600  87.3323822  39.2890091  43.4814835  87.6790466
  77.3768463  71.9292221  67.6316910  77.5617676  71.2974777  66.9367523
  76.9164505  71.4219513  68.3002243  58.4542427  36.4650841  48.4497757
  58.4074936  37.3226471  48.0271225  57.8334351  35.9236336  47.9622650
  46.7398567  61.8488731   8.7544775  47.5741577  61.5185471   9.0877285
  46.0819435  61.4681091   9.3362017  50.1219635  60.3453064  45.6962242
  50.7540817  60.5931091  45.0215034  50.6134109  59.7743263  46.2867279
   5.2420998  17.7113953  85.9945679   5.7615352  17.8458672  86.7872467
   4.3554177  17.9738331  86.2418594   7.1777673   7.4340558   3.0349557
   7.6568546   7.4849586   3.8620689   7.0322914   8.3467569   2.7858677
  70.8773041  61.0996971  27.2836285  71.7538452  61.2246780  26.9199181
  70.4676437  60.4561119  26.7055206  21.4276733  56.7686958   4.5803175
  22.3449345  57.0423050   4.5805111  21.1343250  56.9135818   5.4798665
  58.1107864  58.0629539  18.9224644  58.3091431  58.4844093  19.7586823
  58.9676323  57.8557281  18.5494938   5.7532086   7.6668329  52.8555069
   5.0562954   8.1564569  52.4186859   5.8194122   8.0665312  53.7227402
  34.3706436  71.0663910   2.9801905  33.9541206  71.9238739   3.0665777
  33.9150658  70.6515274   2.2476845  28.1932907   2.9176962   9.2842264
  27.3649693   3.3689463   9.1214743  28.0965500   2.0732744   8.8439713
   0.8895615   4.7605324  79.8151932   0.9480104   4.2358212  80.6136246
   0.5188476   4.1650686  79.1638641   6.1778355  19.2290478  83.8591919
   6.0565882  18.8152008  84.7137451   6.6850190  18.5929604  83.3548279
  49.0780754  70.3711395  30.5922871  49.1436310  70.1328888  29.6675339
  49.8098602  70.9708099  30.7375813   2.9245527  66.8434525  63.9231758
   2.2064998  67.4732819  63.8603134   3.2823820  66.7989044  63.0364914
  84.5330582  11.9305172  87.8664856  84.9381256  12.0453176  88.7261200
  83.5924301  11.9251127  88.0437469  47.8889923  69.9146042  38.7105637
  48.3319054  70.6073837  39.2005730  48.1797256  70.0370102  37.8068352
  31.5360203  28.0226326  80.9299469  30.7790642  27.9779243  80.3457870
  31.3280258  28.7323666  81.5376053  43.6078300  10.1626682   0.5931301
  43.2404747  10.3857002   1.4484305  44.3497925  10.7582884   0.4884421
  32.4750366   9.7307787  62.2955780  31.9687023  10.5090055  62.5284309
  31.9052372   8.9967394  62.5252419  85.9184647  57.3472252  66.9845810
  86.3298264  56.6770782  67.5303955  85.5859909  57.9930077  67.6080093
  27.6935062  49.3886681  31.7521477  26.7931976  49.5444679  32.0374603
  27.8541870  50.0600128  31.0890446  34.2228012  33.7233162  71.2519684
  34.7969475  34.4872017  71.3073425  33.4574318  34.0335350  70.7680130
  79.5307236  21.2945309  84.6220016  80.3791428  21.1693649  84.1968613
  78.9340134  20.7230358  84.1387177  50.1953087  68.0617142  24.2950001
  49.7712898  68.0459518  23.4369850  50.3137398  68.9920349  24.4865818
  64.8474579  15.5789661  12.9258356  64.2125778  16.2827301  13.0595160
  64.8826294  15.4653444  11.9760542  30.7552032  66.8557129  36.0021935
  31.3929977  66.1523361  35.8809166  30.2192783  66.5682526  36.7413712
  44.1862717  26.4974689  35.1939049  43.3948288  26.3789749  35.7190819
  44.4443970  25.6096764  34.9460526   2.1723237  37.4284935  17.6938858
   2.8576789  38.0591965  17.9146500   1.5929254  37.4279060  18.4558105
   8.7861309  50.9215813  85.3230743   8.7104874  49.9693031  85.2623901
   8.3101978  51.2487755  84.5597458  62.7794762  22.4969749  32.2374191
  62.4014854  22.1328659  33.0379066  63.0010910  21.7313328  31.7074051
  67.4875412  65.5170364  75.9871674  66.8655853  64.7897263  76.0078888
  67.2974625  66.0174026  76.7807236  77.9546738  35.0927811  82.9581070
  78.5181580  35.7060356  83.4299545  78.4091415  34.2527237  83.0213089
   1.8563925  21.2596550  34.2100410   2.2550201  21.6211681  33.4184380
   2.0479681  20.3227539  34.1682587  56.9099693  23.1310215   8.0512476
  57.3462791  23.5547047   8.7904081  56.4306335  23.8378067   7.6189008
  31.1058979  21.1513538  77.4992752  31.9425735  21.6070156  77.4066620
  30.4512711  21.8497009  77.4967041  67.4581909  20.1312523  64.9839783
  68.1981277  20.7181644  65.1397171  67.8423691  19.3731213  64.5436630
   9.2097063  48.2093925  71.5977783   9.4222336  48.5202065  72.4778061
   9.9785910  47.7064896  71.3291931  32.9626274  12.0501728   7.4684834
  32.1049461  12.4623566   7.3649311  33.4186211  12.6023674   8.1036072
  61.3621788  63.6145554   4.4119530  62.1607399  63.4469452   4.9123888
  61.5951843  64.3315430   3.8221509   1.4969829   7.2259021  54.6353989
   1.1609730   6.7675023  55.4055901   2.4311781   7.3374333  54.8116684
  77.1122360  45.4318085  86.0391083  76.9082413  46.0706215  86.7221375
  76.4760742  44.7288437  86.1709137  83.0845871  38.2773514  22.5905933
  83.3293610  38.7020035  21.7684078  83.8176880  38.4555206  23.1797085
  76.1568146   7.4750595  44.6627464  76.6240463   7.0172844  43.9639168
  76.1292114   8.3874655  44.3746758  39.3044701   3.6490829  18.6045532
  39.3842125   3.6259594  17.6509609  40.1985130   3.5239396  18.9227676
   8.4295120  41.8777504  80.9198761   8.1351433  41.1136398  80.4241791
   8.7304401  42.4946556  80.2527161  57.5690384   0.8241851  40.9474068
  57.1071129   0.1117414  41.3893089  57.3976822   0.6798541  40.0167923
  54.3492775  10.4754887  76.7073975  53.4822273  10.8726892  76.6256256
  54.8671455  11.1263027  77.1811981  65.5527344  47.8163147  19.7486057
  65.2248535  48.5510101  19.2300014  65.9925156  48.2262802  20.4934196
  62.0933037  11.9627151   4.7343049  61.4714737  12.6902361   4.7508354
  61.7421875  11.3331699   5.3640833  25.4424076  25.8990784  85.3852158
  24.9703598  26.2591343  86.1360626  24.9423923  26.1939507  84.6241226
  74.1171570  49.7030716  11.7955589  74.1074677  50.0185051  10.8918772
  73.4692764  48.9986115  11.8103065  23.6211014  47.8867836  86.4071960
  23.3746414  47.9875641  85.4877777  24.4477921  48.3626251  86.4871063
  81.7223129  65.2860870  82.0434494  81.1134949  65.4783859  81.3302917
  81.4195251  65.8304901  82.7702026  57.9278030  31.0852394  46.0666618
  58.7328644  30.5787373  46.1742058  57.4101753  30.5817242  45.4383545
  66.0114517  70.0494080  34.4446716  65.8555069  69.3189240  33.8460808
  65.7031097  69.7332001  35.2938881  80.8991318  38.8488541  55.9814224
  80.5483170  39.6389885  55.5705185  80.6786652  38.9427452  56.9081421
   7.7102160  49.7949295   2.6891220   8.5757351  49.3944969   2.6068962
   7.7809639  50.3628235   3.4564066  14.5451918  44.8641968  68.4970169
  15.0849924  44.0742302  68.5253067  13.9175491  44.7003212  67.7931366
  34.2975578  62.5734978  68.6603394  34.6292534  62.6572571  69.5543213
  34.7237053  63.2828903  68.1793137  43.1485748  49.7073631  67.9307480
  43.6296997  49.1497459  68.5421524  42.5875359  50.2461052  68.4886246
  54.1045113  44.4534760  55.4143105  53.8435822  43.5712318  55.6784973
  53.3198128  44.8246231  55.0109138  64.0623016  56.3910789  65.7179260
  63.6798477  55.8842239  66.4342041  64.8217163  55.8785744  65.4406815
  70.7845383  36.0107155  50.0368233  71.4435043  35.9128456  50.7241516
  70.4816513  35.1187897  49.8666573   4.9299822  42.2481308  24.8408279
   5.2174764  41.3449516  24.7072430   4.3235254  42.1996269  25.5798054
  46.1214447  46.7068481  19.5163879  45.6564789  47.4755592  19.8467274
  45.6460724  45.9624901  19.8854122   2.8230798  15.9294195  14.3895807
   3.0508766  15.8818207  13.4611015   1.9433713  16.3065224  14.4013386
  64.2514725   2.7203312  73.7140045  64.2599182   2.7537348  72.7574234
  63.4824638   2.1922381  73.9284363  52.5503654   8.2404261  33.6330681
  51.9193649   8.1528912  32.9186440  52.0164566   8.2253084  34.4273872
   0.6225416  25.4977188  42.5665474  -0.1690599  25.1227417  42.9525414
   0.3102856  26.2486038  42.0616722  55.0373535  27.1253471  22.6347542
  55.0124474  27.2323189  23.5856323  55.6797447  26.4309406  22.4885941
   0.0477286  40.7556992  59.8684578   0.3952385  40.6845894  60.7575073
   0.8235866  40.8376465  59.3138771  32.7741318  66.5593033  41.4675636
  33.5029640  67.1031418  41.7663574  33.0184555  66.2981186  40.5796890
  10.5957632  71.1097031  75.5441818   9.8174925  71.6663895  75.5191879
  10.4599819  70.5421143  76.3028870  58.6679039  42.0651169  51.8584480
  58.0531578  41.8279190  51.1641464  59.1805725  42.7841263  51.4890900
  81.8966370  23.5809402  86.0874634  81.0182190  23.2994766  86.3431778
  82.2794876  22.8138599  85.6617355  44.2425804  56.4491386  11.8466778
  44.6102295  55.9912033  12.6025620  43.8819046  55.7532654  11.2972231
  72.0049286  47.8783150  55.2802544  71.2030945  47.6047440  55.7257385
  71.7036972  48.4520988  54.5757904  64.4085007  19.8059902  52.2169342
  64.7038040  20.0906296  53.0818062  63.4556923  19.8918495  52.2489204
  67.4293289  37.9608421  33.7322083  67.2303619  38.7904930  34.1661682
  66.5732803  37.5660706  33.5661583  71.8441467  39.9893570  60.6919365
  71.8863373  40.5882263  61.4374619  70.9238892  39.9990082  60.4287529
  80.3254776  46.8948631  72.1220627  79.9874039  46.3297081  71.4274139
  80.8683395  46.3168373  72.6581802  65.1482162  27.7498112  31.5024605
  66.0742798  27.6395664  31.2868538  64.7041168  27.0581322  31.0119705
  20.6141319  62.8971367  83.1277008  21.5043163  62.6713486  82.8578415
  20.5980949  63.8541946  83.1235962  41.7314568   0.8661925  35.8166199
  42.2726631   0.1886492  36.2219124  42.3591423   1.4570458  35.4005280
  41.1653442  26.4569302  78.8328781  40.4619637  26.3115540  78.2001419
  41.6066856  25.6101398  78.8991547  10.1740532  66.5026703  78.5324936
  10.7887001  65.8372498  78.2232056  10.6499929  66.9666901  79.2212601
  32.7004242  24.8240318  75.5066910  33.6132278  25.0774021  75.3694687
  32.7509995  23.9848518  75.9643478  72.5142822  49.9995689  74.8440704
  72.5377121  49.9354973  73.8893051  71.9065857  49.3116074  75.1154480
  84.5897293  39.6816788  79.8287048  85.3678513  39.8314629  80.3656616
  84.9263153  39.2877884  79.0238495  58.3627548   0.5563168  69.2714996
  58.2984962   1.1149437  68.4968796  58.9919014   1.0033703  69.8376694
  84.6621857  52.1149483   5.9444385  85.0227814  51.7916374   5.1188030
  84.8472977  51.4193192   6.5753636  46.5219879  40.4777031  44.1825333
  46.4785614  39.5775108  43.8600502  47.4028664  40.5588989  44.5481796
  22.0037632  58.3366737  73.1735764  21.9410267  57.4992790  73.6329956
  22.5447197  58.8828354  73.7439346  78.7658234  68.9004364  61.2823334
  77.9641037  68.8809509  61.8049164  79.3773270  68.3407288  61.7608948
   2.2298460  64.8362503  24.4011955   1.7416817  64.4808350  23.6584911
   1.9619170  65.7540588  24.4467773   7.0437307  29.5407104  71.7719421
   6.3976831  29.6865082  72.4630280   7.8693523  29.8465538  72.1474991
   2.5005987  67.4154434  68.0479889   2.3975248  67.4056854  68.9995728
   3.4476349  67.4315948  67.9098053  79.0520477  41.4974022  26.1944733
  78.2631683  41.4798164  25.6526279  78.8059769  41.0272293  26.9911003
  33.8710976   4.3188114  85.3833160  33.6992950   5.2339849  85.6050644
  34.7883148   4.1829052  85.6209488  71.1386108   3.3761802  25.7904949
  70.9666824   2.4359574  25.7389870  70.5811462   3.6827772  26.5056591
  63.6181602  58.8557701  61.0510597  63.9451523  58.5191689  61.8853264
  64.2790298  58.5920219  60.4108086  76.2339096  47.6628799  43.5861816
  75.4055481  47.6921043  44.0649223  76.7925262  48.2974129  44.0351295
  54.5910950   3.6377542  22.9843426  54.3605957   4.5667520  22.9924355
  54.4123840   3.3388641  23.8759480   9.5159607  65.9691086  66.9843140
   8.9012938  66.5674133  66.5595169  10.3583288  66.4217834  66.9426956
   1.7042071  61.1949921  55.1691589   0.8026273  61.2185287  55.4898338
   2.0021703  60.3050117  55.3572769  39.2840118  62.5656090  80.0499039
  39.5110817  62.0784569  79.2578506  40.1245079  62.8664818  80.3952637
  68.1252213  62.3224792   8.9416370  68.3710938  63.1032448   8.4454756
  68.1945190  62.5894890   9.8582249  57.0549202   7.4208088  27.6321411
  56.9774170   6.8301110  26.8829403  56.6879501   6.9270091  28.3654404
  61.8502579  54.5551643  84.2531815  62.6424332  54.0178795  84.2576370
  61.1704865  53.9825516  84.6085129  22.7022839  35.0195732  49.1060791
  23.2669983  34.5481262  49.7185097  22.2372799  35.6553574  49.6499367
  49.7112732   7.3736887  83.2077332  50.5829163   7.4684467  82.8236847
  49.8579597   6.8834000  84.0166397   6.4011607  18.1370392  18.0032902
   5.4442930  18.1562939  18.0195599   6.6589346  19.0586262  17.9817829
  18.3265381  37.9823341  79.2973862  19.0652523  37.5199738  78.9014587
  17.6749115  37.2997665  79.4577408  67.7266541  59.3626785  67.4044724
  67.4915161  60.1394234  66.8969193  67.5338898  59.6016045  68.3111115
  39.3519211  22.1706104   7.2467999  39.2329865  21.4317455   6.6500049
  39.0255127  21.8533173   8.0888300  10.3907299  55.5569534  23.9956703
  10.0745020  54.8814354  24.5955906   9.5969477  55.9939651  23.6871853
   3.9790957  44.9491272  19.2297115   4.3124962  44.3187370  18.5912094
   3.9539516  44.4640808  20.0545311  82.1038132  31.7477608   8.6403275
  81.4487534  31.4727459   7.9988456  82.8246994  32.0928993   8.1136093
  69.1608887   4.0391917  44.5192757  68.7461014   4.8663898  44.7640800
  68.4295807   3.4516785  44.3288879  66.2859192  17.5945797  53.4960747
  67.1370392  17.1572704  53.4716949  66.4690704  18.4909763  53.2147179
  14.5673637   6.1308041  34.0713692  15.1251688   6.6390929  34.6602058
  13.6843014   6.2401147  34.4241905  26.1276360  57.6103363  59.1789474
  25.8805542  57.1841087  59.9996262  25.7927303  57.0285454  58.4966049
   8.4044914  71.4177322  58.0723953   8.7044020  71.0791779  58.9159966
   7.6096239  70.9191437  57.8831177  68.3073120  41.5617027  39.2590675
  68.1636887  42.3446426  38.7274590  68.4748459  41.8975067  40.1396332
  42.7609787  43.3035278   7.6094842  42.1729164  43.9098473   8.0598087
  42.2077484  42.8728485   6.9578066  74.8675156  21.0011272  85.3950882
  75.0482330  21.9390583  85.3329620  75.2129822  20.7468147  86.2507782
  18.0449581  54.6298981  77.9962845  18.2173386  54.2497177  78.8576660
  18.4077110  55.5141945  78.0478363  56.6884804  55.2011604  53.3670731
  56.5182610  54.5035896  52.7341003  57.6340332  55.3422318  53.3195190
  35.3701935  57.7302666  77.2080917  34.4585991  57.8183784  77.4864197
  35.5112610  56.7855911  77.1454773  77.0655899  37.0158234  44.3707008
  76.5344620  36.6199608  45.0616684  77.1485291  36.3289986  43.7091675
  63.1560249  66.5692749  10.7954330  63.0547714  67.4755783  10.5045795
  63.8562546  66.2180252  10.2454033  56.5996246   1.1503465  86.2037811
  56.8202057   1.7494626  86.9169693  56.9884224   0.3151657  86.4636688
  71.1533508  69.8108902  47.6623344  72.0452042  69.6685410  47.9794579
  71.2096176  70.6113586  47.1404915  67.0067520   6.5719514   2.3224916
  67.3533096   6.3365626   1.4618407  67.6651611   6.2548885   2.9407132
  21.1619778  40.2419014  29.0409698  20.2250690  40.1912613  28.8515797
  21.2420235  39.9243736  29.9404144  63.4329414  26.4061317  29.4212837
  63.2966423  26.4800491  28.4767246  62.7836914  26.9963264  29.8038731
  65.7097244  61.8250580  43.8311310  65.2012558  61.1630745  44.2995987
  66.0211334  61.3760338  43.0452347   1.9240454  52.4185371  62.8885078
   1.2141107  52.2533264  63.5089378   2.7031460  52.5149841  63.4361687
  40.3352737  46.1743088   7.7386379  39.8514214  45.5953560   7.1496291
  41.1665192  46.3312912   7.2907262  44.3276176  39.8103638  11.0892706
  44.2343140  40.5693436  11.6650095  44.0580139  40.1286812  10.2277489
  57.4238663  51.5321617  72.4056702  57.1667595  50.6155701  72.3057098
  57.3122902  51.7117729  73.3392258  52.6440887  29.8612423  58.0083351
  52.9864349  30.3366776  57.2513695  52.2198792  30.5334969  58.5415802
  75.8038101  28.2533512  17.2073021  76.4061050  28.9695530  17.0059853
  75.4625168  27.9808388  16.3555470  63.0201454  37.3774452  49.5046501
  62.4544983  36.7195740  49.1003189  62.6586685  38.2149773  49.2146416
  77.7037430  18.2476177  10.3610926  77.7644958  17.3220844  10.5975933
  77.1048660  18.2652626   9.6145897  73.8494949  71.0349579  87.6140518
  74.2845459  70.4847031  88.2653427  74.1547089  70.6965866  86.7722778
  28.0378189   0.2906857  45.0005798  27.5425739   0.8628749  45.5867233
  28.3668175   0.8747261  44.3172874  63.4201469  36.8042793  74.9789658
  63.9715271  37.5063782  74.6336136  64.0375748  36.1817436  75.3629761
  75.0638046  59.7581253   5.8299589  75.1723099  58.8090439   5.7690964
  74.2013550  59.9254570   5.4499445  17.7881222  43.4264221  83.4157104
  17.2830753  42.6133080  83.4191360  17.1300621  44.1174316  83.4911499
  17.0908756   7.4478679  73.8243103  17.0206680   7.1646886  72.9126587
  16.7462063   6.7123952  74.3307877  67.4089813   6.1056924  44.9736557
  67.2443085   7.0486031  44.9677963  66.7227478   5.7461991  45.5358696
  24.5775280  24.7522125  57.3977013  24.2499943  24.3134193  56.6125793
  24.9391022  25.5784702  57.0770836  39.4270592  63.7727432  38.5927124
  39.8455162  64.1268005  37.8079987  38.7162857  63.2253952  38.2588882
  22.5668449  64.8280411   5.3495736  21.7018471  65.1255646   5.6315107
  23.1639442  65.5169220   5.6413641  74.4160004  69.6511688  84.8966751
  75.3564606  69.6655731  85.0742950  74.3135605  70.1799850  84.1054230
  72.5922928  70.2239914  12.3428516  73.5265884  70.4309845  12.3211174
  72.5561829  69.2709045  12.2619200  16.4614620  40.9963112  71.9209824
  16.9842339  41.6984711  71.5337982  16.5028477  41.1586609  72.8634033
   5.2805705  34.8752518  39.6723061   4.8724680  34.9302788  40.5363998
   5.9436274  34.1909790  39.7637177  53.0549393  53.2631111  68.8149643
  53.4880676  54.0772362  68.5583801  52.3971024  53.1172218  68.1351166
  67.2078552  15.4652586  80.6445694  66.5515442  15.2403936  81.3040543
  67.8263397  14.7349463  80.6634293  21.7672672  62.7220459  48.6032753
  21.5291348  62.5794182  49.5193443  21.6677380  61.8628082  48.1933556
   8.3092709  46.4648399  42.7622452   8.6817913  46.3334312  43.6341362
   8.9504280  47.0112381  42.3077126  33.6199799  54.3375816   1.4316480
  34.5157242  54.2032356   1.7411958  33.6925697  55.0405540   0.7860525
  71.6449203   3.6061809  59.2066956  71.5852890   4.5589061  59.1360474
  71.5464706   3.2927139  58.3076553  45.1030693  22.7546844   2.9018233
  44.8031998  22.0143814   2.3743193  45.2863808  22.3771248   3.7621007
  15.5769596  10.6287365  13.7038221  14.7179079  10.4914856  13.3045416
  16.2005253  10.3677111  13.0261316  63.5502434  48.6266823  10.7218218
  63.2398109  49.3656998  10.1986465  62.7517166  48.1793251  11.0019283
   4.0947866  18.4804688  70.1686935   4.1091895  18.1623249  69.2660294
   4.5932388  19.2972336  70.1427612  19.4145222  65.4435196  89.3643265
  18.8703709  64.8137665  88.8915176  20.3128567  65.1943588  89.1471939
  15.0615263   2.5596473  13.0972452  15.1401901   1.7748965  13.6396561
  14.1182280   2.6931698  13.0045557  38.5329819  57.2315598  20.4107227
  37.6466560  57.5273170  20.6185341  39.0981178  57.9494858  20.6960926
  51.9493217   0.8081453  81.8307114  52.4696617   1.5995011  81.9693985
  51.7469788   0.8154393  80.8951721  47.4353104  47.8156433  45.4695206
  46.6039505  47.8640633  44.9975815  47.3844910  46.9956512  45.9607048
  19.0019093  36.5712318  87.2273178  18.1196518  36.8456154  86.9771805
  19.3588066  36.1637955  86.4381027  77.0890121  37.4436188  73.5009613
  76.2411499  37.0673828  73.2647247  77.0142059  37.6344833  74.4359512
  79.6124191  41.8246346  85.9297256  79.6065979  41.4281120  85.0585327
  80.5035858  41.6856003  86.2502136  56.3242989   7.5273871  41.8328438
  56.7559929   7.8330011  41.0350533  55.9963722   6.6563878  41.6091080
  78.8563004   6.6877308  56.2473068  78.6703186   6.9590993  57.1461983
  79.5302734   7.2977543  55.9475441  25.8790035  61.1656685  85.2039337
  26.2326984  61.2744255  84.3211517  25.8989697  60.2207108  85.3552246
  13.2629728  70.3113098  41.2927551  13.2244167  69.4765091  41.7594986
  13.9622679  70.1941147  40.6497269  64.2298126  59.9909210  73.3202744
  64.3568344  59.5113602  72.5016632  63.9152603  60.8525887  73.0467377
  36.0366745  71.0865784  29.8111420  36.1942444  71.4481888  30.6832905
  35.2355614  70.5714645  29.9065800  67.0765533  16.6234303  76.6725159
  68.0010147  16.7518444  76.4601135  66.9385986  15.6806126  76.5814285
   9.9443321  70.7371750  65.8041382  10.1441631  70.0217896  66.4078979
  10.5320845  71.4449234  66.0684814  36.0388908  59.4365120  16.8821564
  36.1955261  59.1155167  15.9940920  36.5457153  60.2466774  16.9368706
  38.1518021  70.5516968  55.4052124  38.1843681  70.9336166  54.5281105
  38.6503372  69.7379684  55.3307800  25.1160297  63.7282600  64.2770004
  25.9807262  63.3264847  64.1926956  24.6449928  63.1576920  64.8842926
   9.1574621   2.3802540  84.3112106   8.7480726   3.2349033  84.4461441
  10.0537014   2.5835743  84.0435410  63.5806618  14.3551884  53.2812729
  63.4199486  15.2985058  53.2577057  62.7100334  13.9622698  53.2192154
   1.5422080   8.6028728  36.0192337   1.4850289   7.9859204  35.2896233
   1.9669658   9.3755846  35.6467705  67.9922867  23.5303555  53.9571686
  68.3924561  24.3948784  53.8639259  67.0804291  23.6590919  53.6960640
  44.6199226  28.9434185  71.5014877  44.7906113  28.0568790  71.8195190
  43.9642563  29.2923832  72.1052704  72.2916794  31.5817127  51.0235481
  72.1012878  30.7250099  51.4057045  72.0526276  32.2074547  51.7073097
  39.6985207  14.0631886  68.2269516  40.2912598  13.5464001  68.7726822
  39.8682632  13.7597466  67.3351364  37.6410561  59.6133156   3.1216979
  38.5980949  59.6160889   3.1044374  37.3978577  60.5375443   3.0679631
   7.8227401  11.6473436  56.2505074   8.7377529  11.4397678  56.0610466
   7.8636909  12.2691736  56.9770622  61.7305717  39.3343010  81.6338120
  62.1016769  39.6358910  80.8046265  61.3427811  38.4838562  81.4274292
  85.7238998  21.4045353  25.1098118  86.5382309  21.9076118  25.1075745
  85.8030701  20.8240242  25.8667603  43.9635429  14.0541182   1.9964685
  44.0698280  14.4100761   2.8786414  43.1289368  13.5863600   2.0258827
  56.0929260  29.2700787  10.1082726  55.3093719  28.7353611   9.9803963
  56.3357010  29.5538464   9.2269278  52.4576454  40.2675400  81.2189941
  51.6881599  40.7665329  81.4930954  52.1385384  39.3705864  81.1196289
  72.6118088  57.7353401  37.7548523  73.4855270  57.8250999  37.3743477
  72.7410736  57.1789665  38.5229492  27.2552395  54.8866425  16.0636024
  26.3814888  55.0567932  16.4155178  27.3530788  55.5172501  15.3501635
  55.6295586  26.7166023  65.0110245  55.3869095  27.3033562  65.7273102
  54.8425369  26.6621761  64.4689255  29.2263565  41.0126648  81.1987228
  28.8560162  41.6791763  80.6200638  30.1691265  41.1773109  81.1811829
  24.3232384  39.3901634  88.4534760  23.7050400  38.6762390  88.2973557
  23.8979092  39.9347382  89.1158676  85.7346115  30.5557289  53.7543602
  85.9335175  29.6547928  53.4994431  84.9431992  30.7746525  53.2624550
  65.0747070  19.3973522  21.3821239  65.2800522  18.5374718  21.0151501
  64.3280334  19.7049732  20.8682346  39.5423508  38.7653427  70.7920380
  40.0732880  39.2160606  70.1353836  40.1304970  38.6515274  71.5385971
  52.1842384  62.9247093  70.3832169  51.6953697  63.6442337  70.7826157
  51.5684013  62.1919632  70.3754654  58.1505585  11.5551453  41.3133354
  58.5784111  11.0534344  40.6194611  57.9507294  12.3998041  40.9097900
  64.6545334  46.0656929  34.0470009  64.6275635  46.4595833  34.9189835
  63.8651543  46.3897438  33.6132889  54.5186539  27.6333694  53.2935562
  54.5578461  28.5684910  53.0929527  54.0377426  27.5856056  54.1197968
  19.8913555  46.9758606  86.6719437  19.9633789  46.0560760  86.9269791
  19.7788200  46.9528122  85.7216644  36.4812012  47.4302597  57.8111687
  37.4114685  47.3860130  57.5900917  36.2067299  46.5155716  57.8762932
  17.5108070  68.6702499  13.6389122  17.1420708  67.8752289  13.2539434
  17.5356979  69.2971344  12.9159813  45.3745880  18.2694874  19.6301689
  44.6078529  17.7182961  19.7868080  46.0789223  17.8448200  20.1198616
  78.4311600  41.8337212  54.0344048  79.3816376  41.7250252  54.0662003
  78.1377335  41.6372910  54.9240952  70.3729477  59.9324188  29.8291550
  70.3296967  60.4803238  29.0454674  69.5031815  60.0069733  30.2218132
  43.5320587  15.5106516  64.6013947  43.8287086  16.1044407  65.2910614
  43.4595108  16.0640259  63.8237381  62.9177170  28.8239689  18.2666264
  63.3472786  28.4709225  17.4874821  63.4079857  28.4519348  18.9997444
  71.3663788   6.9274912  58.2717133  70.8972015   6.9034967  59.1057014
  70.6775665   6.8885531  57.6081963  55.2264214  17.9810905  11.7944937
  55.8970413  17.6760521  12.4055996  54.4108772  17.9403248  12.2939548
  18.0358429  11.0515900  25.1041279  18.7522888  10.4492579  24.9038010
  18.4123611  11.9223814  24.9768963  75.5396957  28.0840740  83.5369263
  75.8401260  27.1756973  83.5655899  76.3310776  28.6027584  83.6815567
  14.5406666   3.1733937  84.3454514  15.1841526   3.2594192  83.6420670
  14.9833250   2.6481822  85.0121155  13.2087545  61.3713913  17.3843594
  12.5744457  61.5490036  18.0788670  13.3074188  60.4192963  17.3878536
  56.6738548  66.6556702  11.1427755  57.0205841  66.4208221  12.0035076
  55.8667183  67.1341248  11.3321009  82.1579666  57.9031715  69.2066956
  82.2882996  56.9560051  69.2527924  81.4213638  58.0146065  68.6056747
  33.0799408   6.8013806  39.3627472  32.3890686   6.2339072  39.7046585
  32.6544724   7.6501732  39.2412605  71.6633682  42.5740623  -0.0992701
  72.1312943  43.3757477  -0.3328794  71.0853806  42.8344383   0.6179246
   2.2750180  -0.1549114  12.5148554   1.6457109  -0.0241780  11.8055506
   2.1555943   0.6052756  13.0841398  59.5360031  33.7023773  73.6662216
  59.8390198  34.5664215  73.9452286  59.8571548  33.6141853  72.7688293
   4.6135116  46.7603760  61.3586960   5.1029468  45.9883461  61.6426964
   5.0885110  47.4987450  61.7400360  61.6696205  12.5472670  15.6457367
  62.5974846  12.3700838  15.4911203  61.2165108  11.7876148  15.2798796
  54.6691589  55.0604210  79.1426468  54.6831932  54.8351669  78.2124405
  53.9085236  55.6334915  79.2388611  69.9283752  39.0500336   8.0909424
  69.8933411  38.7868919   7.1712890  69.0159760  39.0330315   8.3798561
  53.0238991   9.4508314  18.8498955  52.5047874  10.1486034  19.2497311
  53.2975311   8.9038935  19.5862484  16.3397369  64.8432159   9.3227158
  16.0936203  64.0467072   9.7930717  15.6762447  65.4852371   9.5753288
  26.9255905  46.4228020  29.2567978  26.0352459  46.5626526  28.9343681
  27.3526077  47.2737312  29.1577778  18.3141613  63.3438225  26.8139858
  18.6656952  64.1977234  27.0660095  17.3697262  63.4841309  26.7462559
  -0.1459631  26.7640610  69.2701874   0.7756763  26.9245605  69.0675735
  -0.4241669  27.5424538  69.7528229  73.3979187  17.1387234  71.4070663
  73.6764984  16.8398457  70.5414505  73.4775848  16.3648586  71.9647598
  28.8791332  68.7139587  62.0654373  28.9526901  69.5399246  61.5873222
  29.7709446  68.5264816  62.3582764  18.2039337  34.1732330  83.1577148
  18.7290707  34.1248741  82.3588867  18.2282524  35.0976906  83.4047318
  24.8248901  39.9603081  53.7654381  24.0504265  40.5048828  53.9064293
  25.1654358  40.2433281  52.9168167  61.8449745  56.3629799   8.1350431
  61.0906181  56.3470116   7.5460382  62.4263268  55.6812134   7.7982039
  50.1377640  41.9061966   6.7144523  50.2222137  41.9008522   7.6679044
  49.5554848  41.1713943   6.5214548  27.7581615  27.6891747  81.7909012
  27.6289291  26.7446423  81.8768692  28.1350346  27.8008976  80.9181366
  56.2373314  20.2014904  65.7912292  55.4982414  20.2988281  66.3916473
  55.8353500  20.1380978  64.9248505  31.4494667  66.0414810  27.8379574
  32.1298714  66.2473526  28.4789696  30.6374035  66.0340958  28.3446445
  61.0055199  16.4985065  38.3573418  60.4462776  15.8110285  37.9956055
  61.6887283  16.0259781  38.8329201  70.3347321  31.5837841   9.8977995
  70.7342529  31.8171844  10.7357349  70.9256821  31.9506836   9.2402353
  62.5000458  41.2049980  41.3367653  63.3226738  41.4069252  40.8909645
  62.4269066  40.2520332  41.2844238  45.7074318  69.0753174  24.3953533
  45.6431694  68.2502136  23.9144135  46.3189163  68.8900986  25.1081028
  11.8859110  18.9768620  14.1005135  12.3057985  19.5866661  14.7071962
  11.7504368  18.1816063  14.6157303   9.3838110  60.2143097  77.4004211
   8.6402245  60.5770836  76.9190598   9.3275118  60.6168480  78.2670364
  32.4469757  68.2724762  32.4516602  32.7041473  69.0084457  33.0070457
  31.6436424  68.5660172  32.0218658  44.0191193  64.2399521  54.9016304
  43.9633942  64.9455643  55.5460167  44.6458817  63.6215897  55.2771683
   7.1342683  22.9167595  68.1698303   7.4520636  22.1157284  67.7531891
   6.2381001  23.0147667  67.8480988  80.2805939  42.8885155  78.3175735
  80.7611771  42.1525002  77.9386902  80.4530792  42.8289223  79.2572174
  78.6633224   2.6081955  82.6497955  78.7041092   1.7957497  83.1542740
  78.5491409   3.2935030  83.3082352  25.3585949  47.2537270   2.9887819
  26.2190914  46.8876343   2.7844489  24.7556324  46.7845840   2.4120893
  55.0481796  42.6621399  42.6693726  55.5717888  42.4582939  43.4443016
  54.7080956  41.8152885  42.3805504  16.2074757  38.2224884  71.8782349
  16.5051804  37.9499435  71.0102997  16.1304855  39.1746178  71.8169937
  37.2014694  69.9452591  72.3516617  37.5328026  70.8194885  72.5570374
  37.9879799  69.4121857  72.2356491   4.0080419  69.9287872   4.0705924
   4.0900111  69.0662460   3.6637461   3.8534331  70.5253601   3.3381753
  23.1832066  31.6764469  73.8251724  23.6638203  31.1650219  73.1742554
  22.9673958  32.4936676  73.3759384  47.6100159  39.3045349  55.9014816
  47.5968323  40.0169716  55.2623482  47.5287895  38.5091209  55.3752213
  76.3938293  23.2822590   6.7419047  77.2055359  23.4853668   6.2770324
  75.7020264  23.6295776   6.1788688  72.9169235  11.9992313  79.9633636
  72.6907196  11.1680059  80.3806534  72.8824310  12.6406784  80.6730042
  50.5501251  66.7899323   3.3667693  49.8193321  66.6259232   3.9628205
  50.3190384  66.3153915   2.5682423  40.7813644  36.6889114  85.5789871
  41.6182365  37.1312561  85.7211380  40.3377190  37.2219772  84.9192505
  47.4149475  21.9378090   5.0270238  47.1642570  21.3678398   4.3000288
  48.1305656  22.4695873   4.6786928  76.0374527  19.5622997  21.3555870
  76.4490891  19.2923622  20.5346622  75.1180267  19.7008991  21.1282520
  72.0441437  71.0577087  69.0723419  72.6716843  71.4003601  68.4359283
  71.1874847  71.2773438  68.7061157  28.2122650  49.3569832  80.3158112
  27.5340710  48.8477783  79.8719711  28.9303360  49.4011803  79.6844254
  68.6948395  69.5340805   2.6257982  68.5791626  70.2942123   3.1959312
  68.4490738  69.8478241   1.7555128  64.0569992  46.6138420  43.7344093
  63.3754616  45.9839935  43.9689980  63.7859726  47.4286308  44.1573639
  38.1309509  43.0733185  74.2403793  38.8756943  42.9729156  73.6474991
  37.9942322  42.1982918  74.6035080  69.1956940  23.9864140  80.6010056
  68.8472900  24.0136681  81.4921341  68.8007050  24.7421608  80.1661987
  44.9578552  29.6964302   1.8308864  45.6777039  29.4289074   1.2595034
  44.3487778  30.1533813   1.2508407  79.0841675  26.9753284  23.6486931
  78.8677826  26.6573086  22.7721825  79.3327713  26.1887817  24.1342564
  80.5836182  50.7887001  42.1763954  80.9125977  50.5816422  41.3016777
  80.5694733  49.9472008  42.6323662  26.9772549   2.1512423  11.8514318
  27.8537312   2.0946560  12.2319803  26.9268837   3.0389774  11.4970016
  70.9863281  26.8930149  22.0146866  71.3551254  27.6583748  21.5737305
  71.7483063  26.3708115  22.2655220  57.2600975   7.9869800  31.8184357
  57.9424553   7.7574716  31.1876049  57.5090256   7.5252528  32.6191063
  79.8393478  60.6552200  37.7993317  79.8848190  61.4461441  38.3365479
  79.7865295  59.9387512  38.4318771  82.3157883  45.4455719  65.3420563
  82.0724030  45.8048782  64.4888916  81.7774200  44.6593933  65.4332581
   1.4755539  56.8125763  78.9529572   1.1231592  57.4576950  78.3398666
   2.2478199  57.2356796  79.3282166  84.2738190  48.0172081  39.0900764
  84.1937637  47.0997429  38.8291550  83.4287338  48.2279091  39.4871559
  72.0368500  60.1769257  73.6404495  71.6617355  59.5461426  74.2549744
  71.4724045  60.1246185  72.8691559  34.2688828  19.6185436  74.6583099
  34.6649551  18.9880733  74.0567627  33.3263359  19.5145550  74.5278244
  75.4644394  15.7575617  48.0170097  76.1402664  15.7510481  48.6948357
  75.6195984  14.9566050  47.5163841  69.7797318  49.0583649  30.4157276
  69.7657013  48.4283676  31.1362400  70.0023880  49.8917656  30.8305740
  70.0125504  57.5397148  59.2822838  70.8877106  57.7487488  58.9557343
  69.8529205  56.6444702  58.9834785  52.9234161  57.5165100  38.3354149
  53.7100143  57.3100662  37.8305664  52.5381851  58.2666740  37.8825531
  83.0197906  61.6997910  49.5772057  82.5488205  60.9344063  49.9067612
  83.6370087  61.3442230  48.9377975  12.4480829  62.9597893   3.6918826
  12.9890461  63.3018608   4.4036255  11.6135683  63.4196930   3.7830107
  31.2142105  32.3009529  12.3026695  31.6903152  32.9725761  11.8143215
  30.5624294  32.7881393  12.8067150  40.8326836  32.6104393  17.5816689
  40.9124107  33.0949287  18.4033413  39.9610214  32.8340149  17.2553997
  11.3424397  34.7488098  80.9816895  10.8470020  34.3140106  80.2876205
  12.1919241  34.9415550  80.5848770  49.1046829  48.5394859  49.8048363
  48.9767609  49.4614220  50.0282249  49.4108200  48.5530167  48.8980141
  49.1367607  29.4108486  58.0237083  48.7040405  30.2339764  57.7968979
  49.5679131  29.5892754  58.8594742  83.8132477  28.1978912  88.3729630
  84.7612534  28.0978680  88.4596634  83.5202255  27.3744411  87.9827042
  31.6312141  55.5057068  87.5533752  30.8819942  55.7678719  88.0883255
  31.8118877  54.6042137  87.8196564  42.8733788  37.1125641  67.6849060
  43.0105743  37.0721779  68.6313629  42.3124313  37.8774910  67.5566330
  38.4797516   6.1750588  13.5321398  37.9377632   5.8233013  14.2383595
  39.3791504   6.0422325  13.8315926  49.6395416  32.5183525  10.8892984
  50.0642014  32.8913574  11.6618042  49.4634781  33.2716484  10.3255806
   1.6268214  38.5313911  61.2999649   2.0503016  39.3704071  61.4814720
   1.3138653  38.2314758  62.1533928  11.0853767  30.4773293  26.5546532
  11.0396013  29.5591946  26.2878857  10.8222466  30.4727516  27.4749660
  84.2680817   1.0303975  72.3715515  84.7915726   1.2530565  73.1413651
  84.4496613   0.1031311  72.2184601   8.7499781  57.4321556  86.4152985
   8.4780960  57.2940636  87.3226242   9.3160048  56.6857224  86.2186279
  21.1648731   1.4605033  58.2029800  20.4814987   1.9214340  57.7163849
  21.0062103   1.6935564  59.1177177   0.9205791  30.4816628  86.7970123
   0.6364874  31.2951202  86.3801041   0.9372248  30.6849480  87.7322235
  72.1550598  22.3757915  80.1442108  71.6931763  21.5492306  80.0038834
  71.4657669  22.9996738  80.3719635   9.5370922  31.7121449  74.9487915
   9.4515820  32.5331268  74.4641113   9.6352262  31.0431366  74.2712708
  51.7363014  12.5316992  88.4065933  51.9293060  13.4061165  88.7447891
  51.0652466  12.1892586  88.9970627  57.9956741  22.7067680  65.5161438
  57.4461708  23.2873611  64.9896545  57.6251373  21.8352013  65.3771973
  58.5041733  15.5722942  46.2789230  58.2778053  16.0333729  45.4712143
  59.4608955  15.5421419  46.2774200  20.2833672  50.9546127  59.1520119
  19.7494640  50.4307289  58.5547447  20.2481232  50.4807968  59.9829674
  72.7773132  37.0637856  18.5132694  72.7045212  37.9979477  18.3176365
  72.8666382  36.6459503  17.6567249  75.7272873  48.2172050   9.5274525
  76.2668686  47.7989120   8.8565454  75.7535248  47.6113205  10.2680254
  70.7849579  15.2951708  31.9211235  70.3919907  16.1555023  31.7740192
  71.1708679  15.0606508  31.0771408  57.9872475  63.0571594  24.3080387
  57.8326836  63.1265030  23.3659496  57.5106163  62.2700348  24.5716534
  54.1304741  58.2423286  29.4434166  54.2215157  58.9891930  30.0351391
  53.7652092  57.5467148  29.9901657  59.9856453   1.5402068  63.9523315
  60.7827568   2.0576849  63.8380470  60.2274094   0.6606784  63.6621361
  28.0168724  70.3396835   4.7739186  28.0052013  70.8878708   3.9893250
  28.8593502  69.8867874   4.7371564  10.9460306  28.7482605   4.5840244
  11.8804197  28.9445267   4.5159850  10.6404438  29.2877903   5.3132396
  57.7015495  49.9571037  56.0748215  58.2566338  50.7281723  56.1913033
  58.3144073  49.2222137  56.0508194   3.6617520   1.4892864  37.0171051
   2.7227561   1.6152132  36.8805008   3.9112220   0.8283108  36.3712654
  15.4625683  48.1508789  43.2574501  14.6027784  48.5102272  43.0386772
  15.2777967  47.2713470  43.5868645   8.1076899  17.4324169  82.8562088
   7.8719630  16.7551289  82.2222137   8.5014944  18.1274605  82.3288879
   9.9419174  60.1780624  54.7260742  10.4719973  59.6578979  54.1221886
   9.0570164  60.1381798  54.3633156  81.8066788  57.3621445  32.2790794
  81.9168777  56.4280357  32.4566307  81.8505249  57.4314766  31.3253994
  57.8578529  32.8235397  24.3171711  57.1206779  32.8364487  24.9276142
  58.6320801  32.7720146  24.8776588   0.8126937   7.0430722  76.0877914
   0.6752446   7.9525943  76.3525772   0.3742139   6.5276546  76.7647781
  73.2082596  11.4146376  19.2541924  73.2507935  11.2915192  18.3058968
  72.6245651  12.1639948  19.3724823  50.0003128  39.7732964  11.2093859
  49.6895370  39.1308365  10.5715036  49.2091751  40.0596733  11.6658077
  44.8078575  24.5703220  77.1009674  45.2211151  25.4225540  77.2393646
  43.9510956  24.7773762  76.7277145  44.2119408  21.9253311  86.2726288
  44.1917572  22.8645477  86.4561920  43.2952766  21.6893654  86.1302261
  21.6279182  18.9044647  60.0551224  21.4947433  19.4263134  60.8464317
  20.8116741  18.4155693  59.9504433  83.1271057  16.9952469  65.4483337
  82.5951843  17.7763367  65.2960663  82.7361374  16.5859623  66.2202530
  49.7696609  24.7074184  53.9102707  49.0801811  24.4035931  54.5006371
  50.5626602  24.7040825  54.4463463  65.5178604  66.2924271  44.6575966
  65.1011810  66.2812729  45.5192757  66.4147034  66.5797348  44.8289375
  49.0453491  23.3675098  15.4806538  48.8764343  23.9611301  14.7490015
  49.2343597  23.9458466  16.2195930  72.6576157  42.7117310  19.9585018
  72.9119186  41.9714432  19.4075661  73.2404633  43.4217949  19.6895618
   6.5413218  20.5477409  60.3586426   7.3200808  20.8420544  60.8310280
   5.8890314  21.2283249  60.5246353   1.9499573  35.3606491  10.3221846
   1.4116654  35.1816673   9.5511856   1.8076103  34.6063538  10.8940296
  79.7876511  68.4324341  28.8199635  79.4623718  67.7315292  29.3848934
  79.1802979  68.4451828  28.0802460  58.6184464  47.6768875  43.7967911
  59.0280876  47.2563858  44.5528374  58.0954628  46.9848709  43.3920288
  65.1331635  69.0457993  87.9849167  65.4360046  68.4594803  87.2915573
  64.4600754  68.5446396  88.4453735  53.4356613  37.4515305  33.8903923
  54.2473755  37.8742981  34.1707878  52.7970467  37.6896286  34.5624886
  68.2779922  21.1259899  28.0177155  68.3709564  22.0603161  27.8316307
  67.3600998  20.9337654  27.8260326  54.9568291  54.1114311  81.6973648
  54.5130234  54.4730721  80.9302368  55.4079399  54.8598289  82.0880508
  81.3585281  51.8261795   1.1659102  82.0817642  52.4301758   0.9975424
  80.5712814  52.3614540   1.0661147   7.7768064   4.2037597  32.8321915
   8.2532206   3.8490112  32.0815811   6.8538027   4.1002064  32.6007309
   0.3555998  16.0317783  57.5626259   1.2180176  16.2483025  57.2082481
  -0.1155269  15.6431503  56.8255806  54.8284645  41.9639931  71.5237122
  54.7766609  41.6482468  72.4258499  55.2440529  42.8233795  71.5942307
  66.6695023  44.0691719  71.2690201  66.0836105  43.6408768  71.8931427
  66.5224609  45.0050545  71.4058838  26.3595428  24.2788906   2.7838457
  26.9571457  23.9505119   3.4556127  25.5550442  24.4858704   3.2594225
  54.0723457  10.8543787   9.9042568  54.5654373  11.6556978   9.7282457
  54.7245941  10.1556768   9.8531017  76.6948471   6.1824293  78.5837936
  75.8719635   6.2213731  79.0712128  76.8442612   5.2479076  78.4403458
   4.8497696  13.4945383   6.5195036   4.0389595  13.9411821   6.7630773
   5.0214238  13.7818966   5.6227365  10.7931576  29.0051708  81.5860519
  11.1681623  29.8410835  81.8632812  10.2994299  29.2152824  80.7933884
  19.0562878  67.5635681  25.3994541  19.8954296  67.2332611  25.7203465
  18.9163761  68.3755264  25.8866615  83.7060394  36.8239136  56.3828888
  84.1269379  36.4888000  55.5911980  83.6050110  37.7620163  56.2216759
  73.4638672  33.3799706  67.9067383  74.1926498  33.9958229  67.8303986
  72.7095642  33.8575287  67.5614929  12.4233799  50.5460815  63.4225655
  11.9135351  51.0834923  62.8163643  12.3582573  51.0033798  64.2609329
  75.4504547  15.2186298  13.0285025  74.9764328  14.8455296  13.7716923
  74.7797394  15.3505373  12.3584461   8.4318104  47.9595718  14.3288212
   7.5544190  47.6892319  14.5996256   9.0088224  47.2758865  14.6692133
  85.0492706  53.8458328  86.1467209  85.4638138  53.3075256  85.4724655
  84.3182449  53.3142242  86.4617233  27.3890896  49.2388802  44.7547035
  28.1820354  49.1595535  45.2849655  26.6841583  49.3484955  45.3928947
   1.4353997  60.8991280  20.9855175   0.5352227  60.9070702  20.6601715
   1.4834050  61.6511841  21.5757179  63.3312111  26.2346897  47.6264458
  63.0513191  25.7458172  48.4003296  63.9115868  26.9142399  47.9693871
  50.3669891  59.4657707  42.6307449  50.9351654  58.7143974  42.4609070
  50.8251648  60.2069206  42.2345047  47.9018593  44.1789665  12.6892395
  47.2865715  44.7760353  13.1148720  48.7136154  44.6813545  12.6193218
  61.0124092  12.8931189  73.0005493  61.8261070  13.3967085  73.0234756
  60.6209908  13.1088619  72.1540985  52.3279877  61.2203941  15.9326611
  52.5429688  60.7646904  16.7465096  52.8386345  60.7667694  15.2620687
  79.0494232  34.4057198   1.6501905  79.5102463  35.2327614   1.7911720
  79.7055283  33.7323074   1.8298347  64.3510666  68.9961090  74.5068741
  64.0113144  68.1660309  74.1725464  64.7294464  69.4262772  73.7400513
  77.7972794  42.4858208  51.3356285  76.8509903  42.4581604  51.1942101
  77.9025955  42.3540497  52.2778473  27.6705208  49.3387184  65.5755157
  28.1095371  50.1823235  65.4667511  28.2441101  48.7116661  65.1350174
  78.8454514  33.5627251  34.0876884  78.0855026  33.5609894  33.5056992
  79.0387955  32.6364174  34.2319107  18.7735157   2.6354749  68.8901291
  18.8962593   1.6912841  68.7917938  19.5672112   3.0201929  68.5182800
   3.4953208  30.8356247  76.3219681   3.3330150  31.5330296  75.6867447
   3.3074305  31.2362652  77.1707458  57.1428909  23.5504017  56.1474915
  57.5757713  24.3908195  56.2976456  56.2085495  23.7583160  56.1505661
  53.6478043  13.0905848  61.0754242  53.0611992  13.8059492  60.8296928
  53.1983910  12.2994614  60.7781296   3.9747949  20.0410423  87.4468918
   4.7617536  20.5716839  87.5707855   3.2519038  20.6643810  87.5183792
  80.3105469  60.0264511  25.2722721  80.9935684  59.6463547  24.7197838
  80.1366425  60.8833313  24.8827305  37.2119179  39.7552757  46.4965706
  37.0816917  40.0287476  47.4045830  36.7348785  40.4047966  45.9800491
  10.2488203  21.7605114  64.5085373  10.6883459  21.5268936  63.6909370
  10.5955076  21.1423874  65.1519394  72.7549438   8.2073555   5.9256878
  73.4594727   8.8364706   5.7704706  72.0991592   8.4129534   5.2594280
  53.6512642  16.6162167  47.2951241  53.1034393  16.2606335  46.5953522
  53.0558739  16.7165508  48.0378723  55.0171738  32.2098846  16.8401222
  55.7876320  32.0532074  16.2941551  55.0020142  33.1585999  16.9663887
  46.8804207  57.5686150   1.1434228  47.6020317  57.4664040   0.5228911
  46.1405411  57.1284943   0.7249731   7.5667791  59.5989189  32.0671844
   7.1624522  59.0348053  31.4079952   6.8741889  60.2110023  32.3159866
  30.7705784  58.4194717  56.6559334  31.4031811  57.7718430  56.3450890
  31.2733231  58.9816246  57.2453918  71.8581161  14.3264542  56.9848442
  70.9782639  14.0427618  56.7366486  71.7189102  15.1350765  57.4777756
  46.1142120   9.9149733   2.6467862  45.3517914  10.2945299   3.0836847
  46.1182480   8.9990444   2.9247949  12.6281376  30.1268311  61.3067589
  13.4026384  29.6789017  61.6469612  12.9774160  30.8761253  60.8242683
  74.2528000  21.8809071  66.5377960  74.7858429  21.0860806  66.5190582
  74.6954117  22.4513626  67.1662140  27.2292480  70.9429855  64.7019043
  28.0128078  70.4961166  65.0221710  27.5546570  71.5505600  64.0376816
  25.2973461  26.4741535  16.7847080  25.0399380  26.9727688  16.0092354
  25.4669609  27.1393604  17.4517632  43.4638405  41.8448219  57.9069786
  42.9125671  41.7210579  58.6796455  44.1547928  41.1886940  57.9981384
  78.9922104  44.7815437  17.5326462  79.3996353  45.0489731  18.3564892
  79.7254410  44.6729164  16.9270077  25.2408810  41.7233009  16.8550243
  25.8390141  42.4304504  17.0967026  25.7174301  40.9219475  17.0717449
  66.4356384  17.3611908  42.6461754  65.6198502  17.8372536  42.8013802
  66.1735306  16.5985889  42.1304550  23.0220833  60.7730827   9.9272041
  23.3120747  61.6670380  10.1088133  22.1948185  60.8803482   9.4577799
  20.4432163  55.8346214   6.9193764  20.0393753  54.9919014   7.1266670
  20.8525448  56.1121101   7.7389388  62.1620712  30.9386578  72.8764343
  62.2971802  31.1972237  73.7880859  62.0138931  29.9937801  72.9149017
  34.7050171  59.4408531  83.1914902  34.7031326  60.0383759  83.9392929
  33.8531265  59.5744972  82.7759781  68.0477753  60.5610542  24.7686005
  67.8585052  60.8588257  25.6583996  67.2024841  60.2661781  24.4298248
  38.6949844   4.3511834  34.0501518  37.8527489   3.9533801  33.8296509
  39.0192528   3.8327560  34.7865753  74.3220825  60.1780052  60.5503311
  73.7984314  60.8704758  60.1472092  74.5231857  59.5799675  59.8305092
  57.1425056  63.9629364  83.5788422  57.1864738  63.0107574  83.6663055
  56.7275429  64.1064224  82.7282867  23.4518375  27.5118408  49.8207169
  23.7876301  27.7394943  50.6876945  22.5806847  27.9072800  49.7898560
  24.5353851  54.7741470  82.8468552  23.7694454  54.7066841  83.4169540
  25.2782574  54.8227768  83.4485245   4.1891046  12.3058558  87.5046768
   3.7672052  12.5647879  86.6854172   4.4306111  13.1329689  87.9215622
  18.0688152  40.1403122   6.5894675  18.0622311  39.2657700   6.9785261
  17.7997990  40.0005722   5.6815381  28.8469276  65.6181030  66.9355392
  28.7154007  66.0777435  66.1062851  28.7045612  66.2869492  67.6053162
  76.9216614   8.8951426  37.9520798  77.3918839   8.0753231  37.8003540
  76.9837418   9.0355406  38.8968887  28.1479053  32.8885689  10.1807346
  27.4602757  32.8569145   9.5156059  28.6669731  32.0992889  10.0263577
  35.2686043  61.7656746  80.0840454  35.3359108  62.3089905  79.2988586
  34.5607758  61.1511726  79.8901367  63.6551094  58.6076202  89.0105438
  62.7463417  58.4277725  88.7696686  64.0104980  57.7541962  89.2587357
  39.5565262  59.2080078  69.1153259  39.3513451  59.4836693  70.0087128
  39.2870369  59.9463348  68.5690002  52.4412231  35.6914749  25.2151432
  52.9770203  35.3773460  24.4868069  52.9618111  36.3900909  25.6115742
  85.8448944  23.7745476  31.9052277  86.4643784  23.6833363  31.1812496
  84.9898911  23.8475189  31.4811001   2.1732614  44.4179916  31.4175701
   2.0701766  43.4741936  31.2957287   1.7384214  44.8064003  30.6584358
  22.7986145  24.5078335  79.8088913  21.9025478  24.1932564  79.9286346
  22.7797470  24.9717255  78.9718246  59.7015839   1.7933052  71.1272278
  60.0376587   2.6353238  70.8201675  59.1120071   2.0187652  71.8468170
  30.4722824   0.3906738  15.5608139  29.8240547   0.7192037  14.9378357
  30.0121231   0.3762554  16.4000263  74.5743866  17.7562389  24.7273216
  74.7558365  17.7639904  25.6671333  73.6978073  18.1327801  24.6495171
  47.3934212  44.1040230  30.3689804  47.0268478  44.9753914  30.5192413
  48.3363953  44.2170181  30.4884129  47.6049080  48.8373337  80.1491394
  46.8705521  49.2676697  80.5870514  47.4660378  49.0143585  79.2187653
  34.1394386   3.1391668  61.7845917  34.8577385   3.0128171  62.4045181
  33.6860390   3.9211471  62.0995026  79.7073288  32.8787460  47.6696892
  78.9546814  32.5648308  48.1708984  79.6111679  33.8310890  47.6643410
  23.7383137  64.4633789  27.9898491  24.0091534  63.7437210  27.4197845
  24.4438629  65.1060028  27.9159622  62.5408478  50.8755913  15.7761230
  61.9525337  50.1622658  15.5285625  63.0657425  51.0362244  14.9919586
  16.5270424  41.7944183  80.0752563  15.9287930  41.0685349  80.2525177
  17.2635899  41.6481705  80.6688385  64.0868683   3.8445575  86.9817963
  64.2250977   3.9033294  86.0364609  64.2684021   2.9289861  87.1939392
  38.9475136  52.6084061  40.0010948  39.5779724  53.2733116  39.7242317
  39.4813576  51.9287453  40.4125557  80.0644455  65.7042847   2.4830987
  80.2031631  65.1834488   1.6920762  80.7074051  66.4106293   2.4205976
  10.0342350  18.8017902  84.8357925   9.5383053  18.1296425  84.3683548
   9.7019377  18.7643223  85.7326813  69.4254761  65.4641647  42.3759880
  70.1352234  65.1601257  42.9417229  69.2174835  64.7089844  41.8258324
  34.7540398  50.8532600  64.2153168  34.0638657  51.3972282  64.5947800
  34.5942039  50.8869324  63.2721596   9.8281174  63.4041748  66.1338654
   9.3666058  64.1518707  66.5135880  10.7162123  63.7251778  65.9774170
  46.4345741  68.2341690  20.6097488  47.2274704  68.0138931  21.0986538
  46.1339111  69.0555649  20.9985180  28.9011250   6.8809276  72.7604218
  28.7230892   5.9742346  72.5105362  29.5365067   7.1873398  72.1134033
  36.5949898  29.4371223  75.8170776  37.3611603  28.8979626  75.6208038
  36.4087601  29.8959122  74.9978943  32.6449089  61.4519005  45.4445114
  32.9766006  61.2027969  46.3071556  33.2833214  61.0913391  44.8291550
  69.0932159  33.7970123  17.1058464  69.6235962  33.7000732  17.8967495
  68.2963791  33.2994041  17.2893448  62.7697220  64.2540588  49.5295486
  61.9969101  64.0455017  49.0046692  62.9841576  63.4349823  49.9760551
  66.5634079   8.2913752  19.2903080  65.9459686   8.7453804  19.8637905
  66.6280365   7.4099455  19.6579189  71.5585556  19.4855328  68.2155075
  72.1502228  18.9599552  67.6770554  70.6866074  19.2938747  67.8702393
   3.8762934   1.0528934  80.0512238   4.0753436   1.0840917  80.9869843
   3.2874231   0.3042407  79.9564514  26.3623600  21.7565804  87.7294312
  25.6864719  21.0819607  87.7949600  26.7564526  21.7862663  88.6012344
   1.3342764  19.6560364  42.5944328   1.7334507  20.5251446  42.5551338
   1.7337798  19.1759605  41.8690681  31.6677189  38.5469971  85.2163696
  31.6705704  38.0263176  84.4131775  32.5910187  38.7384491  85.3809738
   9.0504189   9.0994959  58.3389549   9.4128666   9.8469334  58.8145599
   9.3776598   9.2026825  57.4453697  40.5478592   1.2267585  85.1391754
  41.4671783   1.4839294  85.0688477  40.0598373   2.0286427  84.9519653
  14.7406120  35.1014748  57.9653206  13.9945555  35.5532990  57.5710030
  14.7355719  35.3839111  58.8798904  22.4516544  23.5805073  41.9621887
  22.1153622  22.7277336  41.6866646  23.2236729  23.7219315  41.4142647
  86.2559814  22.1045551  49.6538582  86.7236633  21.2695923  49.6723366
  85.6065903  22.0308647  50.3532104  44.9765205  50.0255470  27.8504333
  45.5726128  49.6067657  27.2295246  45.5518494  50.4208641  28.5053768
  48.5628967  61.9433670  75.6287766  48.9169579  62.6943665  75.1524658
  49.3287582  61.5293655  76.0266418  52.8889809  35.1020546  78.5724869
  53.5827446  35.7478294  78.4386902  52.7509689  34.7160950  77.7074890
   8.9625540  12.2085533  14.6811543   8.7915611  13.0512457  14.2606030
   8.2170868  12.0776711  15.2671404  29.6544647  52.9761963  44.5910568
  29.8297710  53.7318268  44.0302315  28.9164181  52.5332527  44.1723442
  52.1538887  26.7709408  26.5749512  51.2527008  26.4573650  26.6508465
  52.2023659  27.5096169  27.1817780  31.5953789  24.7735882  78.7590942
  32.3798103  25.0272064  79.2454910  31.7466240  25.1017532  77.8727188
  28.4167328  15.0940390  87.0521164  28.3023777  16.0436897  87.0883942
  27.6561337  14.7433310  87.5155029  23.1039410  60.2806129  39.9843903
  23.3285694  61.2089539  40.0472870  22.5804462  60.1073151  40.7667885
  57.5369530   3.4991245  25.1759624  57.8430557   2.6886573  24.7689304
  58.1747780   3.6755764  25.8675385  31.7326336  31.7969151   0.6761994
  32.3109627  32.2022133   0.0300562  31.8092041  30.8573360   0.5101867
  65.0829315  42.7967911  40.6457558  64.7470703  43.6931343  40.6471176
  65.8197708  42.8161850  41.2564316   1.4652345  29.4359951  31.7348976
   2.0564771  30.1792164  31.8544292   0.8672416  29.7147713  31.0414124
  62.3635254  43.8149719   8.5394049  61.6960564  44.4826126   8.6974373
  62.4405022  43.3511810   9.3731928  70.2197113  19.7414551  26.4141502
  69.5716858  20.3495903  26.7697735  70.6272507  20.2206383  25.6926746
  62.9608307  26.8885078  45.1544495  62.4498749  26.0854130  45.2554245
  63.5711479  26.8783817  45.8917694  25.9398651  11.7029295  57.4414291
  26.1627522  11.3078537  56.5985336  26.6769619  12.2813692  57.6372070
  74.5320663  50.3746834  63.6782761  75.4879837  50.3923378  63.6320038
  74.2676086  49.8082008  62.9534378  47.7519646  66.5691147  15.7529135
  48.4278717  66.7960815  15.1142664  47.8513069  67.2194901  16.4481640
  34.0781784  10.6598339   3.5410550  34.3535767  10.6026926   2.6261110
  33.8402176   9.7629499   3.7760158  68.5278168  54.9637871   2.1607516
  69.2045822  54.6420326   2.7563133  67.8046722  55.2171478   2.7344260
  46.3402023  36.5586090  14.3601255  46.3089943  37.1025734  13.5731297
  45.5538521  36.0153999  14.3071585  49.2664795  46.7010880  76.0548172
  48.5798988  46.7322121  75.3885803  49.3034554  45.7814827  76.3178635
  17.9568787  68.3934937  35.5306511  17.7523880  69.3006287  35.7576180
  17.8643742  67.9139404  36.3538742  57.1414528  37.4165878  53.6015739
  57.8681602  36.8011398  53.5048409  57.5418930  38.2791061  53.4922943
   1.8451859  31.4165783  71.3538971   1.6349684  30.8301792  72.0806503
   2.5670559  30.9837742  70.8980255  79.7841492  70.9663620  37.2814674
  80.3423996  71.0613403  36.5097427  79.3447800  70.1250839  37.1571732
   5.1990418  11.5230188  28.4180031   4.9165144  11.2433729  27.5472507
   4.8313189  10.8677902  29.0110359  61.8924561  26.8361797  42.2127457
  61.7880173  26.4495850  41.3433418  61.7787132  26.1021652  42.8165016
  29.3887157  35.8683968  69.4928741  29.2244148  36.7038574  69.9301910
  28.5168610  35.5149384  69.3163300   8.6142225  10.6209745  24.7050304
   8.3493137  10.5016623  25.6170712   8.7834921  11.5597372  24.6256313
  61.3871346  16.2360229   4.2078161  61.4825859  17.1782455   4.0687504
  61.9448280  15.8375893   3.5396404  25.7016525  13.2921276  84.7728119
  25.5760975  12.3473501  84.8614883  26.4563141  13.3798485  84.1905518
  76.9311752  52.7582169  64.9587250  76.5118179  52.6124458  65.8067322
  77.8611374  52.5999222  65.1210480  29.1921463  51.7634850  28.6698170
  28.2772350  51.4895859  28.7342167  29.1512413  52.7152748  28.5768032
  53.9595566  16.5687084  74.8191376  54.6053772  16.1221237  75.3666000
  53.1170006  16.3549442  75.2199326  44.7080078  69.1938858  43.0014915
  44.1614952  69.0955505  42.2218208  44.4018936  70.0046921  43.4078484
   5.2334895  65.6721802  18.0068741   5.3759608  65.4536667  17.0859032
   6.0529842  66.0807800  18.2856350  61.0646172   3.6368010  23.0554161
  60.3049431   3.5639005  22.4776497  61.4529724   4.4834008  22.8347759
   0.3405471  71.7680511  68.2665024  -0.0677641  71.0691986  68.7775040
   1.0263141  71.3280869  67.7641220  27.5955143  41.5609055  87.7850189
  27.3257179  41.8213654  88.6657028  28.4160557  41.0858879  87.9165497
  17.9717407  53.1674118  32.9458733  18.6888237  53.1667099  32.3118210
  17.9013996  54.0797272  33.2268906  81.4439240  40.3627701   0.2556863
  82.3375092  40.0688477   0.4327575  81.5252380  41.3063507   0.1168609
  70.6027908  23.5083408  58.4133148  71.1100616  24.2608967  58.1090622
  71.1524582  22.7513161  58.2108116  44.6970596  65.5916061  27.3644524
  43.9843712  65.5188904  27.9992886  44.2935638  65.3706970  26.5250359
   0.7892641   6.3370976  68.3339844  -0.0396375   5.8778677  68.4691238
   1.1971254   6.3549142  69.1997604  61.2911530  36.7162628  60.4803734
  61.2960625  37.2146568  59.6631775  60.4345627  36.2893486  60.4954071
  26.8134212  21.1617184  73.8677902  27.3885956  20.9105053  74.5904922
  27.2153473  20.7675095  73.0936584  22.0867405  21.7963829  77.3668289
  21.9966526  20.8504009  77.2517853  22.7745934  22.0481625  76.7506332
   7.9347692  42.0137749  38.4008980   6.9974813  42.0612717  38.2125702
   8.1466866  41.0831146  38.3288383  62.8919983  63.4265404  55.1251259
  62.9371071  62.5388908  54.7697716  63.3446312  63.9670258  54.4776459
  24.6060886  48.0789108  11.3904772  25.1556530  47.8444214  12.1382914
  25.2265320  48.2552605  10.6832399  25.9451618  39.5023117  69.7582169
  25.2324390  38.9361000  69.4621429  25.6282730  40.3908691  69.5961075
   1.0966237  55.7669983   4.7960572   1.6286944  56.2832947   4.1906080
   0.4628782  55.3190269   4.2357717  46.2963295  11.2598896  83.1998596
  47.0812798  10.7147417  83.1460114  46.0632706  11.4349232  82.2881165
  73.5511398  21.1892204  54.1498909  72.7461929  21.1752300  54.6676750
  74.1926651  20.7301311  54.6920280  21.8808117  29.3687782  78.3217163
  21.9619560  29.4451714  77.3710251  21.3235645  28.6017723  78.4536667
  60.4205818  13.1942587  70.2810211  59.8765793  13.6223612  69.6199417
  61.3187675  13.4005413  70.0222855  11.2199507  45.8005066  71.6768417
  11.7905884  45.1180725  71.3234406  11.8176403  46.4177246  72.0987778
  77.3109894  60.0870361  22.6119900  76.7736435  60.2108650  23.3943920
  77.5195389  59.1528320  22.6100502  23.4398174  41.4204636  63.9245338
  22.8715801  41.3747330  64.6934586  22.8784466  41.7695923  63.2322884
  21.9816360  18.8798409  85.7902832  22.3919888  19.5809364  85.2840195
  22.6361237  18.1815491  85.8066025  59.3969269  34.4930344  77.8969498
  60.1261406  35.0605545  77.6471558  58.6229591  34.9238968  77.5342331
  66.6332779  18.7365932  83.4745407  66.8241119  18.2330971  82.6831436
  65.6840591  18.6694889  83.5780334  25.0261612  11.3150692  70.5969467
  25.4693108  11.4599257  71.4329300  24.3799381  12.0191612  70.5432663
   3.2085159  67.7645798  78.3288727   3.5754223  68.4513245  77.7721024
   2.2735348  67.9650803  78.3718033  42.5718498  70.3904495  74.3187256
  43.1649475  70.5005951  73.5755386  43.1062317  70.6000214  75.0847244
  26.9126644  40.4675140   1.5638773  26.9062309  39.6451225   1.0741222
  27.1224308  40.2100258   2.4616125  12.5343380  70.1879349   5.9817042
  13.0605288  70.9135132   6.3176970  11.6569347  70.5562515   5.8780684
  35.9662323  29.8601437   1.3301097  36.2806511  29.3008099   0.6198144
  35.2466698  29.3662853   1.7232542   6.8792849  36.9773674  20.7270508
   7.1684165  37.1380386  21.6252823   6.1932120  36.3151932  20.8111019
  62.4254456  54.9720612  47.2979774  62.5907402  54.1212273  47.7041664
  61.5768394  54.8708420  46.8668671  66.9853058  66.6949310  40.6959610
  66.3061447  66.0692215  40.9478798  67.7183533  66.5008469  41.2800941
   2.6073499  22.0117188  25.6120872   1.9236813  22.5369186  25.1961613
   3.3096781  22.6354122  25.7964077  57.0826263  22.9851379  17.6342869
  56.6432114  23.7260532  17.2169247  56.3734131  22.4766312  18.0275650
  30.2964268  69.1847610  37.5883026  30.6194534  68.5378494  36.9610977
  29.4584675  68.8312988  37.8868294   7.4665895  53.0788651  22.0258160
   8.3441334  52.8393364  22.3237667   7.3878207  54.0092964  22.2363453
  67.7843399  51.0016899  83.4986496  67.0076294  50.4521980  83.6035614
  68.3477783  50.5086250  82.9022751  81.1577988  36.1463547  72.0988007
  80.9262314  35.9297523  73.0019608  80.5774918  36.8724899  71.8703156
  35.5613289  28.3287544   6.7004681  36.3239899  28.5964298   6.1877031
  35.0267754  27.8228912   6.0884328  80.5045242  13.0818605  68.1696472
  81.4120407  12.7961588  68.2746277  80.0077972  12.2697592  68.0697403
  31.6933098   2.4647820  84.7823029  31.5273991   1.9230350  85.5538025
  32.5168495   2.9123287  84.9765091  54.4382172  55.2901306  46.3346481
  53.6139145  55.4255142  45.8672867  54.3674965  55.8457413  47.1108742
   5.0899363  70.7951965  24.8102837   4.2376652  70.7425919  24.3777351
   4.8857684  70.7736511  25.7452087  71.0877762   2.5743587  56.7300987
  71.5469284   2.0231397  56.0964012  71.1517258   3.4585633  56.3690948
  54.0154839  30.9870129  55.7264290  54.0521851  31.8753262  56.0810890
  54.9322472  30.7373104  55.6105690  34.1929512  64.6866760  51.3006020
  33.2691574  64.4482346  51.3779564  34.6589737  63.8509750  51.3262100
  13.4711618  65.4798279  87.3566208  14.2161779  65.1946106  87.8856201
  13.2689905  66.3573608  87.6810989  52.8539429  40.3267708   2.8502009
  53.2115593  41.2044296   2.9845765  52.2299232  40.2101326   3.5665989
  27.6015263  29.7458076  63.2430267  26.7504883  29.3536758  63.4384727
  28.2383862  29.0917416  63.5308456  11.5832415  68.7229996  39.1763992
  11.7538118  69.3636398  39.8668480  11.0674448  69.2017441  38.5275650
  35.4587555  49.8775139   4.6962667  35.5553551  49.6205978   5.6132698
  35.9116669  50.7184944   4.6341610  30.0454693   6.0774465  42.9120178
  29.5217342   6.2048039  43.7030373  30.9477043   6.0269189  43.2276917
  59.2617645  61.4496803  81.3195114  59.1685753  60.4984093  81.3707962
  59.1063957  61.7541084  82.2136154   5.3198180  57.4057236   5.0349379
   4.4042006  57.6698227   4.9447799   5.2996678  56.6812172   5.6601706
  28.3968353  27.3399849  64.9501266  28.7981815  28.1276779  65.3171387
  28.4847984  26.6825600  65.6402664  10.6932020  65.3488235  22.8958015
  11.6199284  65.1193161  22.8269730  10.5802898  65.6184769  23.8072662
  73.6630783  55.1014137  67.0218277  73.2020111  55.6121101  66.3563690
  73.1933670  54.2679405  67.0521622  67.6267700  39.1023521  25.5736465
  67.6129761  39.7205009  26.3043518  68.4871216  39.2249641  25.1724091
  73.1414337  32.2090797  27.4935551  72.4657822  32.8861885  27.4582081
  73.8945389  32.6429138  27.8946247   6.3289537  65.0866547   9.4265451
   5.9835143  64.8786774   8.5584154   6.4437099  66.0369110   9.4173183
  49.5777626  66.7435150  70.0133209  49.6862068  67.5321655  69.4818192
  49.4364624  66.0430374  69.3764572   6.3603253  44.9031105  32.9636917
   5.7470374  44.3446922  32.4859047   6.9703650  45.2154312  32.2954597
  54.6328087   1.4637007  69.8199997  54.9771843   1.8246366  69.0030746
  55.0240974   2.0057340  70.5050735  65.5834122  25.5023880  87.2721176
  65.2099838  26.2339535  87.7636414  65.0785141  25.4774036  86.4592896
  57.1766701  23.8375664  89.4511337  56.5160103  23.2167110  89.1440582
  57.4999733  24.2571411  88.6538544   8.6800842  70.0009384  39.1390648
   9.1247873  69.8276443  38.3093414   7.8472180  70.3989944  38.8858490
  52.3949165   9.3636942  63.1309776  52.1697083  10.2228346  62.7740631
  51.9238129   9.3190126  63.9630203  73.1182327  25.0975456  46.9222298
  73.3244934  25.8235035  46.3334427  73.5466003  25.3285351  47.7464714
  81.5094833  40.9148560  66.1196899  81.3720932  39.9707031  66.0427017
  81.1807632  41.1344261  66.9914474  12.4332485  28.8182030  71.6536636
  12.2845907  28.0158501  72.1540298  12.6746788  28.5136852  70.7789001
  59.1300850   1.8334516  43.6637650  58.9256439   2.3659410  42.8950691
  59.4960327   1.0251132  43.3047333  84.3554535   7.8181367  52.2623940
  85.1821518   7.3521838  52.3876534  84.2677841   7.8993096  51.3126793
  67.0205841  17.2295685  36.9842491  67.8431396  17.7114449  37.0704231
  67.2703552  16.4003792  36.5764580  68.7194977  53.4017143  28.8764839
  68.2304916  54.0823669  28.4140797  68.1646957  53.1728897  29.6221809
   3.6881137  62.9478073  60.2769432   4.2348676  63.6355629  59.8970909
   3.7314289  62.2306786  59.6444244  21.0455017  37.5963402  65.0776978
  20.9225616  38.4525032  65.4877014  21.0611782  36.9801254  65.8100052
   8.3832874  26.3062916  14.7879314   8.6286116  26.5274124  13.8895140
   7.6576266  25.6893177  14.6931124  20.5729084  64.9934006  74.8813629
  19.7514706  65.0975418  74.4011230  20.3152351  64.5965576  75.7134399
  15.9903803  44.5831070  22.5938663  15.1353579  44.6465530  22.1682568
  16.1000576  43.6492348  22.7729855  52.6872864  35.3291206  15.8913689
  53.1164894  35.0805664  15.0726881  51.9797363  35.9150810  15.6225662
  14.6739836  70.4529419  51.8481674  14.8886452  69.5229187  51.9202843
  14.8072166  70.6584473  50.9228287  55.3696098  37.6979027  67.1675873
  55.1916313  38.4649467  66.6233444  54.6355743  37.6639328  67.7809982
  61.7690315  42.0358963  59.8311615  61.4918938  42.9135818  59.5682983
  62.2515793  42.1712914  60.6466637  69.9724121  17.3019981  15.1268444
  69.3461685  17.9854450  15.3654976  70.6609268  17.3663235  15.7886915
  14.3116570  54.7759247  72.4510345  14.8885527  54.0545616  72.1999207
  14.6503944  55.0703201  73.2965088  79.5279922  15.4255629  31.5826206
  79.6388779  14.9709921  30.7475739  80.3254776  15.2246838  32.0724144
  30.7080421  50.9405403  67.2178650  30.3287067  50.1288185  67.5546875
  30.2227573  51.1151619  66.4114914   7.5869493  37.0140572  67.4917297
   8.2222958  37.6617622  67.7967606   7.1659188  36.6968384  68.2906952
   6.9452987  12.2993069   7.7144241   6.1830697  12.7126245   7.3089519
   7.6917729  12.8031740   7.3901920  14.4361820  54.8183098  15.9517670
  15.0151405  55.4790649  15.5717096  14.2636929  55.1329079  16.8391838
   7.8704715  22.9182129  57.9248390   7.4122992  22.8946152  57.0847473
   7.4010091  23.5780048  58.4352417  15.9186449  51.6283722  36.7898636
  15.9871521  51.7254677  37.7396584  16.2717533  52.4461365  36.4394188
  25.9500237   0.8877842  19.2921505  26.4552307   1.4126331  19.9130611
  26.2542629  -0.0087505  19.4332008  69.6378174  57.1335182  77.3737183
  68.7077713  57.1878166  77.1539459  69.9893799  56.4810905  76.7679367
  38.1097336  10.2135077  39.5551224  37.8222618   9.4804792  39.0108261
  38.5043221   9.8009930  40.3234749  29.2975006  28.2846203   1.7083052
  30.1278210  28.3654613   1.2389830  29.0674629  27.3587494   1.6303340
  72.2311020  19.7526741  79.0153503  71.8399734  18.9212132  79.2835312
  72.0390472  19.8170052  78.0798264  16.8381901  20.2670536  10.6927834
  17.5458126  20.9056473  10.7805328  17.2771778  19.4170876  10.7256594
  37.1616135  55.0727425  39.6655121  37.6065254  55.8919449  39.4482765
  37.8687210  54.4353905  39.7655869  72.6960983  60.3077888  19.2027702
  73.1649551  60.3674011  20.0351505  71.8638229  59.8909950  19.4259911
   7.1493745  62.2903404   2.2059047   8.0681772  62.1424255   1.9819531
   6.6676440  62.0429459   1.4166243  50.9151573  20.0667305  76.0696487
  50.0243607  20.0591774  75.7194290  51.4151497  20.5877018  75.4412994
  13.9129839  69.2682724  31.6743965  14.3710909  69.7327042  32.3748779
  13.2488413  68.7479019  32.1264610   8.2435646  69.6730118  60.3889809
   8.1041222  68.7693863  60.6722603   9.1931419  69.7897034  60.4193153
  31.5530033  59.0781822  41.4317856  32.4382706  59.3954277  41.6103630
  31.6706600  58.1563759  41.2023048  86.6161880  36.2142258  48.3805389
  87.0526581  36.7410355  49.0500069  85.6970978  36.2011185  48.6476173
  75.4377213  10.8868570  68.8786697  76.2659912  11.2337141  69.2101669
  75.4207687   9.9784584  69.1799316  74.4501724   5.6317654  79.7905426
  73.8045883   4.9258666  79.8245621  74.9400787   5.5479193  80.6085815
  51.9174156  58.0941086  68.1234360  51.5843468  57.2005501  68.0406494
  52.3671761  58.2598000  67.2948914  86.3819275  52.5802879  89.3107758
  85.7818451  51.8900681  89.5931244  86.3219223  52.5738335  88.3554840
   7.1748157   7.8039498  26.8876038   6.6681685   7.6185727  27.6782837
   7.9401355   8.2858992  27.2010403  76.2727203  68.5679779  45.2172585
  76.5212097  68.2344818  46.0793877  76.0989532  67.7830124  44.6977730
  81.3190079  32.9156456  31.2052650  81.4653091  32.6252861  30.3049774
  80.4136658  32.6677666  31.3927422  47.0430450  46.8814926  50.2420197
  47.0007019  46.8082008  51.1954727  47.5585785  47.6726227  50.0852776
  36.5249672  44.6505203  77.9663010  35.5911598  44.4606285  77.8758621
  36.7223320  45.2356186  77.2349014   5.7637520   8.1014233  29.4504032
   5.4445295   8.9136524  29.8436108   5.5055943   7.4181886  30.0690918
  83.8420181  30.7982082  35.7090950  83.5481033  31.3518696  34.9856949
  84.4130020  30.1494999  35.2975311  82.0487900  31.6318092  47.3850479
  81.1464386  31.9249687  47.5117493  82.3624802  32.1389351  46.6362801
  67.5589752  53.9023247  40.4797554  68.4542618  53.7800674  40.1639214
  67.2694397  54.7172165  40.0694542  61.9990273   6.7531924  43.8367920
  61.4343681   7.4979362  44.0435486  61.4317245   5.9883313  43.9336815
  70.7175064  50.8763275  66.2098618  69.7844086  50.6814117  66.1228867
  70.8288193  51.1082764  67.1318359  62.7644348  17.3624382  55.8305397
  63.4680252  17.2281456  55.1955910  62.1063309  16.7063141  55.6011276
   6.3573594   8.6282082  62.6652412   5.4348722   8.3961306  62.7719612
   6.3652840   9.2498980  61.9374580  15.5580807  39.6475143  13.1920443
  16.0296211  39.3574028  13.9728861  14.9643402  40.3277893  13.5097399
  15.2225599  67.7529984  16.3474121  16.0478973  67.2681808  16.3469849
  14.6710014  67.2874756  15.7186785  24.8310089  69.8057861  63.3901443
  25.3404255  69.1310349  62.9413338  25.4862537  70.3486557  63.8285255
  15.3695869  27.8523464  67.2923279  14.8308592  27.1399422  66.9481049
  16.1500950  27.4178028  67.6361465  81.6606674   6.7604909  39.7906227
  81.0170288   6.1272125  39.4729424  81.8807678   6.4569998  40.6713486
  84.8661804  37.4651756  40.2252235  85.5450592  36.9762802  39.7601013
  84.6638336  38.2018318  39.6484871  45.7155075  10.8349247  86.7824249
  46.4920006  10.7693701  86.2265549  46.0412064  10.6766758  87.6684875
  82.4432831  49.3921394  54.3508606  81.5477905  49.1258240  54.5592041
  82.6357193  48.9564018  53.5205994  66.4769135  26.2232437  74.4390182
  65.9497681  26.9966621  74.6394577  67.3795166  26.5020027  74.5933914
   2.1800897  32.6683197  56.8435707   2.7572665  33.1143494  56.2237663
   1.5561733  32.1958504  56.2924500  41.8986206  23.7103806   2.9114223
  41.2220726  23.2437630   3.4021194  42.0181656  23.1917400   2.1158383
  82.6568985  55.9075661  62.6092720  82.1815567  55.1632881  62.9785118
  82.9065704  56.4331856  63.3692856  50.5086746  62.0093079  27.2418346
  50.0788651  61.6180687  28.0023785  49.7939453  62.3935318  26.7341290
   9.4537287  53.4755974  82.5818329  10.1788378  54.0609932  82.8003769
   8.6865606  53.8847809  82.9821472  72.8810577  49.7832336  69.4565506
  72.2391891  50.4591942  69.2390289  73.0201645  49.3118515  68.6351547
  82.2267303  36.6619949  81.0999222  82.1567307  36.0857964  80.3387833
  82.5831070  36.1037254  81.7909775  50.1330872   6.1882153  62.4581184
  50.0722427   5.2330322  62.4456673  49.2278900   6.4870276  62.3711815
  47.9861717  11.4351187  40.6797485  48.4294510  12.2695379  40.5265160
  47.5675735  11.2292509  39.8439102  11.7983446  18.9117794  21.8347797
  11.8815517  19.4739304  21.0645237  12.2533894  19.3881264  22.5292282
  23.4369392  55.4664230   0.6876990  24.3835888  55.4434319   0.5478507
  23.2780933  56.3089561   1.1132998  11.9681349  39.8743019  19.8463535
  11.9616671  38.9576683  20.1219845  12.8116207  40.2097778  20.1500282
  76.5335617  37.3159828  20.4696369  76.7447739  38.2248001  20.6833401
  77.2826233  37.0098610  19.9583416  55.0649490  51.2278214  41.6462975
  54.8302345  51.9318504  41.0417480  55.8094444  50.7931786  41.2303123
  82.8168716  33.8473511  72.8621521  82.3592682  34.6698761  72.6881256
  83.2659531  33.6448288  72.0414581  85.1270294  11.4385147  50.6039162
  85.5227509  11.0711679  51.3942909  85.8596725  11.5472698  49.9975815
  81.2479858  12.7354965  35.0367737  81.4030075  13.6795340  35.0052223
  80.7538223  12.5471258  34.2389336  77.5605087  68.4423981   1.9617603
  76.9975662  68.7210541   2.6840348  77.1873703  67.6088409   1.6751076
  64.5016174  54.2271538  30.9532032  63.8524284  54.6171303  31.5386143
  64.0182114  53.5543938  30.4736767  31.8812122  28.5423756  73.7968369
  31.5826569  29.3829136  73.4495773  32.8362579  28.5920792  73.7562485
  25.9647942  69.3609009  69.6129837  25.2583618  69.8772888  69.2250061
  26.2781715  69.8943863  70.3433380  80.8549271  24.5127621  28.5794563
  80.9291992  23.6473408  28.9816551  81.6355286  24.5896931  28.0308361
  86.2432861  45.6664429  67.2194901  86.0916901  46.0054474  68.1017151
  86.3458862  46.4482574  66.6768341  24.5401344   6.4828224  74.0966721
  24.0881081   5.7814927  73.6275864  23.9039116   6.7868061  74.7440109
  80.6655273  46.5109482  28.3202038  80.4529572  45.7602654  27.7656593
  81.3095627  46.1739197  28.9429874  30.3042068  44.2544212  74.8322601
  30.9082394  44.9881668  74.7182693  30.2767715  43.8312378  73.9741287
  34.2955666  48.0684624  69.7109528  33.5364494  48.6364670  69.8426437
  35.0318832  48.6719437  69.6115646  80.7094879  57.1664085  73.6203842
  80.6757050  58.0277405  74.0365601  81.5735245  57.1324883  73.2098618
  10.0126619  52.7192650  44.0157242   9.2983465  53.3274269  43.8256607
  10.6516075  52.8754349  43.3203163  53.7573128  44.5147133  40.7739754
  54.4184685  44.3297806  41.4409904  54.1036873  44.1150856  39.9761353
  61.3648453  17.4149761   7.7373600  60.9682693  17.8337917   8.5012655
  61.5195923  18.1331978   7.1238108  36.5479927  62.7100716  26.0032177
  35.9184990  62.5258217  25.3060665  37.1137543  63.3919411  25.6410046
  70.4314957  16.6110401  46.3290215  70.7157059  17.5227413  46.2637749
  69.6489258  16.5642262  45.7798157  75.0940170  63.6842957  39.5022507
  75.6941528  63.6630859  38.7568512  74.3195267  63.2100563  39.1997528
  57.4888687  33.3444214  75.6626587  57.0005798  32.5214272  75.6406174
  58.1628838  33.2410812  74.9909058  23.0073948  65.1120071  85.4008102
  23.7963600  65.6232452  85.2208023  23.3213024  64.3512344  85.8896027
  51.1525040  41.2722054  15.3289223  51.0139771  40.5125732  15.8946114
  50.6688995  41.9797134  15.7552948  53.3228683  64.7030716  13.0760717
  54.2078934  64.4434128  12.8200655  53.3637276  65.6568832  13.1454439
  13.1857529   3.4792440  44.8851471  12.8681269   2.6879940  44.4500961
  13.9850283   3.7087758  44.4111176  58.0720520  53.3884010  15.6324968
  57.3366432  53.5382919  16.2265873  57.7193108  52.8106689  14.9557142
  75.9369659  30.1072655  47.9585648  76.6067352  30.7099228  48.2817383
  75.8738785  30.2987461  47.0228348  67.0344849  57.1074181  76.6462021
  66.8640366  57.7462463  75.9540482  66.1670990  56.8798752  76.9810104
  75.7188034  27.6953201   8.5755224  75.6039734  27.9710732   9.4849215
  74.8963394  27.9331131   8.1474619  20.0422668  50.8435364  46.0243111
  19.3378143  50.2863655  45.6933479  19.8472004  50.9484901  46.9555283
  66.5090103  58.3639030  40.3663940  67.2472000  57.8935585  39.9789925
  66.1709900  57.7692833  41.0360222  56.0655441  65.6922836  85.5410538
  56.6497192  65.1881714  84.9746246  55.2971802  65.8672104  84.9976807
  29.8089123  17.9336929  68.5229034  30.0867844  17.0233021  68.6239471
  29.6322079  18.2306557  69.4155502  59.8364906   2.3706763  38.9991074
  59.0032082   1.9028237  38.9444733  60.4976616   1.7054216  38.8079987
  86.7113113  54.0669708  37.7497177  86.2976379  54.6407547  37.1048279
  87.1001892  54.6650581  38.3879128  66.5183792  28.1808090  60.5250778
  67.0339966  27.4384747  60.2099419  66.8458786  28.3414345  61.4100533
  61.7684898   7.8536396  75.4997330  62.2551575   8.6011353  75.1524048
  62.0479813   7.7893076  76.4129562  65.0607071  71.6019135  57.3541832
  64.1824188  71.9284515  57.1586800  65.1312943  70.7895432  56.8528862
  55.1867485  26.4122238  41.3178673  54.9500771  26.6878376  42.2034492
  55.0553474  25.4640865  41.3189468  49.8439484  30.3609772  33.1997604
  49.8404388  30.8690357  34.0109901  50.7001381  30.5379066  32.8100510
  84.4334717  17.2963982  44.7816772  84.8914032  16.6287022  44.2710800
  83.5127411  17.0374775  44.7435036  56.6296043  10.6986370   6.0515542
  55.7115135  10.4286957   6.0732808  57.0111694  10.3137054   6.8405209
  63.4340744   3.1314118  80.8603973  63.0564766   2.9427078  80.0013046
  63.6448174   4.0646181  80.8296509  71.3757858  67.6584396  23.5036430
  71.7241669  68.3103561  22.8954773  70.8605270  68.1665878  24.1301594
  70.5507812  54.1000443  37.1182823  70.9338150  54.2508965  36.2541313
  70.8589859  53.2289429  37.3681297  70.4408035   2.7711008  71.7514572
  70.4555283   2.1223671  72.4551392  71.2663040   3.2462480  71.8464279
  53.5311050   2.0942719  57.9631424  53.9848213   1.3742164  57.5250854
  53.7009506   1.9530764  58.8945122  31.5945015  57.8797569  17.7656937
  32.1369438  58.3581619  17.1387062  30.7001915  58.1606712  17.5719719
  85.4586716   1.2040830  30.1461296  86.0086136   1.9820223  30.0533733
  85.7181702   0.8261215  30.9863892  81.9225235  11.3799648  88.8683472
  81.1849594  10.8165417  88.6342926  81.8994370  12.0856094  88.2220078
  37.3812141  40.0739098  71.4184189  36.9320297  39.8535881  70.6023788
  38.2048416  39.5879364  71.3772125  13.1217613  28.5186291  79.2151184
  12.9572573  27.7224331  79.7203293  12.5299816  28.4532585  78.4656143
  28.3524857  67.5731277  64.5505676  28.4128723  67.9920425  63.6920280
  28.7971783  68.1782379  65.1441422  52.7481461  63.9763603  31.7575302
  52.6640396  64.8322372  31.3372478  52.5853653  63.3473358  31.0546341
  28.7763481  38.0524216  10.1277876  28.4496517  37.1594849  10.0174990
  29.7114754  37.9911156   9.9328260  75.7729645  43.7455864  47.6632042
  76.4953918  43.6331100  47.0454063  74.9974060  43.8400764  47.1101952
  56.1085625  59.4046783  61.3417053  56.9478722  59.4283791  60.8821106
  55.5011635  59.8546791  60.7545128  69.9355927  53.9461861  12.8899689
  70.1568298  54.0966644  11.9709253  69.1370316  53.4192352  12.8609095
  52.1189423  55.5277977  76.3418045  52.2181625  55.7561417  75.4175491
  52.9421005  55.0967903  76.5717316  23.4590664  45.4622269  80.4410172
  24.2199783  44.8863716  80.3659668  23.2873440  45.7502937  79.5444870
  67.6060791  68.1855850  75.1849518  67.2853775  67.4027939  75.6328583
  67.3587265  68.0559235  74.2693939  51.2961349  13.2332268  22.8089256
  52.2068100  13.2820387  22.5182076  51.0097694  14.1454906  22.8536568
  79.2391663  50.2153625  60.9155617  78.9942627  50.5089569  60.0380325
  79.9701538  49.6143646  60.7717400   4.3454280  26.3575706  87.6960678
   4.6210542  26.0922508  88.5734863   4.9045076  27.1053867  87.4852829
  64.4821472  42.1484184  10.7831764  64.3813782  42.9926338  11.2229280
  64.8957443  42.3619118   9.9467621   5.0753455   7.6234565  49.4980888
   4.3097682   7.1417432  49.8112602   5.8231668   7.1276736  49.8315468
  21.3171291  70.6693115  70.7414322  21.7257462  69.9018402  70.3411255
  21.9053364  71.3932571  70.5266113  77.5301208  53.4421654  34.2086449
  78.0580521  53.8009605  33.4953537  76.8893585  52.8800812  33.7730713
  50.1562119  69.0528030  18.8606834  50.8414230  69.1914368  19.5145168
  50.6306114  68.9372025  18.0373898  17.1110687  63.9361610  30.1176243
  17.2173977  63.0461464  29.7817612  16.3044167  63.9033165  30.6318874
  43.1483421  59.2387886   3.8686810  43.4016647  58.3601799   3.5856507
  43.2585793  59.7827301   3.0888057   5.6333003  10.1821890  49.4924431
   5.5580235   9.2379189  49.6299858   5.8699207  10.2716494  48.5692749
  61.3668213  62.2264175  84.2827148  62.1387787  61.6705055  84.1765442
  61.7009506  63.1192589  84.1965408  58.4020920   4.4013309   7.1123013
  58.2613754   4.6881046   8.0146275  58.9804916   3.6425741   7.1895704
  41.7051773  17.1482105  76.6566086  41.4602585  17.9091969  77.1830597
  42.4428177  16.7592525  77.1265411  76.7463989   9.3873692  41.2169189
  77.5666809   9.7929707  40.9361000  76.0636673   9.9521275  40.8547554
  50.1147423   5.3007994  54.8130035  50.1918640   5.5072298  55.7444916
  49.8021317   6.1122484  54.4129372  57.0105705   6.4370556  60.0716629
  57.0322990   7.3456268  59.7712326  57.3850174   5.9361544  59.3470078
  58.8006668  39.0059624   8.8295698  58.9924507  38.6760712   9.7074213
  59.4955101  38.6431046   8.2802458  78.8713150  48.2546234  89.1178741
  79.6588287  48.6444283  89.4974823  79.1307297  48.0065422  88.2305222
  26.0831871  66.6388702  15.5194273  25.8633919  65.8028336  15.9304762
  26.0265694  67.2774506  16.2302303  16.2051678   3.1816976  40.9007950
  16.9722862   3.7493138  40.8261337  16.5474548   2.2977245  40.7678909
   4.7039452  22.9136753  61.0343971   4.3670764  22.6453667  61.8892441
   4.1847653  22.4135742  60.4046516  42.2141228  38.7981339  78.4743500
  41.3632736  39.1144905  78.7779999  42.3367386  37.9655228  78.9303818
   0.3343886  47.8292389  75.2559357  -0.5964574  48.0306282  75.3518524
   0.6634718  48.4979706  74.6553192  66.8033142  63.8102264  59.5146332
  66.7309570  64.5489273  58.9102173  66.9807663  64.2128143  60.3647308
   6.4050655  44.3303223   2.6016994   6.2087789  43.4952583   3.0263968
   7.2875128  44.5495567   2.9007931  62.2470894  20.2389297  34.7645454
  62.3055801  21.1422691  35.0756569  62.1370583  19.7182503  35.5601692
  11.6917534  41.6937256   1.7038752  11.3903341  41.9991074   2.5595162
  12.5704050  41.3511505   1.8677257  75.8483353   2.9459212  75.4609222
  75.5821838   2.1496208  75.0012512  76.0026703   3.5842428  74.7645340
  71.0858231   1.4102964  50.6306152  70.1660080   1.6617931  50.5473747
  71.0595016   0.4994976  50.9238472  20.2120781  55.4447861  57.2506676
  20.0363121  54.7850037  56.5798302  20.1061020  54.9777946  58.0794754
  64.3322906  54.8791389  51.6928864  63.4724159  54.5791969  51.9876366
  64.2925491  55.8324623  51.7692528  60.7786598  22.1085072  64.0590973
  59.8256798  22.1256866  63.9709663  61.0549507  23.0000038  63.8466568
  63.9112206  10.8440323  60.6196289  63.9748611  11.5790167  60.0097275
  64.6697769  10.9437523  61.1948509  25.2618084  47.6012421   7.6563835
  25.2556801  47.8863373   6.7426467  25.6357841  48.3407135   8.1355028
  16.0624752  30.7483959   0.4259646  16.0411644  29.9261227  -0.0635692
  16.1298923  30.4799461   1.3422730  60.2364616  39.2141075   1.6834288
  60.6675797  38.4285965   1.3467630  60.6816902  39.3955841   2.5111191
  18.6842346  10.5089865   0.9053593  18.3837376  10.1616211   0.0655552
  19.4727287  10.0043373   1.1049514  48.9300308  41.7018776  45.0446320
  49.2933197  41.9659920  44.1993523  49.5374641  41.0371208  45.3692169
  26.3548431  64.3251648  42.2025070  27.0126858  63.6814117  41.9397316
  25.8961201  63.9135780  42.9349022  52.9556694  19.8748074  27.1048737
  52.7517776  20.3522129  26.3006706  53.7281532  20.3171978  27.4567184
  74.9201660  23.4805813  72.5323715  74.5558472  24.3006439  72.1992035
  75.0693817  23.6455460  73.4633713   1.8118397  17.0781631  79.1341476
   2.7402570  16.8506546  79.1842728   1.4035412  16.3254490  78.7064209
  13.6627188  49.4025764  38.9695740  13.9255352  48.4849129  39.0406418
  13.0693808  49.5396690  39.7080803  65.4850388  45.8315849   8.0735149
  66.0155869  46.4476852   8.5786638  64.5924683  46.1700172   8.1443415
  86.3592758  45.0419998   5.0123630  86.9910889  45.3406715   5.6664600
  86.8866653  44.8643532   4.2335601  49.5563049   3.2704315  13.9764643
  49.2429123   2.9956689  13.1147671  49.4158516   2.5072966  14.5369377
  56.4924812   6.2181969  62.8218002  56.0072021   5.3967280  62.7448311
  56.7581482   6.4243135  61.9256020  27.5399361  21.9351768  67.8237991
  28.1775475  22.1855164  68.4923859  27.5169449  20.9789715  67.8608475
  73.7959518  47.6543503   0.2608677  73.6662750  47.1378708   1.0562690
  73.8235703  48.5611992   0.5659844   3.1107299  37.6442070   6.3403168
   2.8430882  38.5257263   6.6001711   4.0343709  37.7337570   6.1055841
  48.5658264  44.7636261  23.3864613  49.0793381  45.0281982  24.1497040
  48.9720078  45.2251625  22.6528168  55.6936111  58.8291626  64.0132675
  55.6898613  59.2217522  63.1402893  56.5419083  59.0745659  64.3825989
  64.8872070  44.1141319  76.3567047  64.2950439  44.6430244  75.8220520
  65.5168610  43.7541733  75.7320404  56.4089546   2.8934231   5.3729539
  57.1323280   3.2624488   5.8796916  56.1092606   3.6163995   4.8218451
  68.7404709  40.7541161  61.8542023  68.1624146  40.0331764  62.1038437
  68.6654892  40.8022308  60.9011574  71.9112930  26.4015198  61.3690262
  72.3208771  25.5518970  61.5321770  71.3610764  26.5536575  62.1373634
  60.7299080  66.0167084  25.9722748  60.4581528  66.7738266  26.4910698
  61.2959976  65.5150986  26.5589314  46.9464188  46.6371231  52.9756851
  46.6478043  45.9586945  53.5813217  47.4704514  47.2275925  53.5169525
  50.2910881  31.3286724  56.2087402  49.6087494  31.8732738  56.6012383
  50.8148193  31.9384556  55.6890297  79.6870728  62.0432472  59.3693123
  78.7518616  61.8595581  59.2806511  80.1092834  61.1900330  59.2693176
  21.8426838  14.0330954  49.8542557  22.6337547  13.4952593  49.8884621
  21.2345295  13.5303993  49.3123398  44.3963585  56.6522064  23.9368229
  45.1919670  56.2106781  24.2339573  44.5843239  56.9011574  23.0318794
  37.8379860  57.6594429  39.7432175  38.4278908  58.2386055  39.2607040
  37.4800148  58.2090302  40.4403839  60.7682533  13.1456022  89.0544891
  61.2875023  12.6509733  89.6884918  60.2168922  12.4876003  88.6310959
  51.7529831  48.6713867  27.1642857  51.3018150  49.0350685  27.9261379
  51.5090752  47.7457886  27.1607666  38.5118599  40.4846382  87.2358856
  38.5828018  39.6416855  87.6837997  38.1743698  41.0825920  87.9028091
  76.5192719  11.2651787  63.0847893  76.2432785  11.0173550  63.9671974
  76.9369431  10.4783106  62.7346230  78.6083679  51.1587486  13.8267164
  78.1526947  50.9993782  13.0001602  77.9197769  51.1227837  14.4906321
  83.0349426  51.7830811  27.8883743  82.6377487  50.9460945  28.1290436
  83.9726105  51.6527023  28.0298634  14.1043100  70.6518326  12.7574720
  14.0721846  69.7000732  12.8541870  14.3836088  70.9705048  13.6157684
  49.9781380  39.6803131  86.7626572  49.7581596  38.7729225  86.9735565
  50.6423454  39.9219818  87.4081497  72.4027557  50.4371529  21.4588337
  72.4379501  50.7047348  22.3771973  73.3197861  50.3826027  21.1899433
  75.4027710  39.5552368  61.3002205  75.7875366  39.2161713  62.1084404
  74.6528702  40.0740814  61.5912247  -0.0267365  44.8312225  44.4692459
   0.7019211  45.3131371  44.0780296   0.0880211  43.9321404  44.1614914
  15.8654146  58.2775002   5.3898997  15.8622313  57.3512306   5.6312428
  14.9455519  58.4855042   5.2261338  16.6826458   7.6486197  62.8097916
  15.8941689   7.7897367  63.3338356  17.2948799   8.3190727  63.1129303
  38.9370995  65.6953278  70.3856049  39.2815742  65.8726883  69.5103226
  38.2155266  65.0835724  70.2395859  35.8789215  62.9696884  41.8118362
  35.2355957  63.4570999  42.3264198  36.1544380  62.2558289  42.3869209
  69.7025146  35.5953903  77.3578720  70.0089722  34.7334480  77.0761414
  70.1224060  35.7331314  78.2069626  53.2410316  42.0684547  46.7216492
  52.9627037  42.6841965  46.0436935  53.4806061  41.2757874  46.2415314
  80.7664795  29.2705116   9.5433607  81.2069473  30.1083584   9.4011240
  79.9784241  29.3193092   9.0022297  82.5878296  42.1673088  83.6242218
  82.4325867  43.0848236  83.8484955  82.9160843  42.1926842  82.7254257
  82.2751007   1.4762236  17.0113449  82.9619522   2.1078050  17.2248154
  82.0592728   1.6571457  16.0965118  36.8510132  51.1716080  39.2715645
  37.4520683  51.9087257  39.3793640  35.9793930  51.5615730  39.3381805
  85.1214600   3.3876853  27.3350677  84.7736359   4.1771216  26.9202900
  84.9923325   2.6981943  26.6837921  28.4914513  22.8462696  65.3322830
  27.6397572  23.1010303  64.9773865  28.3000469  22.5425777  66.2196198
  69.9659805  44.4411850  26.4315166  69.8291245  45.1967239  25.8599682
  69.0856476  44.1892624  26.7104092  26.1990032  33.6739655  74.7892456
  25.5090923  34.2246513  75.1593857  25.9266529  33.5250435  73.8837738
  83.8080978  14.3150282  47.0784454  83.5326385  15.0268736  46.5008392
  83.5644073  14.6104813  47.9556885  76.8637466  14.5535812  60.5231628
  76.8809662  13.7193880  60.0540619  76.2064819  14.4297676  61.2079277
  72.8162994  40.5103416  41.4066772  72.9461517  39.9159126  40.6677437
  71.9016724  40.3830261  41.6586342  32.2050896  58.1837769  88.6519394
  31.8919773  57.5152245  88.0426559  32.3882179  58.9440193  88.0999146
  72.8846970   4.6724396  36.8169441  72.5048065   5.5498719  36.7719536
  72.1820068   4.1248708  37.1671219  14.2066641  21.7708263  75.7919388
  13.9668589  21.1137257  75.1385345  14.6781549  22.4404221  75.2963943
  25.2621994  36.5724487   1.3435676  24.8742085  35.8656502   0.8276890
  26.0899582  36.7641487   0.9027737  54.6216202  67.5060577   2.2227597
  55.0090485  67.6486053   1.3591559  53.7522926  67.9022980   2.1636388
   7.2054362  16.0324345  31.5188770   7.8112545  16.0756817  30.7790489
   7.6869259  15.5559797  32.1951828  73.5776978  58.6059837  50.4606056
  73.0597229  59.1211357  49.8420982  72.9321060  58.2311668  51.0597382
  26.4725304  60.4207039  39.0517082  26.6839733  60.8569374  39.8770714
  27.2023888  59.8190384  38.9049644  63.7789841  37.7765770   6.3336377
  62.8776970  37.4787560   6.2102914  64.3050995  36.9792175   6.2732296
  82.4076996  39.3689766  13.3182096  81.6735458  38.8351555  13.0144224
  82.0051498  40.0347137  13.8758678  69.6819839  10.2348690  83.2247238
  69.4851685   9.2981787  83.2349701  69.2427979  10.5804167  84.0018539
  78.4459152  49.6884842  86.1588287  78.8154449  48.8669319  86.4824600
  78.5986710  50.3149261  86.8662643  66.5675659  30.4352455  53.7383919
  66.9368820  30.7379074  52.9087906  65.8105011  29.9071369  53.4850502
  69.0167160  37.1329536  86.7046204  69.6986237  37.7642784  86.4751587
  68.7639313  36.7393188  85.8695221   1.3509551  49.4352570  16.5551643
   1.9042177  49.2196579  15.8043976   0.8389676  48.6416740  16.7111263
  26.2529984  62.9188690  47.1809769  26.9023113  63.6214447  47.1491585
  26.7663765  62.1146278  47.1043739  74.5808868  20.2161503  59.1325912
  74.3574142  20.9123573  59.7503204  75.5131149  20.0559483  59.2792549
   0.9499812  61.9657326  10.1813145   1.3149004  61.1326065   9.8830376
   1.6082706  62.3139534  10.7826691  86.1532211  33.7807503  26.2016964
  86.0163803  33.4927254  25.2991734  87.0171585  34.1927719  26.1932392
  52.0902100  55.9779816  82.4632416  51.4312973  55.6370811  83.0681076
  52.6426582  56.5423431  83.0041046  75.6710968  18.2628498   8.5663452
  75.5457153  19.0260677   8.0024185  75.1854706  18.4722099   9.3642006
  63.8230743  64.5109329  32.6853676  64.7053909  64.6542816  33.0277252
  63.8814812  64.7569733  31.7621746  67.0002365  50.9729233   9.7285299
  67.7728577  51.3366661  10.1609402  66.2722778  51.2020607  10.3062868
  32.0680885  54.3075562  14.2410736  32.1173897  53.3820496  14.4803228
  31.6073570  54.7196579  14.9719162  25.1382675  54.0414429  54.9616089
  25.4594593  54.3386536  54.1102943  25.0359955  53.0949631  54.8618889
  44.2281113  68.5246201  55.6704521  43.4478340  68.4800110  56.2230911
  43.9848633  69.1182785  54.9600754  26.4645023  30.8689728  84.5502625
  26.2297935  30.5254498  85.4123154  26.9516888  31.6715279  84.7367783
  74.2915649  13.5522156  32.4754295  74.7906570  13.8216333  33.2465019
  74.8536453  12.9129705  32.0376396   3.5628252  21.5864506   1.5944518
   3.4378541  20.7181110   1.9773356   4.1040525  22.0533104   2.2311206
  25.8162498   5.0967197  68.4152908  26.2501431   5.5781469  67.7108765
  25.4979649   5.7764921  69.0092926  44.0241623   1.8906083  80.4498901
  44.1454124   1.4712294  79.5980377  44.4126205   1.2790091  81.0754166
  39.4679909  66.4829178  44.0278282  39.2479515  65.6633072  44.4706078
  39.7555199  66.2140808  43.1553116  44.0911980  60.0893936  74.6990356
  43.8722076  60.7108269  75.3933640  45.0474968  60.0486412  74.7069397
   0.7053350  15.8285112  36.8595085   0.4888291  15.5185261  35.9801521
   1.1784840  15.0995359  37.2607002  32.2509460  33.8857574  66.7719574
  32.1520004  34.7849236  66.4589996  33.1946602  33.7271194  66.7503510
  54.7013817  70.0586700  36.0679398  55.6463242  69.9063416  36.0574455
  54.4071426  69.7985840  35.1950073  78.9067383  50.1149940   6.0472589
  78.1098022  50.6445694   6.0733571  79.3964081  50.3806038   6.8256578
  82.7306061  34.6324158  18.8211346  83.3060913  34.0469933  18.3288651
  83.1178818  35.5003548  18.7074165   4.7781329  43.7162743   4.6946135
   3.8828766  43.8429756   4.3804555   4.9774108  44.5171547   5.1794953
  29.0314388   3.4231451  55.2846680  29.8795185   3.0936577  55.5820389
  29.2008553   4.3323531  55.0379486  84.1593933  61.5865669  24.0970573
  84.4815903  62.2098083  24.7482052  84.3416290  62.0040550  23.2551994
  56.5926971  56.3034554  64.0911255  56.5169945  55.8263092  63.2647858
  56.1049957  57.1140594  63.9451866  78.9171524  52.8349075  54.0959549
  79.7768173  53.0184898  53.7171364  78.7053299  53.6199989  54.6009293
  30.3042393  68.8640976   4.6260114  30.1315956  68.6850357   3.7016933
  31.2573090  68.9324112   4.6827960  80.6756592  44.6167297  15.5810099
  81.5718155  44.9291763  15.7055464  80.3706131  45.0709381  14.7955952
  65.5451202  14.8802748  25.8744965  65.3384857  15.8133907  25.8213272
  65.1720047  14.5064688  25.0761929  19.1682968   6.8920331  61.4199562
  19.8811493   7.4406657  61.7471809  18.4088516   7.1490555  61.9428444
  13.2899342  39.2534866  73.7628860  13.1306372  38.6022797  74.4460983
  14.2347469  39.4043159  73.7913742  43.0464668  41.2027206  72.2206955
  42.5153046  41.9674911  71.9988403  42.5168190  40.4548798  71.9442139
  38.3335304  70.4887009  28.2510529  38.2926369  71.4126816  28.0044289
  37.5695877  70.3566132  28.8124542  77.5616684  19.2523403  31.2148285
  77.3780670  19.0868530  32.1395645  76.7288132  19.5591736  30.8564548
  54.3156738  70.5652466  50.0570679  54.2767181  69.6236877  49.8891983
  55.0862541  70.6776199  50.6136703  32.7600365  53.5550079  28.5592117
  32.4851494  54.3798637  28.1588631  32.0860710  53.3698997  29.2132320
  10.1423512  21.0370255   1.3205324  10.2786674  21.9067917   0.9448285
   9.2803698  21.0870094   1.7337167  77.1877518  13.1825705  22.9929333
  76.3470917  12.8812437  23.3374977  76.9713898  13.5855103  22.1520653
  59.3616180  20.4495869  44.1233711  59.6703033  19.6044102  43.7968407
  60.1375351  20.8544750  44.5109978  26.8435364  55.2545853  19.4991703
  27.5962124  54.8001366  19.1207695  27.2156200  56.0378761  19.9044380
  55.1505127  58.0819016  32.2119522  55.5729446  57.2231560  32.2304039
  54.3334503  57.9573212  32.6947823  79.9076157  28.5452042  31.3071270
  79.2495270  28.5144291  32.0015373  80.7269363  28.3108902  31.7430592
   5.4710259  59.3404045  88.5464249   5.5997138  58.4158173  88.3347321
   6.2425632  59.5779953  89.0607300  24.0016556  13.9722013  13.0402908
  24.0904274  13.4180250  13.8156872  24.3814411  13.4539709  12.3307610
  49.0200462  15.4594631  12.9352570  49.0548973  14.5167208  13.0972910
  48.0894203  15.6772385  12.9875813  63.5539055  53.2405396  19.1706657
  62.6111031  53.0882683  19.2352238  63.6906586  53.5150070  18.2639160
   7.1263080  15.9083290  21.3084526   7.2635245  15.0600834  20.8866901
   6.2972732  16.2234974  20.9484501  36.6303558  29.6586742  12.8231096
  36.9832153  29.1933689  13.5815363  36.8740044  30.5728817  12.9683437
  15.3176212  22.2155094  82.8931656  15.4168091  23.1156330  82.5830460
  14.4847479  21.9246292  82.5217590  18.0937195  32.3677139  75.2850418
  18.9562626  32.7741776  75.3689270  17.5647564  33.0207443  74.8268051
  41.9030190  18.1608009  70.7748489  42.3984489  18.9227715  71.0751495
  41.2348938  18.5235462  70.1932449  36.4274292  16.6761112  74.6393509
  37.0466270  17.1508121  75.1938553  36.8495140  15.8325272  74.4767456
  52.3623581  61.5529366  48.3585320  51.7542572  62.0446548  48.9104919
  53.1750183  61.5248299  48.8635330   6.2354207   6.4926662  46.4364014
   6.3938327   7.4062295  46.6741829   5.2827339   6.4228358  46.3752136
  62.0781403  27.0999222   4.6132131  61.9033661  27.3592606   3.7085426
  63.0173492  26.9162102   4.6325212  85.8871155  50.1355820   7.4582200
  85.9264755  49.2982445   7.9203320  86.7464523  50.2220383   7.0455575
  66.2070465  54.7240028  20.1218224  66.6811600  55.0866203  19.3735199
  66.3355942  53.7781029  20.0512714   4.2769451   8.2994423   1.2950156
   5.1427851   8.0709639   0.9568577   4.4511905   8.7088442   2.1425180
  82.5307617  50.7954063  59.1901817  82.7111282  50.7812920  58.2502327
  82.6077957  49.8810310  59.4626045  42.5526581   6.9671812  12.7962255
  41.8513718   6.4364481  12.4184008  43.1258278   7.1684103  12.0564842
  56.1575851  45.9845123  19.8134308  56.0992699  45.0457573  19.9911270
  57.0831718  46.1946831  19.9373245  77.3937759  44.8702621  89.3360825
  76.8888550  45.0006294  88.5334015  77.6760559  45.7498055  89.5869827
  54.7658958  61.2632904  59.4683952  55.5174637  61.4133224  58.8949280
  54.9657822  61.7619629  60.2606049  21.6508408  10.8990030  71.1275940
  22.1778297  11.0654383  70.3460541  20.7524052  11.0850010  70.8547440
  56.9140663  33.2770042  49.2808914  55.9847031  33.3008308  49.5088081
  56.9614334  33.7006607  48.4238586  78.4157639  53.5035553  27.9810734
  77.6259613  53.2900467  28.4779320  78.2978439  54.4183884  27.7253265
  58.6316528  24.7774734   9.2643843  59.1644669  24.2660503   8.6554604
  58.5800285  25.6462994   8.8660049   1.7671512  69.7802200  40.5695076
   1.0299019  70.3286057  40.3012428   2.5407112  70.3153687  40.3921547
  50.9312363   4.3041477  88.8040314  50.4772491   4.8706551  89.4278946
  50.2952538   4.1618395  88.1029587  79.4057083  62.2830429  11.6892290
  79.9535294  61.6255455  12.1179743  80.0285873  62.8888474  11.2876606
  14.8618317  69.9682770  82.5225220  15.0635242  70.2510452  81.6305618
  14.6410093  69.0409546  82.4356308   3.0081813  28.3282299  80.8617935
   3.1646862  29.0522499  81.4680328   2.6118436  28.7401352  80.0940170
  72.5149002  42.2523956   2.5956409  72.7489090  42.0548553   1.6887506
  71.6653824  42.6891670   2.5340970  50.6470528  38.3823967  63.5279961
  51.5069618  38.1658363  63.8883934  50.2725525  37.5377541  63.2778740
  27.2859497  52.6358337  69.7028046  26.6945934  51.9707451  69.3504028
  28.1192989  52.1790085  69.8171234  65.4195633  13.5741081  65.2958450
  64.6440353  13.2177076  64.8625183  65.7889786  14.1867495  64.6598969
  52.7012520  69.7303848  58.1593857  52.1568680  68.9646149  58.3423615
  53.4875031  69.5973434  58.6888580   4.8419342  31.3436565  45.7345772
   5.7071667  31.7397041  45.6308937   4.5206857  31.2323551  44.8397903
  61.0129433  12.8646317  78.4727325  61.3343201  12.7874699  77.5744019
  61.7389069  12.5548611  79.0142593   7.3380833  14.7885609  63.5402794
   6.8519354  14.8193722  64.3642578   6.6620140  14.7995319  62.8627510
  56.1224174  49.5177841  87.9907150  55.6896629  49.6678200  88.8312149
  55.7745438  48.6787643  87.6886063  15.3203602  45.1394653  76.2918243
  14.3978319  45.2095375  76.5373077  15.3127804  45.1205025  75.3348389
  64.2076035  53.1368370  64.9886093  64.9498672  53.4167137  65.5242767
  63.7433281  52.5028572  65.5351868  38.2315979  28.8668690   5.0378509
  38.3038673  29.7803268   4.7610769  38.7833176  28.8085804   5.8178763
  15.4258118  31.8330784  13.9156332  15.8092079  32.5721588  14.3878613
  14.4888697  32.0269241  13.8874483  72.4865189  10.5747423  36.6716805
  71.9944687  10.4830599  37.4875908  73.0747681   9.8197098  36.6606026
  35.6214066   0.8007251  70.4144669  35.4722672   1.4122660  71.1355820
  36.3836098   1.1533152  69.9551697  34.2944412  62.5618019  35.7731895
  35.1236000  62.6432610  35.3019257  34.0012474  61.6693077  35.5895462
  33.4123878  68.8702316  74.7126007  32.6148262  69.2433853  75.0879440
  33.8375816  69.6066589  74.2731552  60.4967117  70.0662460  11.3968849
  60.7153473  70.7824783  10.8006945  59.8188362  69.5706406  10.9374409
  79.6228943   6.4217920  27.3862953  79.8499374   6.8501101  28.2116604
  80.2434692   6.7802873  26.7517834  35.8484688   7.0298820   2.1816778
  35.6201096   7.4795661   2.9952300  36.6546707   6.5567727   2.3876805
  56.4405670  31.8558712  66.5607605  55.6868210  32.3237686  66.2013550
  56.5799599  32.2513809  67.4212112  73.9075699   9.5106497  23.6360321
  74.4786835   8.9245892  24.1326122  73.9580002  10.3454733  24.1016064
  15.6934566   7.8853221  84.3022690  15.5379009   7.5916767  83.4045944
  15.5372829   7.1082492  84.8389206  50.6140442  69.7233810   0.5797940
  49.8427315  70.0878830   1.0138980  51.1206436  69.3241272   1.2870326
  82.5237122  67.9919205  28.8285465  82.6876068  67.1075897  28.5009270
  81.5720291  68.0414886  28.9184418  67.1142349  41.1138992  19.0953999
  67.9580078  41.5311584  18.9217129  67.2503815  40.6276321  19.9085674
  43.7769737  26.9144249  11.8445597  42.8515930  26.7399426  11.6729250
  43.8460121  27.8691063  11.8375683   1.5563576  26.4337711   4.9608359
   1.5108320  25.5246143   4.6648731   0.6427379  26.6920662   5.0825486
  24.8649445  44.9556198  49.8926239  25.2328186  44.0895386  50.0681305
  24.6145821  44.9268570  48.9691925   1.8151313   4.0535102  39.8093033
   1.9662728   4.9986715  39.8169708   1.4182024   3.8813472  38.9554634
  31.3162708  55.1291237  11.7946110  31.5591545  54.7721825  12.6489134
  31.3829861  56.0777512  11.9036341  58.1042633  59.0570030  40.3720665
  57.4231339  58.4055176  40.5389786  58.5995140  59.1006889  41.1900215
  30.1108360   7.7770944  86.4515305  29.5952759   8.4617071  86.0252304
  29.4594517   7.1657000  86.7952271  33.3334732  24.5978794  88.6352081
  33.9607506  25.3077240  88.4978180  32.8795242  24.5137539  87.7967072
  52.8150902   2.1663632  40.1072693  52.2420578   2.7125728  39.5691986
  52.9164696   1.3579921  39.6047821  76.0280228  10.0945330  43.7389412
  76.8714905  10.1671562  44.1856155  76.2512665   9.8254480  42.8478813
  52.0075302  30.5086555  53.4441452  52.2402458  30.3464184  54.3583412
  52.5895996  31.2177677  53.1710396   7.5516982  60.8054123  53.9912910
   6.6216002  60.7003784  54.1915817   7.5733662  61.4533653  53.2870750
  30.5880394  33.6819077  72.5567245  30.3686981  33.5898323  73.4838943
  31.4262772  34.1440544  72.5536499  57.7945251  67.7549744  61.0837555
  57.2001343  68.3585587  61.5294189  57.5352440  67.7993546  60.1634102
  27.8920612  25.0323200  13.2189360  27.9180584  25.8680077  13.6849661
  28.3607311  24.4244652  13.7908564  67.3766327  61.0735779  76.9453735
  66.6070709  61.4371185  77.3833694  67.7910461  60.5213928  77.6083832
  49.4206200   7.4271221  24.9639091  48.7262115   6.9589853  25.4274521
  49.8825493   6.7466922  24.4741459  57.9442215  17.8353100   0.2019367
  57.9701958  17.6338959  -0.7334720  58.2256660  17.0262413   0.6290540
  21.5022163  11.1152630  47.3829727  22.3101807  11.6284847  47.3776665
  20.8434334  11.7093935  47.7424812  12.8145485  58.5595932  48.7135620
  12.1049385  58.0497551  48.3227272  12.4060926  59.3898277  48.9587288
  12.7667627  51.4283180  48.4813461  11.9232273  51.6233902  48.8895493
  13.3846846  52.0163918  48.9155998  47.7838516  59.4326477  44.6153259
  47.9428062  59.1665039  43.7097130  48.6386147  59.7237053  44.9329720
   7.1394329  16.6974220  67.6230927   6.2213283  16.6188869  67.8822174
   7.5270944  17.2696571  68.2852783  34.3445511  64.7183456  10.2359228
  33.8324051  63.9100533  10.2602692  33.8435402  65.3354874  10.7691746
  50.3296738  62.7815857  73.4484329  49.5940437  62.2138786  73.2186813
  51.0893326  62.1992378  73.4529572  58.9643707  17.8433533  63.3860664
  59.7014313  18.3547745  63.7198563  58.8574638  17.1348820  64.0207901
  82.7574921  14.1681261   6.7019525  82.3661041  14.6002846   5.9428144
  82.2899780  14.5335741   7.4530258  55.2891426   2.7252212  53.6854630
  54.5374298   3.3152676  53.7402878  55.7815819   3.0346780  52.9252167
  62.0881462  62.0225716  67.4349289  61.3780518  62.6601868  67.3611603
  61.9300880  61.5836906  68.2707672  33.5106430  39.1695328  64.0275421
  32.5859222  39.0493393  63.8114967  33.8222351  39.8168030  63.3949432
  84.0080338  59.6590195  64.5227966  83.9615631  58.7919388  64.9255829
  84.6878586  59.5763321  63.8540421  29.1054840  45.0638771  87.3240509
  29.0463791  45.3850822  86.4242935  28.1981945  44.8952370  87.5782471
   8.4117346  59.7718620  28.3402653   8.4880924  59.3060379  27.5075531
   8.8929014  59.2280273  28.9639282  30.5652847  26.5654106  88.7068710
  29.8804359  25.9782791  88.3867340  30.7031441  27.1855087  87.9908371
  85.8345871  13.0380497   1.6359910  86.0571518  12.1902189   2.0205412
  84.9624252  13.2346077   1.9779487   4.8475823   7.1764302  59.0823479
   4.2062402   6.6004829  58.6661758   4.8059883   6.9495339  60.0113373
  22.3930378  22.5746002  12.9607716  23.1846619  23.1080437  12.8900509
  22.4207363  22.0020885  12.1941605  53.9425201  35.2718773  53.4060173
  54.6167068  35.8358841  53.7849655  53.3091660  35.8793068  53.0237579
  11.3969250   1.4176903  23.7859821  12.0796461   1.7857035  24.3469543
  11.4501629   0.4732095  23.9321117  39.1335640  20.6393528   9.8828659
  38.6249161  20.0709476  10.4611626  39.7591515  20.0517330   9.4591017
  47.4906883  23.4737587  55.3745346  46.9111633  22.9190731  55.8967476
  47.5722122  24.2806206  55.8830261  83.7057266  42.1974068  77.0333328
  82.8839417  42.0596962  76.5622177  84.2128601  41.4026756  76.8676605
  42.4309616  68.1744308  84.2584763  41.8647842  68.0103607  85.0126343
  43.2536011  68.4821396  84.6390076  20.8960018   2.6641665  31.5294724
  20.8940525   2.2633808  30.6602211  21.4582939   2.0946429  32.0545464
  21.4213181  43.2272263  79.3975525  22.1775455  43.1742744  79.9819794
  20.6845608  43.4231720  79.9763718  69.5378494  66.7945633  53.3618774
  69.8968201  67.2254715  52.5861893  69.3570557  65.8990250  53.0762863
  73.7345352  38.6374321  59.1714554  73.2041245  39.4205208  59.3186569
  74.4213104  38.6848221  59.8365326  73.5329971  52.6122093  41.3046799
  74.0648041  53.3184624  41.6715851  73.9646149  52.3913498  40.4793587
   2.0239277   7.0613899  65.9770432   1.9504538   8.0146990  65.9319229
   1.6238782   6.8297410  66.8152161   3.9355941  42.9961319  50.8674545
   3.2113876  42.7980194  50.2737274   3.5150108  43.1627922  51.7109947
   4.1119151  27.7302799   3.7788553   4.7165341  26.9883175   3.7914495
   3.2690616  27.3568096   4.0364408  65.4805069  61.5208130   9.3833714
  65.3616257  61.0908737   8.5364656  66.4219589  61.4688606   9.5482950
  65.1546783  12.5704679  79.2175217  64.9529800  11.7776833  78.7204971
  64.4488373  13.1779633  78.9962463  80.6785049  28.1946201  77.3695602
  81.4737473  27.7145233  77.6004791  79.9814377  27.7490940  77.8510513
  -0.0352322  67.2353516  24.4032612  -0.6403061  67.5774689  25.0613441
   0.7313215  67.8054581  24.4633121  42.7158546  18.8986702   1.4600374
  42.0125237  18.2822990   1.2559664  43.4342995  18.3478699   1.7709827
   5.7057543  27.4602203  17.2995510   5.6107893  26.8209953  16.5934315
   5.7006617  26.9353886  18.1000252  63.3161087  57.7107964  51.3140831
  64.2101669  58.0436630  51.3921318  62.7614861  58.4753838  51.4690895
  58.1736832  68.9554214  10.2917833  58.6001320  68.7380524   9.4628553
  57.7013359  68.1589661  10.5342169  40.6980743  45.3268242  11.2478380
  40.5459442  44.6618767  10.5763226  41.3043938  45.9449692  10.8397875
  84.1280289  63.7324181   2.8231068  84.9287109  63.7275352   3.3476181
  84.3825150  63.3278618   1.9937668  32.4687576  56.7924995  47.9540520
  31.9901352  55.9702263  48.0590210  32.0518990  57.3928604  48.5721359
  52.0925598  41.5392456  52.1606102  51.8223267  42.3022194  51.6496506
  51.4600143  41.4949226  52.8776512  68.9955444   6.7694788  70.8895035
  69.4128876   7.2048178  71.6328278  68.4263229   6.1103444  71.2866974
  63.5870399  34.1569252  51.1266022  63.7413254  33.2262421  50.9645691
  63.7449570  34.5766678  50.2809601  62.8664474  29.2303333  22.7246208
  62.1341476  28.8712025  23.2256165  63.6362686  28.7753849  23.0661278
  30.4886227  60.9116859  86.2777863  29.7672691  60.5186691  86.7691269
  30.0661774  61.5450821  85.6976242  17.7862129   9.7102842  65.2168732
  18.3315449  10.3594799  64.7725906  18.4082947   9.0666771  65.5560150
  71.8251038  35.8205376  69.7954178  72.5466614  36.3461189  69.4499435
  71.0609512  36.1031837  69.2930069  44.5988388  44.6937065  13.3188925
  44.9523621  44.9629974  14.1666765  43.6642075  44.8925438  13.3750458
  81.7720032  18.7462330  83.1773834  80.8224335  18.6399555  83.1203384
  81.8931122  19.6120739  83.5671005  18.2682209  21.0620804  57.5671883
  17.5662994  21.6011009  57.2025070  19.0735416  21.4709473  57.2501373
  77.4289932  40.3319435  31.3969231  76.5409317  39.9923210  31.2863026
  77.8723907  39.6734047  31.9316788  15.0206337  13.4317751  67.4295731
  14.6397734  13.5041046  66.5543900  15.9596796  13.5576725  67.2932892
  82.4173050  22.5616150  -0.2165587  81.4756088  22.4554558  -0.0817347
  82.6481094  23.3323708   0.3019905  37.6752090  11.4156466  75.3668976
  36.9567642  10.7903595  75.4622040  37.8956680  11.6657534  76.2641602
  74.1480484  10.7686062   3.2309656  74.5707321  10.6190767   4.0766659
  73.6789703   9.9540167   3.0502942  24.8726254  17.5074863  76.1968307
  25.0900383  18.4002743  76.4649658  24.0081596  17.5825710  75.7927399
  31.8143616  51.1278343   7.5146108  31.0152168  51.1898193   8.0378304
  32.5219574  51.1121597   8.1590462  79.4552002  27.8134480  27.1545315
  78.5721436  27.6892929  27.5024185  79.3386917  28.4045658  26.4107323
  39.8882217   3.9049187  82.1864243  40.4114647   4.7022529  82.2683182
  39.5293274   3.7629445  83.0623703  64.0880051  71.8952408  69.6261902
  63.3887100  71.2561646  69.4890747  64.7302322  71.6974945  68.9445190
   9.0686073  65.7373657  27.6001244   8.6199379  64.9654846  27.2549877
   9.5360069  66.0993195  26.8472881  56.5551910  20.8822689  33.4798965
  55.9207687  21.5041313  33.1234932  57.3764420  21.0982723  33.0381660
  44.5303802  39.1331673  54.2763596  44.7832680  38.2350578  54.4900856
  44.2031288  39.4925270  55.1009789  34.5830688  59.8487167   0.2657003
  35.1296692  60.5920486   0.0109148  33.6867371  60.1454544   0.1083161
  80.8863831  69.9772873  68.5228958  80.6320572  70.8952713  68.4288330
  81.7779999  69.9390945  68.1767883  20.1787834  62.7914314   9.7250633
  20.2822018  62.5215302   8.8125448  19.9489708  63.7193260   9.6758080
   9.2123833  15.7437029  23.1655750   9.0819263  16.2927322  23.9387379
   8.4830894  15.9671984  22.5872917  63.4316635  27.7184830  65.6832504
  62.8789330  27.4671803  64.9432678  63.5873566  28.6547050  65.5588226
  59.2777557  52.2984924  24.0975857  59.1502609  51.7753105  23.3062229
  58.6419296  51.9480591  24.7214050  23.0865536  53.8398705  27.1244049
  23.5304470  54.2225685  26.3676147  22.2667103  53.4940300  26.7715816
   2.9098387  25.7097950  28.7051868   3.6433458  25.2588501  28.2870388
   3.3021882  26.1662445  29.4494629  75.5508347  19.3684807  87.9542618
  75.0220337  19.2169189  88.7376022  76.1388092  18.6143055  87.9125977
  26.6015186  56.3334923  29.4083271  26.7805748  57.1686325  28.9762287
  25.7176151  56.1012306  29.1237202  20.9113712  67.6284790  67.7804108
  20.9716473  68.4228058  67.2497101  21.2698193  67.8811111  68.6312485
  78.4626236  65.3186035  57.6024628  79.3705063  65.0303268  57.6967430
  78.4371796  65.7553101  56.7510719  12.8719654  56.3134499  67.5526352
  13.0887394  55.9207993  68.3982544  12.4158497  57.1250038  67.7752762
  63.1475525  61.0922623  29.6283741  62.9310455  61.8470001  29.0808964
  62.6521568  60.3684120  29.2451591  86.1579437  66.1192627  48.3466682
  86.5325089  65.3723755  47.8796616  85.7875290  66.6711426  47.6578636
  79.9899902  10.6905985  33.2357674  79.8613358  11.1643162  32.4140167
  80.9387589  10.6838446  33.3623238  16.2210197   0.6758981  25.9694176
  15.3474951   0.8667676  26.3111115  16.5752373   1.5312417  25.7262096
  50.9429588  54.1612816   2.4069850  50.5019875  53.5679016   1.7989714
  50.6653290  53.8655701   3.2739966   2.0705945  48.7671928  58.4512291
   1.7329895  48.8929901  59.3380356   1.3106802  48.4819794  57.9438667
  65.5184021   2.0009530  37.0558968  65.9218292   2.8384266  36.8275986
  65.5448990   1.9751766  38.0123825  39.3031540  44.1917572  48.8668327
  39.8964195  44.1985817  48.1156883  39.8716660  44.0293427  49.6195908
  63.2678070  26.0580425  14.2391539  62.3125877  26.1127319  14.2673187
  63.4531441  25.4870605  13.4935923  57.1708755  41.0325279  12.8748322
  57.1496544  41.6863174  12.1760168  58.0942993  40.7918625  12.9496994
  28.8796062  63.0114517  41.7813644  28.9678459  63.0762062  40.8304405
  29.5218735  62.3493385  42.0369682  53.7815170  16.7109833  17.9475441
  53.2559814  17.2892380  17.3946724  53.4985161  15.8284588  17.7081852
   4.6023989  37.9486847  41.2459221   3.7543280  38.1925163  41.6168022
   4.6920905  37.0168304  41.4455070   4.2169323  21.5140915  83.3031006
   3.5678606  21.0118408  83.7957306   5.0506172  21.0875778  83.5013123
  64.2206650  70.3114700   5.5788546  64.6733932  70.0967026   4.7632923
  64.8722000  70.7836533   6.0972934   8.8230438  69.2173538  55.6583595
   8.9335203  69.6451569  54.8092346   8.9063168  69.9261169  56.2962799
  64.0796356  41.1306038  38.3676529  64.5783310  41.6804733  38.9719582
  64.4386978  40.2519798  38.4914436  15.6426067  20.9527130   0.8070250
  15.1231928  21.6600475   1.1892811  15.2903986  20.8475876  -0.0767908
   9.5357838  15.1599236  67.3288116   9.4194059  15.3275576  66.3936157
   8.7954798  15.6012897  67.7452011  20.0301819  35.3592758  84.9795685
  20.9819527  35.3350334  84.8806839  19.7232132  34.5676994  84.5375137
  58.4990196  47.4385414  80.1770782  57.9635239  48.1675224  80.4902267
  58.9527931  47.1218643  80.9581223  54.7012787  65.4020996  33.6782074
  53.8462257  64.9971008  33.5329933  55.2732544  64.6737823  33.9203415
  62.4407387  50.7098122  69.0769424  61.5561829  50.8863907  69.3972702
  63.0044289  50.8576851  69.8362961  54.2179413  23.6579475  26.7759056
  53.3178291  23.7364197  27.0919342  54.1989250  24.0443363  25.9003639
  60.1988411  50.5507126  52.9257622  60.6632309  51.2860146  53.3256416
  60.2988586  50.6880379  51.9837608  80.6664505  60.9106140  65.7591705
  80.7236481  60.1961975  66.3936615  79.9647827  60.6467361  65.1639709
  67.4176178  36.3224564  43.5513992  67.5684128  35.7494354  42.7996407
  68.1321869  36.1188850  44.1548691  44.8485947  56.6455574  64.5357361
  44.8506927  55.7623405  64.1667404  45.4790306  57.1295013  64.0022736
  79.0147705  56.4656906  13.5522699  79.5734940  55.6944084  13.4564047
  78.6405487  56.3828278  14.4293823   3.3198659  19.9568424  45.3049278
   3.6939018  19.1607590  45.6825294   2.3858521  19.9018211  45.5069733
  34.0548897  21.6286659  10.4281940  34.5075150  21.6203594  11.2715778
  34.2235870  22.5019474  10.0744247  39.9000969  14.5928679   2.6237454
  40.5326653  13.8913889   2.4687719  39.5789871  14.4340305   3.5113790
  68.1811447   0.8672516  27.5712051  68.9970932   1.2627045  27.8779240
  68.2897720  -0.0684520  27.7411804  72.4013824   4.2577853  84.7209930
  71.8907318   4.2736068  83.9115372  71.8753433   4.7568822  85.3458328
  42.3132401  53.9181480  22.6156120  43.1324158  53.8639221  22.1234264
  42.5845451  53.9129105  23.5335426  31.0260944  27.4011803   7.4754958
  31.1207504  26.7803326   6.7531242  31.0527992  28.2615795   7.0568900
  86.7651596   8.0658436   5.0216527  87.1999359   8.4657059   5.7748537
  85.8335114   8.2295752   5.1681309  20.3014565  68.2059631  14.0380449
  20.3555031  68.5758667  14.9192286  19.3701019  68.2416534  13.8200150
  31.6072350  26.9502869  66.7421036  30.7020741  26.6943779  66.9193726
  31.6073895  27.2067947  65.8199081  74.0604782   4.2512670  77.1612167
  74.8064423   3.8939180  76.6794891  74.0794678   3.7969775  78.0035324
  62.9936600  30.5444946  57.6919632  63.6419525  29.8584480  57.8509903
  62.3477669  30.4299068  58.3890495  70.4201202  46.9254189  77.9225159
  69.6826782  47.5182991  78.0670929  70.0753860  46.0581131  78.1350479
  79.4051361  45.4853706  44.7741661  80.3320389  45.3946800  44.9952240
  78.9958191  44.6965256  45.1297112  86.5616837  23.8169823  46.2589569
  87.1850891  23.1883698  46.6228867  86.1275101  24.1941090  47.0241356
  74.0924683  32.6000786  21.0471153  74.5581665  32.2422295  21.8029633
  74.6082916  33.3634338  20.7873955  38.6207581  68.8562317  66.0173416
  38.6302643  68.8325424  66.9741974  39.2112617  68.1502609  65.7544022
  12.1072969  69.6962891  80.9541245  11.9841375  70.0229034  81.8454056
  12.4157934  70.4564514  80.4609604  85.6600723   9.4887705  62.3258934
  86.6061172   9.4072170  62.4465981  85.3724060   8.6078939  62.0860214
  55.8294182  45.2337341   5.8481650  55.9954605  44.3048058   6.0086284
  56.0759392  45.3664856   4.9328303  66.8879166  31.8133850  62.2573242
  67.1262054  31.5928364  61.3568764  66.2201462  32.4934311  62.1686516
  82.2256622  47.3136826  36.7082710  82.1048279  47.1968422  35.7659454
  81.6638412  48.0557861  36.9315910  74.5466995  62.0090599  88.9099960
  74.3901749  62.8188210  88.4241867  74.0599213  61.3416901  88.4263687
  84.1546707  21.6120186  61.9513664  84.5082321  20.9814720  62.5787735
  83.2943115  21.2624168  61.7194366  77.5287933  11.6343994  70.5610962
  77.9593201  12.0436802  71.3116760  78.2463913  11.3948107  69.9746857
  65.6087112  59.1505165  17.9773502  65.5015335  60.0709305  17.7373981
  65.0364990  59.0324631  18.7355518   6.9633274  52.6954918  74.2344666
   6.6925035  51.8758087  73.8209381   6.8184514  53.3619118  73.5628128
  57.4820518   6.0126834  81.4427795  58.1863136   6.2451196  80.8376160
  56.8843994   5.4775743  80.9205704  31.5077381  56.8332100  70.0397873
  30.8906651  57.5175896  70.2987900  31.0177917  56.2901306  69.4223328
  27.5751534  51.4915733  13.8890648  26.7905941  51.4102859  14.4313669
  28.2744446  51.6986351  14.5090246  58.4325676  18.7611332  66.6562119
  57.7608986  19.1897984  66.1257935  58.0189552  18.6348476  67.5101471
  16.3089008  52.3023834  62.2130585  15.5185633  52.6427574  62.6322784
  16.3994141  51.4141083  62.5580330  79.7148514   4.1032586  19.7648411
  79.0980911   3.9308858  20.4762630  80.5454865   3.7429285  20.0753899
  36.5253677  11.2342796  84.0621719  36.1401062  11.9977169  83.6320953
  37.1720657  10.9078608  83.4365082  75.2923508   1.0097463  54.9229774
  75.4760666   1.1630523  53.9961662  76.1030426   0.6368745  55.2693596
  62.3441582  -0.2931337   0.2676771  61.5852547  -0.1662481  -0.3017077
  62.6888885   0.5888368   0.4073966  38.1754837  12.4922037  11.6116829
  37.7376442  13.2672844  11.2598648  37.5062599  12.0587835  12.1413250
  86.3609467  29.8850174  23.8014278  86.0765152  30.7016468  23.3910027
  87.1991501  29.6864471  23.3840370  24.8968334  23.7626820  50.4381752
  25.0920620  24.2261181  49.6237144  25.0007877  22.8369999  50.2178574
  50.0302010  51.8407326   0.9054996  49.7068939  50.9672585   0.6847245
  49.9593010  52.3357430   0.0893061  58.9474411   7.9673696   9.2042761
  59.4155617   8.5436153   9.8084574  59.6325188   7.4301901   8.8063602
  14.5705128  48.9794006  83.8246078  14.4197559  49.7690468  84.3441849
  13.9973660  48.3211098  84.2175293  43.0135841  54.6965599  10.1117754
  42.8238754  54.0919647  10.8292074  42.7142601  54.2380371   9.3266659
  26.9367714  63.7225113  55.7677689  26.1242313  63.3527870  56.1131859
  27.3582935  62.9925232  55.3142586  80.3393555  59.2514267  88.8326416
  80.2420349  58.9650955  89.7408142  80.2899246  58.4443092  88.3204346
  21.2643719  61.4555664  37.1634216  22.1945763  61.3352928  36.9724083
  20.8424301  61.4628639  36.3042679  36.4148407  40.8510208  48.9339752
  36.7487717  41.2544670  49.7351952  35.5022507  41.1356201  48.8848763
  73.6371460  21.8077793  61.0876236  72.7141266  21.9472370  60.8759422
  73.6488419  21.6813164  62.0363617  11.3487272  57.5768051   5.5147200
  10.8784971  56.9734039   4.9393721  10.7928352  58.3551903   5.5511837
  23.7967987  68.4323883  85.4922333  23.8494263  68.7930603  84.6071472
  24.5323067  68.8309631  85.9574203  52.4173126  23.4354877  65.6430511
  51.7166443  22.7934189  65.7572403  52.6673012  23.6783047  66.5345535
  26.0565796  62.5979233  27.5306225  26.2765121  62.1176300  28.3288574
  26.5644379  62.1661453  26.8436871  41.2991409  49.5941696  43.5045700
  42.1195831  49.3114395  43.1006279  40.8584175  48.7797775  43.7469864
  86.5992279  67.6653061  37.9283218  86.4825745  67.2196579  37.0892639
  85.8220825  67.4293976  38.4349022  85.8265610  10.1201811  30.9598579
  85.4091873  10.9653320  31.1264496  86.7355118  10.3383932  30.7538986
  56.2991333  70.5859451  76.1929474  56.2252541  69.6626129  75.9516296
  55.7992134  71.0497894  75.5212631   4.8800540   6.2144847  19.6636696
   5.2521768   6.4469638  20.5143814   3.9785683   6.5340934  19.7011700
  69.8640747  53.5716972  32.3636055  69.1888657  53.2513084  31.7655430
  70.3997574  52.8017693  32.5546188  23.8491440  49.4889641  21.9563560
  23.8179684  48.6508827  21.4949665  23.4873047  49.2994041  22.8220196
  10.9344139  10.7248735  61.9224663  10.2569838  10.9836740  62.5472412
  11.0788126   9.7949200  62.0973015  25.6822128  69.9952545  79.9301529
  25.5384388  70.9214859  80.1241913  26.6326180  69.9113922  79.8531570
  50.2173805  28.6491470  11.2219992  50.6876144  29.2143440  11.8349152
  49.9144402  29.2416706  10.5339775  75.4826508  22.2598248  27.6159992
  75.8895187  21.8832111  26.8357086  74.6371078  22.5882931  27.3103828
  25.5144329  51.4313545  54.0058212  26.4474640  51.5232506  53.8128510
  25.2721672  50.5889130  53.6213341  55.8900299  69.4845963  83.8022156
  55.6473808  69.3559265  84.7191696  55.9438095  68.5993195  83.4421921
  76.8969955  27.7791481  66.3184738  77.6632919  27.2541924  66.0872726
  76.9953308  28.5836773  65.8092651  16.1622086  56.5247002  15.0372686
  16.8290367  55.8390732  15.0757713  16.0124664  56.6609077  14.1017170
  24.0525475  15.1192217  61.5076637  23.7345581  15.4054775  60.6514091
  23.9476128  14.1678581  61.4963303  45.2236900  70.3437042  62.7029800
  44.6488190  71.0819244  62.5010147  44.8107376  69.5942230  62.2740517
  62.3764572  17.8584919  79.2628632  62.1868057  18.3662376  80.0518265
  63.2931862  17.6003475  79.3587723  23.6048737  45.4040070   7.7795000
  23.2838707  45.4579086   8.6796579  23.9778290  46.2683296   7.6060538
  48.1632652  69.5407410   5.0762558  48.7407608  69.6804657   5.8267283
  47.7836990  68.6745453   5.2241173  11.5761890  18.2781963  27.2790623
  10.7537470  17.8225784  27.0995235  11.4959402  19.1101074  26.8124619
  20.5345688  25.2536049  51.7595329  20.7460518  24.6055374  51.0875816
  19.9475422  24.7936401  52.3595848  81.9083862  56.7789803  11.1903467
  81.5220871  56.1239204  11.7716379  81.8174286  56.4049187  10.3139696
  25.3142262  63.8547974  49.7722092  25.6359444  63.2763672  49.0807266
  26.0611820  64.4152145  49.9824944  19.2841663  37.9960365  84.4114761
  19.3229694  37.2134666  83.8616486  18.3484917  38.1572266  84.5329819
  21.0603466  13.7024765  24.8749790  21.8556366  14.0973577  25.2324905
  20.3496780  14.2478991  25.2121696  19.5052586   0.3392585   1.9489521
  19.2753105   1.1796452   2.3453174  20.4468670   0.2536904   2.0982358
  17.1311970  14.9328356  27.7236404  16.7013664  14.1003399  27.5276108
  17.7714729  15.0431604  27.0207119  17.4654541  61.2242889  66.2013855
  16.7490234  61.2701454  65.5682526  18.2582455  61.2082481  65.6652374
  86.5936661  24.7558823  60.5748367  85.9085999  24.1649837  60.2621803
  86.1243057  25.5452785  60.8446274  35.1530037  -0.0450826  80.7332458
  35.6894798   0.1042050  79.9546967  34.8198013   0.8219741  80.9643784
  65.5397949  58.3285217  79.8208313  64.7030411  58.4095230  80.2785568
  65.2992020  58.1497269  78.9117737  39.3873444   3.9711070   9.1732817
  38.9638329   3.2269511   8.7453785  39.6306915   4.5541701   8.4542189
  77.7346420   2.1245272  46.7909508  78.2695084   1.7210776  47.4746017
  78.3674011   2.5451133  46.2087555   5.2606063   1.5732987  14.7499399
   5.3711271   0.9191049  14.0599785   5.2417507   2.4101760  14.2857065
  74.9668655  27.8792362  35.3185997  75.3781738  27.3474140  34.6372604
  75.6587906  28.4735317  35.6089058  36.8950386  38.6068535  55.4998970
  37.1638069  37.8573112  56.0311012  37.2235527  38.4089813  54.6228828
  54.5539932  21.9548092  10.4732208  55.4233932  21.9496460  10.8736553
  53.9727364  21.6248741  11.1584320  41.7929344  13.4209652  64.8408966
  42.0775375  12.7471933  65.4583664  42.5341148  14.0242033  64.7862244
  37.6387939  70.1802673   7.4201636  37.1583481  69.7608109   8.1339283
  37.0045319  70.2372665   6.7055335  23.5482826  26.2474022   2.3286412
  23.2183990  26.0179348   3.1974063  22.9064541  26.8689690   1.9852126
  43.8242989  37.5803299  22.6261272  43.6139259  38.1057396  23.3980846
  44.7044182  37.8624039  22.3770103  81.0710983  28.2481289  36.1727180
  81.0040894  28.2108097  37.1268425  81.9546585  27.9330997  35.9821663
  66.0801849  54.4695053  73.1442032  65.4899063  53.7576523  73.3913116
  66.7416153  54.4832382  73.8359756  81.7829819  21.4584999  57.8014069
  81.2422485  21.1283188  57.0838966  82.6273346  21.0228748  57.6850739
  35.5222549  62.7709084  71.4037933  35.8490524  63.6510201  71.2171555
  36.3103638  62.2315674  71.4688034  15.0440760   7.0034137   5.3021245
  15.9495802   6.7270870   5.1609278  14.8565912   7.5922384   4.5711207
  46.5914345  62.5881882  80.5469589  46.3598976  61.8200951  80.0248032
  45.9766350  62.5733490  81.2804718  19.8959885  43.8441429  31.0632133
  19.3641644  43.3327904  30.4533672  20.2476635  43.1972694  31.6748619
   4.7280207  39.5911064  70.3437500   4.9224863  40.2344246  69.6621704
   5.1240854  38.7793312  70.0269165  43.1395226  42.2415581  75.3871078
  43.5562248  41.4785194  75.7875671  42.3395920  42.3723755  75.8962555
  75.4072495  42.1018219  57.8523941  76.0003891  42.0969849  58.6036530
  74.5326233  42.0468063  58.2374115  33.5000534  49.6900635  29.3064232
  33.6917648  49.0689812  28.6037598  34.0227699  50.4628143  29.0922813
  13.7810535  12.0132008  65.1535645  12.9175262  11.6010695  65.1800308
  14.0565376  11.9336205  64.2403259  62.6935463  55.0063667  63.8775749
  62.9944077  55.7575111  64.3889389  62.9695778  54.2441177  64.3865128
   1.7709434  42.7695122   2.2814057   2.3922775  43.4327545   1.9809237
   2.0284150  42.5925522   3.1861849  57.0300522  64.7840195   9.0203686
  56.9124451  65.3891983   9.7525959  56.2094269  64.8382797   8.5306120
  82.1945496  62.2610016  40.5171852  81.3443222  62.5377426  40.1754990
  82.2933578  62.7469902  41.3358955  67.8297501  46.9961472  25.9327984
  68.3212280  47.4517059  25.2493172  66.9327698  46.9619255  25.6004143
  75.5223846  19.2075806  79.9961090  76.0568008  18.5019360  79.6318283
  74.7769775  19.2759323  79.3995132  78.2177124   6.5438356  36.4575005
  77.5351257   6.3736253  35.8083954  78.7808380   7.1997423  36.0465240
  68.1065216  60.2349243  85.5386124  68.3209991  59.3178558  85.7095261
  68.2601242  60.3459816  84.6003647  57.3603516  40.4848480  49.4614182
  56.5813179  39.9356537  49.3735123  57.4549828  40.9048920  48.6065254
  26.0790825  61.4635887  80.1583939  25.7084389  60.6222305  79.8919907
  26.1627293  61.9574890  79.3427353  25.8812313  10.4439459  77.5912704
  26.4249306  10.6991596  76.8459625  25.7062798  11.2644157  78.0522003
   3.3756270  57.9308891  30.6780071   3.3711367  58.7255287  30.1443768
   2.8200686  58.1429482  31.4280853  53.3599815  13.4082527   6.6568413
  52.7625122  12.9856749   7.2738457  53.7439651  14.1315393   7.1524658
  71.0742722  61.2366600  64.1690674  71.9311523  61.6372261  64.0223083
  70.9790192  60.6064491  63.4549294  13.9690247  25.1709938  64.3636398
  14.7865925  24.6733723  64.3773270  13.4611969  24.7778454  63.6538658
  27.1737938  56.1902084  32.1918793  27.2641277  56.1650848  31.2392826
  26.2292137  56.1597443  32.3437767  26.3827915  66.0289307  36.9959755
  26.7040787  66.9262848  36.9078484  27.1425819  65.5310516  37.2977486
  12.4826832  38.3874474  13.9984846  12.1766510  37.5147247  13.7516413
  11.7380552  38.9617767  13.8198624  75.1426620   2.6172380   1.9766288
  75.6858826   1.9728220   2.4303529  75.3149643   2.4641340   1.0475961
  10.2490902  17.0121193  10.2669020  11.0995216  17.4403305  10.3650532
   9.7710552  17.2435818  11.0632305  27.6584244  70.2881622  31.8622875
  27.6289806  70.8596573  31.0949802  26.7498741  70.2393570  32.1595879
  61.7375984  38.7487259  25.3442898  61.0289040  39.2601280  25.7347374
  61.2970352  38.1512909  24.7399673  85.2591705  38.4330940  59.5370140
  85.9353409  37.7806931  59.3542709  85.7284698  39.2672539  59.5500526
  43.9171333   8.0407610  10.0359840  44.2282486   8.3767567   9.1954212
  43.8170433   8.8197956  10.5830851  77.3601837  21.6252117  45.0163193
  77.6932755  21.7346745  44.1256447  76.8541946  22.4206219  45.1822433
   0.6769252  62.1210365  72.7675705   0.4994484  62.4100990  73.6626587
   0.1973824  62.7396469  72.2165756  39.2509842  56.7339211  57.6918831
  40.1272278  56.3512383  57.6473541  39.2826195  57.4757309  57.0877724
  52.9294281   0.5041481  27.8653164  53.2580299   1.3771228  28.0801849
  53.6390686  -0.0872924  28.1159973  64.3621445  38.7928009  88.6581879
  64.6101913  38.4137001  89.5013885  63.4172935  38.6508751  88.6004257
  21.6400604  34.7034798  82.2976227  21.9289570  33.9461250  81.7885208
  21.8136253  35.4541779  81.7296753  16.7697563  57.9214935  69.3025742
  17.4535046  57.3078156  69.0340118  16.1838703  57.9727936  68.5473709
  34.9105606  57.4921684  53.7072067  35.2376022  57.2233925  54.5657158
  34.9648819  56.7006607  53.1716690  82.2905273  21.2269154  22.0315723
  82.5046692  21.1500130  22.9613380  82.4180450  22.1544266  21.8323421
  20.0701752  56.3242149  64.8957977  20.5694256  56.3088417  65.7123413
  19.7637539  57.2278175  64.8193893  79.0764084   4.9058924   3.4027870
  78.3831787   5.3426723   3.8976469  79.8200378   4.8790708   4.0048943
   0.0886185   6.6632104  20.4032822   0.2358576   5.7465796  20.1701698
   0.0162035   7.1154461  19.5627651  53.7236671  56.4920769  49.0335808
  52.8349609  56.1365051  49.0334854  54.0532112  56.3129539  49.9142342
  20.1349125  56.1999512  60.9653854  20.9212227  56.7355042  61.0708885
  19.4108143  56.8230133  61.0262527  50.1718750  15.1748323  84.5164566
  50.5174751  14.3901758  84.9420242  50.2759361  15.0050592  83.5802002
  16.2649117  44.4494362   6.9448881  15.5597048  43.9130363   6.5826807
  16.6345482  43.9158478   7.6483674  17.2517548  50.3354568  65.2357101
  18.0342102  50.4637794  64.6994934  16.5291405  50.3319778  64.6079788
  33.4911919  59.0832520  22.0641308  33.7023735  58.1632919  22.2231998
  34.1522141  59.3757019  21.4366302  44.0284233   0.2861017  86.9133377
  43.7225227   0.8712665  87.6063232  43.8017540   0.7382343  86.1006699
  25.2769718  24.9406548  80.6552887  25.3042603  25.6538525  80.0174561
  24.4069786  24.5562534  80.5476837  49.0800438  19.6210003   6.2919416
  48.1529999  19.3863106   6.2502007  49.1800117  20.0520191   7.1407409
  76.8830414  43.2092247  17.2919960  76.6737366  43.0999565  18.2196178
  77.6228561  43.8165398  17.2833157  68.2364578  32.6602287  78.8274765
  68.5622330  33.4654694  79.2295837  68.1779633  32.8651772  77.8943100
  57.4299507  43.8185539  14.4114475  57.2176056  42.8975945  14.5630159
  56.8249321  44.2998695  14.9758224  69.1238480  17.7947540  73.4606857
  68.6130753  18.5820866  73.6489716  69.4699936  17.5247173  74.3112717
  52.8665237  58.1992302  42.6161575  52.8217697  57.3719597  43.0955887
  53.5665627  58.6887741  43.0480385  74.9553986  67.0360718  65.7507553
  75.2946701  67.2405396  64.8793640  74.0752640  66.6952744  65.5912094
  15.4785194  70.3890610  29.3315411  15.9493132  71.2163925  29.4320450
  15.0297718  70.2657013  30.1679859  81.4534683   5.6712871  42.6947289
  82.0372543   5.0247722  43.0915184  80.8424225   5.1528373  42.1712189
  64.5485611  26.0055199   4.0466900  65.3012466  26.5965824   4.0282249
  64.9322433  25.1286659   4.0347223  63.3381729  10.5185099  23.0315990
  64.1161041  10.8954468  23.4426632  62.7809296  10.2598476  23.7656326
  59.1027107   9.1771040  88.4871368  59.2312050   8.6189537  89.2540665
  58.4815445   8.6949167  87.9413528  22.2757607  32.8948097  80.0231552
  22.9943619  33.4304428  79.6870956  21.9334908  32.4422951  79.2522430
  14.3391171  39.6499863  79.7042770  14.3061352  39.3466721  78.7970047
  14.5864048  38.8741150  80.2073669   0.0055984  13.3172245  42.0968933
   0.4323932  13.2691965  42.9523315   0.0767870  12.4304676  41.7435875
  10.5334654  56.2798386  65.1854248  10.2794323  55.3571548  65.2041702
   9.9702597  56.6966209  65.8376007  24.3558064   4.0894532  65.5925980
  23.8065796   3.3163035  65.4629059  24.3351860   4.5420728  64.7494278
  66.3698883  65.6980133  21.7549515  66.1802063  66.6065674  21.5209064
  67.2499924  65.7261047  22.1302719  71.2067566  17.9013977  64.6785049
  72.0706787  17.7192459  65.0482101  71.1417236  18.8563843  64.6808624
   6.9255934  10.5460548  64.5259552   6.3246360  10.1698265  65.1690216
   6.7638988  10.0461302  63.7258568  72.4757767  20.7483845  43.3820610
  71.8152237  20.7942944  44.0732880  73.1194687  20.1190205  43.7073135
  16.6994381   6.2502646  71.5220566  16.8902225   6.6110101  70.6562042
  17.1786575   5.4220495  71.5473633  68.8127060  20.8455009  40.8883171
  68.5329056  20.2576962  41.5900497  68.6490021  21.7237473  41.2319984
   0.9877654  68.5893860  34.8372154   1.3995805  69.0196381  35.5865631
   0.7478665  67.7213364  35.1615143  78.6237411  32.3862267  58.8325882
  78.2292252  31.6991348  58.2954750  79.3540573  32.7118683  58.3064346
  62.9855423  31.1552010  52.7753868  62.5085144  30.8576832  52.0006828
  62.5863647  30.6756535  53.5012817  35.5747604  67.1914597   2.7300355
  36.5078659  67.2704315   2.5317616  35.1954803  66.7974625   1.9444474
  59.0395355  66.9754944  80.4141006  58.7060623  66.4681168  79.6741104
  58.6462402  67.8416061  80.3072968  67.9599380   4.0906849  26.9854527
  68.2039032   4.0583091  27.9104729  67.0317764   3.8569765  26.9742279
  35.9040489  65.4798355  71.9290085  35.1993904  65.8808517  72.4377975
  36.7072105  65.8269653  72.3171616  63.1605453  26.5711117  26.6817455
  63.8627548  26.2573853  26.1119156  63.0729065  27.4993305  26.4650383
  14.6838903  22.6279316  24.8976555  14.2325039  23.4064999  24.5716000
  14.7290077  22.0429077  24.1413860  58.5672646  23.0875340   5.6699710
  58.2973480  23.2753429   6.5689173  57.7622375  22.8137474   5.2304201
   2.0262089  59.4646950   0.8375323   2.4952946  59.9859238   1.4890751
   1.6260897  58.7556725   1.3409445  50.1590500  71.3618317  39.8102722
  50.6083298  70.5231094  39.9147758  50.0615540  71.6941376  40.7026291
   1.2158242   7.0253215  25.9684811   0.9801311   6.1137538  25.7960739
   1.9730681   6.9707756  26.5514374  19.8235512  47.6284828  50.1420746
  20.5097122  47.6194267  49.4747429  19.0119057  47.4936447  49.6529083
  74.2476654  37.8469391   4.5784073  74.8243942  38.4222412   4.0757809
  74.6120911  36.9711494   4.4502749  44.6442719  25.1092377  14.1181669
  45.2461700  25.8523197  14.0760021  44.3557281  24.9831409  13.2142458
  64.8426590  13.7096701  57.9342575  64.8899765  14.2796755  57.1667404
  65.6174774  13.1517448  57.8663826  14.2085028   9.5269203  68.0600967
  13.3319101   9.8890305  67.9308929  14.5616589  10.0142899  68.8043976
  27.7562065  57.0212517  64.0435638  28.6337891  56.6912537  63.8507309
  27.9064598  57.8213959  64.5469742  21.4153690   0.7544379  13.5955191
  21.8290844   0.4400548  14.3994064  21.9904613   0.4478298  12.8944540
  54.8682365  22.3005981  19.0346260  54.6729851  22.7449951  19.8596230
  54.3647652  22.7821102  18.3782024  73.1893311  55.1963577  78.7623138
  73.4798889  56.0275307  78.3868713  73.9119415  54.5917091  78.5935974
  64.3869858  47.1977882  72.2797241  63.9399796  48.0210037  72.0829163
  65.2987366  47.4495010  72.4266357  81.4266815  11.6006737  83.3914185
  81.0196686  12.2210627  82.7866974  82.0336456  12.1318035  83.9069061
  38.3559418  54.1352196   4.2532907  37.6108932  54.2062988   4.8500185
  38.7053413  55.0247383   4.1993847  49.6570778  19.3322849  69.9088898
  50.0793877  18.8437023  70.6154099  50.0258522  18.9611568  69.1073227
  38.6392555  24.6917648  80.8606796  38.2858124  25.3877201  80.3066406
  38.3804932  24.9379177  81.7487564  30.8395348  58.1440010  49.8000298
  30.1892757  57.7720909  50.3959122  30.3223934  58.5904427  49.1295929
  56.0041122  12.6741295  52.6054840  55.5927086  11.8149643  52.5116119
  55.4328003  13.2677774  52.1182327  15.0810127   4.3425775  43.2311096
  15.7510595   4.9726677  43.4961624  15.4449930   3.9185820  42.4539490
  19.9032421  53.6624413  39.3890953  19.5977116  54.3306732  40.0025673
  19.4297466  52.8701248  39.6426048   6.8852873  13.0737743  20.5920410
   6.6571341  12.7152939  19.7343292   7.5050550  12.4428473  20.9581699
  78.7934113  71.8241043  11.8373919  78.3533478  70.9755859  11.8882990
  79.7154007  71.6259613  12.0014486  37.2410812  59.4272766  81.4456635
  36.7878265  59.8421440  82.1796112  36.5820503  58.8583336  81.0479050
  66.0705948  43.7805367   4.6612639  65.1873322  43.8191109   5.0281219
  66.0018158  44.2370186   3.8227382  63.1450081  43.0421257  78.1869354
  63.6232300  42.4183655  78.7332458  63.8278275  43.5291862  77.7256775
  76.9960098  22.6582184  71.2089615  76.6364288  22.9886951  70.3857269
  76.2925110  22.7848854  71.8455811  58.8018646  46.9727554  10.5363064
  58.4173164  47.6244545  11.1225195  58.3920403  46.1470909  10.7942791
  65.0940475  31.8912525  28.9841080  65.7346725  31.1812744  29.0260849
  64.3121414  31.4864388  28.6086330  64.9391022  32.7617073  82.1478500
  65.3027802  32.3413467  81.3685837  64.2586823  33.3442116  81.8102875
  26.7675667  66.9607925  12.8983469  26.3748512  66.7744217  13.7511492
  27.2553806  66.1665344  12.6805773  35.4487610  61.2429733  60.4325562
  34.5455208  61.2624245  60.7487946  35.9556236  60.9152069  61.1754494
  58.7261543  42.5284576  66.3791580  59.4622650  41.9187965  66.3273468
  58.5120811  42.5668068  67.3113251  87.0350571  30.9181900  38.8883514
  86.2068176  31.0781631  39.3407478  86.9516144  31.3924789  38.0611153
  61.0702744  62.5500412  88.7064514  61.0003471  61.9971657  89.4847031
  61.9379005  62.9488068  88.7731171  12.1447048  33.8025169  62.8585777
  12.0058107  33.0099068  63.3769493  12.3581438  33.4813881  61.9824791
  79.4649277  11.1381903  61.7465363  79.3689270  11.7157679  60.9892921
  79.0942764  11.6354980  62.4755974   8.1421652  21.5304718  78.2680588
   8.4796896  22.0604706  78.9901428   8.9149351  21.0936050  77.9099960
  80.0426331   8.5114508  60.3921471  80.7457123   8.8607216  59.8444939
  79.8871536   9.1931076  61.0459061  72.3635864  52.4843521  14.1144457
  71.6184311  52.9158287  13.6963549  73.0722122  53.1256714  14.0616703
  19.3449001  50.9050407  14.5085402  18.4089298  50.7206383  14.5871964
  19.7436657  50.0516739  14.3382988  35.6758614   3.7575593  19.8611679
  36.3865089   4.0668592  20.4229050  35.0962143   3.2760875  20.4514446
  85.4076843  11.6590691  33.2994499  86.1162720  11.0282698  33.1720505
  85.8452988  12.5101509  33.3189812  45.8056908  66.2621231  78.1506195
  44.9055214  66.1704636  77.8383255  45.8180542  67.1065292  78.6012497
  82.1065216  70.8762589  35.4141655  81.7002563  70.6187820  34.5865860
  82.5511780  71.7005310  35.2164574  56.3144798  12.2299871  55.6764297
  56.0208778  12.1122084  54.7730141  55.5064850  12.3306093  56.1796722
  71.5539398  29.3874226  20.3897285  71.4456558  30.2664394  20.7528267
  72.1965942  29.4953861  19.6886101  55.5074539  24.8827248   3.6710966
  54.5563660  24.8493824   3.5683713  55.8062286  25.4429798   2.9548013
  22.3115311   4.3983169  42.1192551  22.7281628   3.7424409  42.6782494
  22.1529484   5.1423092  42.7002525  44.7869034  47.3211212  74.2708359
  44.7589226  47.1233292  73.3347168  43.9036598  47.1253014  74.5835190
  85.3892593  34.5484657  70.8102341  85.8809891  35.3686142  70.8526001
  84.9300003  34.5876160  69.9713211   5.5133715  15.8164177  16.6857510
   4.7466884  15.2583447  16.8160706   5.4689302  16.4545593  17.3978119
  18.9051056  34.4419975  14.6755371  18.0758381  34.1691399  14.2829838
  18.9572563  33.9472389  15.4932938  17.0426998  67.1506805  68.4265137
  17.7953835  66.5876007  68.6071854  17.3303852  68.0258179  68.6865082
  60.7028198  44.1405945  58.3048782  59.7527084  44.0618744  58.3904724
  60.8990059  43.7561302  57.4505196  40.3561554  57.9691391  47.4330254
  39.9288559  58.3674774  48.1912956  40.5512962  57.0741577  47.7107964
  54.6920166  50.5411606  45.5188484  55.1077347  51.3611717  45.2524071
  54.0701332  50.7980614  46.1996498  40.4574242  43.3875275   9.3450508
  40.6931725  42.4788666   9.1579924  39.6074333  43.5065460   8.9212732
  52.2879868  50.7450256   2.4329960  51.8096504  50.8347778   3.2572339
  51.6695251  51.0385094   1.7639681  81.6559525  50.1758614  24.6398506
  81.0862732  50.8133278  25.0703506  82.3038330  50.7074966  24.1774158
  10.2034550  64.1680145  57.6120071   9.4111366  64.0471725  58.1353264
  10.1814013  65.0893250  57.3532829  84.2298279  54.9001274  17.8367958
  84.7800522  55.4491615  18.3954029  84.7522583  54.7630196  17.0465431
  48.7278671  35.2544479  81.2373886  47.9937325  35.8281784  81.0180511
  48.9357758  34.8072510  80.4170151   6.0966725  32.3354568  69.9992752
   5.7392712  31.4619045  70.1586456   5.5572977  32.9164505  70.5357056
  11.1340666  25.9988537  10.3076582  11.0983572  26.4805126   9.4812441
  12.0525579  25.7447414  10.3972826   2.4951699  42.6383133  77.4723587
   3.3916211  42.6855316  77.8045959   2.5860255  42.7308693  76.5239868
  16.3190117  45.5246086  52.0256348  16.4512539  46.2683563  52.6134987
  15.3979673  45.2901726  52.1394424  57.4925346  12.3577185  83.6923599
  57.9956093  11.5665751  83.8853378  57.5462265  12.8772974  84.4944763
  74.2591629  25.4623413  86.7746124  73.6990356  26.2373009  86.8184814
  73.6629868  24.7483959  86.5485840  38.0479774  10.6821194  68.1560974
  38.5473328  11.0323696  67.4183960  37.5070534  11.4155235  68.4489288
  46.3249588  54.7708130  70.4546127  45.8540573  54.0684319  70.9031067
  45.6828766  55.1408386  69.8487701  27.8508987   7.0231075  40.6951027
  28.2631950   7.7968149  40.3108864  28.4535542   6.7489324  41.3863831
  46.8726311  21.9224606  20.7554512  46.7607307  21.6725121  21.6726398
  47.3426323  22.7556152  20.7898808  54.9721832  24.2649860  49.4671402
  54.8484154  23.3219852  49.3591347  55.7816696  24.3440590  49.9718285
  58.8768501  19.6070690  78.8430710  58.5548935  19.6347466  79.7440720
  59.0453568  18.6795101  78.6773224  24.4394245  35.6318893  69.7103653
  23.8775253  34.8952332  69.4698715  24.0726490  36.3778267  69.2357178
   4.0045104  59.1894226  22.9238472   4.5237789  58.7692490  22.2382450
   3.9921291  60.1153297  22.6814194  13.4785213  22.0484505  15.9692097
  13.4846163  22.7915840  16.5724926  13.2927322  21.2909737  16.5241356
  83.9291763  16.9927311  72.2858582  84.1698685  17.1070251  71.3664932
  83.0749893  16.5616627  72.2580109  23.0489330  11.8802156   9.6619406
  23.8662014  11.5079327   9.9931641  22.4064751  11.1783390   9.7661076
  25.3449459  62.1295738  34.2081680  25.7998333  62.9681282  34.2864952
  24.4809399  62.2893982  34.5878792  11.3639040  10.2739964  65.1337433
  10.5598946   9.9934082  65.5708618  11.5347805   9.5910625  64.4851837
  57.6090622  43.7999039  75.7919617  56.9288063  44.4731407  75.7765503
  58.2806053  44.1241798  75.1918716  37.3534622  46.2844009  86.1077576
  37.8319435  45.7372437  86.7305832  37.6251106  47.1782570  86.3162308
  64.5573349  64.7861557  25.4949284  63.7524796  64.5954361  25.9766674
  64.2961960  64.7648239  24.5742855  53.4582634  17.4206772   1.0006814
  53.1957626  16.8085899   1.6881950  53.5988579  18.2493591   1.4586675
  18.9696770  68.7793808  52.3017845  18.7774754  68.1865158  51.5752792
  19.6139984  69.3919373  51.9470215  69.4819183  60.6075020  17.3719273
  69.2031555  60.5687561  16.4570389  69.1114197  59.8191719  17.7687893
   6.1874399  50.7527695  35.6488419   7.0092702  50.2901421  35.8125496
   6.1854138  51.4693146  36.2834969  68.2770844  56.0352745  45.8898239
  68.7974930  55.2321510  45.8698273  67.8481598  56.0214996  46.7454300
  86.1733627  52.1218605  71.1030731  87.0415726  51.8424225  70.8126450
  85.6487732  52.1442261  70.3027344  54.4837494  33.0169487   6.6898985
  54.1571808  32.3930397   7.3382225  53.7598305  33.6298714   6.5614705
  52.3275757  68.8674088   2.6405604  52.9042473  69.3572998   3.2268083
  51.8445587  68.2765732   3.2183490   8.6793652   4.1050572  35.4904022
   9.3265333   4.7201700  35.1453781   8.1405153   3.8747444  34.7335510
  61.0606155  48.7455254  63.5123215  61.7087860  48.0724869  63.3046532
  60.8588791  49.1519394  62.6694946  58.2655487  40.9536819  71.8939362
  58.5022049  40.0277176  71.9470062  58.6137161  41.3364105  72.6992493
  36.4284782  68.0190353  57.6674500  36.2729225  67.1362762  57.3316269
  37.1271667  67.9101944  58.3126030  11.5721350  66.6878738  72.5364838
  10.9265718  66.2439957  73.0864410  12.2994308  66.0687408  72.4736328
  53.7193146  17.4684315  82.7485504  52.8442039  17.6048908  83.1115799
  53.7518883  18.0393581  81.9809418  79.2488785  11.3321609  30.5227566
  78.8518448  10.6064043  30.0412273  79.9331436  11.6606531  29.9395676
  70.3589249  27.2283173  59.1895294  69.5187302  26.7798138  59.0939217
  70.8105392  26.7458553  59.8820000  17.5118465  16.9693737  21.5804405
  17.4459953  16.7007427  22.4968109  18.2393246  17.5912781  21.5648441
   8.8516951  37.2806206  56.6353645   9.4165792  36.5173416  56.5147858
   9.4285469  37.9496689  57.0039406  80.6479874  38.5755272  64.1718826
  80.6383972  38.0047035  63.4035721  80.6981049  39.4609947  63.8117828
  79.7038040  22.9999580  70.3058853  79.4670715  23.9271564  70.2837677
  78.9816971  22.5794659  70.7727737  62.6538696  54.0493889  34.6895370
  62.7621078  53.2522469  34.1708069  62.4417267  54.7263527  34.0469284
  50.5885582  37.0354309  15.3501921  50.4308319  37.8445282  15.8367252
  50.8962059  37.3279381  14.4922743  82.3416443   0.7283469  64.4849396
  82.5223770   1.5866435  64.1016693  81.4814148   0.4885216  64.1403809
  20.5933208  32.9014244  52.8191910  19.7587605  32.8856049  53.2876892
  20.5253830  33.6560936  52.2343063  47.1628952  62.6794014  33.5746689
  48.0053177  62.8188858  33.1421204  46.7943802  63.5576401  33.6701889
  64.9355774  18.9531574  37.2844887  65.6584167  18.3934708  37.5681839
  65.1422577  19.1687508  36.3750763  58.8570480  58.6818047  46.0455475
  58.2096519  58.3347282  46.6592674  59.6873512  58.6309471  46.5190849
  62.7649879  64.6870956  41.2200050  63.5698128  64.9342651  41.6754112
  62.8633385  63.7500153  41.0513687  16.1986542  64.7541504  79.9199371
  15.3889914  65.1528091  79.6009598  16.0500450  64.6269913  80.8569489
  37.5648994  37.9119949  81.8102570  37.4173431  37.2608871  81.1243134
  38.5156174  37.9337807  81.9192963  50.2558594  21.5070438  21.3093014
  49.3995934  21.0845642  21.3767738  50.7373619  20.9729156  20.6775627
  33.0064926  11.6034746  81.5335541  33.4437637  12.0679464  82.2472000
  33.7208710  11.2266617  81.0198364  43.0992928  66.0486832  80.9834747
  42.7615776  66.8908310  80.6785583  42.8528786  66.0122757  81.9076996
  71.0895767  65.1023026  88.3776093  71.4957123  65.9305496  88.6331329
  70.7380981  65.2677383  87.5027847  74.5385895  64.6676254  30.6362095
  74.4847260  64.9468994  29.7222404  75.2119446  63.9873238  30.6394958
  83.4639969  48.5290642  62.7101631  83.2160416  48.1018753  61.8902473
  83.8064880  47.8206940  63.2552719  29.7903423  45.4774246  70.9523468
  29.9372711  44.5712624  71.2234802  30.4515820  45.9800110  71.4281693
  44.5500259  10.7686806   9.0501490  45.2420120  11.3177814   9.4187622
  43.7378883  11.2196140   9.2810678  65.0061264  16.9532642  79.4172134
  65.7366180  16.3709412  79.6258240  65.4178543  17.7222252  79.0229874
  38.6460953  66.9026031  21.2225800  37.8268242  66.4284744  21.3648300
  39.1417732  66.3487015  20.6194897  22.4057732  53.6159973  57.8765526
  22.2297821  53.9425354  56.9941483  21.5792370  53.7336807  58.3447647
  29.6253452  60.8683739  27.9283028  29.9154797  61.7714462  27.7998066
  28.9144592  60.7531738  27.2977467  69.8635178  23.3449955  10.7210131
  70.7711029  23.0886307  10.8847122  69.6754913  24.0017471  11.3915024
  13.5885324   2.2759225  25.9649105  13.2748232   2.3988507  26.8608513
  13.2421799   3.0279472  25.4845676  24.8187828   2.4575949  17.2756672
  24.9802094   1.8576800  18.0038662  24.7964249   1.8945278  16.5019188
  79.3664551  11.0246305  57.0294113  79.8648148  11.0518665  57.8461876
  79.6474686  10.2143679  56.6042786   3.9546709  49.1175117  38.6773720
   4.6821365  49.5256424  38.2078438   3.7226079  49.7508011  39.3565788
   1.8048583   2.0277848  54.4760818   1.3665960   2.3694599  55.2554512
   2.1814570   2.8004749  54.0549469  25.9819355  66.6885910  79.9623108
  25.7604141  67.6196671  79.9464722  26.5567570  66.5662689  79.2067642
  24.6781502   3.8514907  28.9055786  24.7670193   3.5091374  29.7950325
  25.5115547   4.2896132  28.7331886  16.9264889  65.1853485  53.0587463
  16.0133133  64.9545822  53.2293015  17.4116135  64.3752975  53.2159233
  82.5931931  58.5483055  80.0222702  83.4010468  58.3292046  79.5579453
  81.9143600  58.0454407  79.5722351  72.6888199  31.7501755  81.7898178
  72.2477570  30.9432774  82.0555344  73.4961395  31.4544563  81.3690872
  22.4600239   0.6854634  32.9345322  21.7196388   0.0886916  32.8253288
  22.8432808   0.4400493  33.7766228  75.7691650  14.9710026   6.1767960
  75.3703079  14.1100540   6.3029447  76.1424103  14.9353313   5.2960873
  47.5245018  11.7931767  60.5687332  47.5757256  11.2335129  59.7938881
  47.8045654  12.6550617  60.2605934  18.8746586  25.6077442  85.3513870
  17.9976597  25.7918320  85.0149155  19.0291958  24.6899376  85.1278229
  20.2656250   8.2802811  15.5701637  20.1362362   8.9711370  16.2199402
  19.7642097   7.5377374  15.9069767  76.2247391   8.0604982  14.1821718
  75.6548996   8.7905807  14.4240208  76.7754593   7.9211173  14.9525719
   4.4460673  15.8053589  39.3795433   4.1472206  15.6736135  38.4797821
   4.8500133  14.9721785  39.6221733  55.1795120  64.2205811  20.9339542
  55.9840355  64.0414810  21.4206753  55.3157730  63.8023643  20.0837994
  38.3059120  71.1566391  86.2922897  38.5622330  70.7090073  87.0986099
  38.9650230  71.8413849  86.1785736  71.1654053  28.6960220  76.6966476
  71.6655121  29.4465809  77.0172501  70.2682648  28.8655663  76.9840851
   8.7367382  11.8136749  53.4935493   8.3631554  11.9727592  54.3603592
   7.9940147  11.8911934  52.8947296  80.2252960  15.4096432  88.9512711
  80.6991577  14.9287834  88.2726974  79.5161896  14.8213873  89.2107925
  71.1575089  49.4051666  84.3393478  71.4249649  48.6543770  84.8694534
  71.8859558  49.5424232  83.7337418  20.9067173  68.5574799  60.8608398
  21.0242805  68.8795319  59.9671440  19.9890804  68.7404404  61.0625916
  16.3316593  10.1645613  74.6876755  16.6018143   9.2667360  74.4949188
  15.9133377  10.1095715  75.5468750  52.3265953   2.9814341  67.6145401
  52.0247879   3.8897834  67.6212845  53.1814880   3.0162749  67.1853790
  75.2072906   0.8467470  36.8853493  75.3866348   1.7634754  36.6763611
  75.4729004   0.7532585  37.8001976  80.9621048  22.8503799  53.8993454
  80.7041779  23.4883461  54.5647087  80.7727432  22.0002823  54.2964706
  65.2902756  59.3053398  29.2673531  64.9868088  60.1759377  29.0100632
  66.2439041  59.3828850  29.2960148  39.7388725  63.5466461  58.2665863
  39.2230721  63.9330330  57.5588493  39.1047821  63.0446129  58.7785645
  47.7379951  27.6863117  72.5862503  47.5340614  28.6072445  72.7491150
  48.3563004  27.7034740  71.8557510  76.6588440  11.3132181  85.9255371
  77.5847321  11.5059271  85.7777710  76.1943588  12.0481529  85.5250931
  79.5021896  38.4393883  35.3602676  79.5743027  38.6574173  36.2895088
  79.7153015  37.5072784  35.3157120  55.4908943  38.2418518  12.5651083
  55.0736618  38.4981079  13.3875933  55.0930443  37.3989716  12.3471584
  18.4445496  55.5877342  20.6148815  17.5519943  55.9080315  20.4845543
  18.9242077  56.3451042  20.9503689  73.1994171   5.7165251   6.9950309
  73.0076904   6.6047745   6.6942191  72.3617325   5.3882704   7.3217826
  15.6712790   4.7300987  50.6563988  14.8290644   4.9354024  51.0622978
  16.0926018   5.5810261  50.5353966  33.4941940   3.7063301  45.9406204
  32.6041489   3.6098239  45.6018944  33.5001068   3.1926267  46.7482758
  53.2470474  12.6118498  38.9061203  53.3211937  11.6601429  38.9767494
  52.4903717  12.7515402  38.3367729  71.0190506  18.7230091  70.9852142
  71.8209152  18.3037319  71.2973709  71.2115326  18.9631042  70.0788269
  24.9333344  42.1096039  70.0224533  25.8046207  42.4720345  70.1828766
  24.5564766  42.6796837  69.3522110  63.1630936  21.8964405  89.0476685
  62.8039589  21.0786095  89.3917694  62.3941154  22.4293747  88.8454742
  17.3300304  70.4131165  15.6833124  17.0135536  69.7774963  15.0413914
  17.8259754  71.0484009  15.1669006  21.9394932  34.3851547  14.5099182
  21.5278168  34.7249603  15.3044538  21.8561058  35.0958862  13.8742008
  36.7778587   4.7996397  76.5894470  36.9177513   4.4601474  77.4734192
  37.6149292   4.6638527  76.1454773   3.6674998  62.4734459   3.9191647
   4.0510592  62.2202835   4.7588215   2.8764369  62.9586372   4.1537728
  75.2677002  63.4163818  14.3136377  75.3398590  63.4733315  15.2664137
  75.0871658  62.4921761  14.1419287  22.7350464  54.7095337  15.5898104
  23.4363098  54.5055084  16.2085457  23.1131134  54.5251503  14.7299852
  36.4020882  56.5488281  80.8547363  36.9887733  56.0193672  80.3146362
  36.0085640  55.9242325  81.4640350  63.4770164  11.9513483  26.9880009
  64.3738327  11.6543484  26.8339367  63.4164848  12.0474730  27.9384365
  69.7903061   4.8553853  54.0415649  69.9805298   4.7124901  53.1144028
  70.6330948   4.7377524  54.4798737  14.3043661  66.3591080  75.9801941
  14.1945562  65.4119949  75.8956070  14.7637482  66.4736099  76.8121109
   7.1275182  -0.1175930  43.5702896   7.1892023   0.7305605  44.0096779
   7.5978832   0.0050723  42.7457008  52.8931923  11.7116499  67.5771103
  53.7946510  11.6878977  67.2561035  52.4376297  11.0464249  67.0611877
  60.1554108  57.6647568  27.3017502  60.8309822  58.2403412  27.6602707
  59.9035110  58.0768585  26.4753399  23.5831833  49.4720726  38.8803444
  22.7209911  49.1270294  38.6483955  23.6155548  50.3342628  38.4658508
  17.0393505  57.4789505  18.5728531  17.3786697  58.0521545  19.2602634
  17.1010628  58.0014305  17.7732029  69.9690933  35.2973099  60.5021095
  70.7207642  34.7588272  60.7496300  70.3310242  35.9556084  59.9089127
  53.1002121  66.1022568  45.4687653  53.9438553  66.3480148  45.8483734
  52.8115044  66.8850708  44.9996452  10.4139566  68.9721069  67.6716995
  10.3036861  68.9930496  68.6222992  11.2332802  68.4961472  67.5360489
   9.0121050  44.5814552  39.3969193   9.7801142  44.4401169  38.8433723
   8.4771986  43.7980423  39.2689743  49.0543137  12.8417377  21.0288601
  49.9935265  12.7984285  21.2084141  48.7527275  11.9370441  21.1113510
  37.0395355  47.6187325   7.3263364  36.2678299  47.2636147   7.7674637
  37.1628227  48.4832687   7.7182651  63.6890068  66.8261948  39.3804321
  63.8322449  66.0667572  39.9452057  63.5667610  66.4551620  38.5065765
  83.8961258  54.4333572   9.1723938  83.2967987  53.7009735   9.0286636
  84.1370316  54.3678970  10.0964651  26.8070755  49.6021461  47.7347717
  27.0168171  50.1855392  48.4640808  27.5240917  48.9681587  47.7213554
  65.9218216  28.2085609   3.0479372  66.3966599  29.0097065   2.8267546
  65.1026993  28.2722931   2.5568016  62.4900246  11.8439341  36.2015228
  62.3056068  12.0298815  35.2808495  61.7064743  12.1370258  36.6666832
  83.2717514  57.8209839  40.1010017  84.0944519  58.2363052  39.8423462
  82.8238449  58.4836655  40.6267967  38.7052002  41.2359047  15.7736301
  38.7508507  40.3963470  15.3161507  39.4142532  41.7546120  15.3936033
  85.0489731  60.6470985  12.7215166  85.0162048  61.1484032  11.9067450
  84.4880295  59.8887329  12.5588589  75.1863632  46.1620102  25.9955063
  74.6800919  46.9731712  26.0395756  74.5454788  45.4704247  26.1604824
  36.5335999  12.5984974  16.6229248  37.3869019  12.8984604  16.3096657
  35.9588013  12.6738892  15.8612471  57.2162704  65.1672516  30.7518482
  56.5398560  65.7875214  31.0238228  57.9452858  65.3302078  31.3503609
  70.2978516  23.1000156  52.3203468  69.9712372  22.3218365  51.8686905
  69.7688980  23.1546955  53.1162453  34.1361694  66.3909531   0.4090806
  33.9905624  66.4596252  -0.5344847  33.6373177  65.6177444   0.6727595
  47.5548019  12.1527977  65.6191254  48.0413933  11.6906357  66.3016663
  47.6928596  11.6288528  64.8300400   6.0616570   7.3232269  22.2068710
   5.2485671   7.8283176  22.2059746   6.2989707   7.2529941  23.1315231
  58.9547615  29.4017448  40.1345711  58.6936531  30.0893364  39.5219765
  58.3563919  28.6775322  39.9509850  46.7926521  65.1767197  54.5336151
  46.9933662  65.9033279  53.9437180  47.4059219  65.2822647  55.2609329
  53.1521225  33.3250504  80.8319168  53.8888054  33.6780663  80.3330078
  52.4044800  33.3972626  80.2385864  79.8388977  24.4706135  15.1403971
  79.8664627  23.5902748  14.7655964  79.8296509  25.0538578  14.3814688
  58.3279724  48.3714867  75.1104660  58.1376877  47.9268417  75.9364853
  59.1545563  47.9882317  74.8170242  79.3972244  63.5784950  84.3748245
  79.3606720  64.5264511  84.5023727  79.1036377  63.4466209  83.4733505
   8.8799124  23.6823902  61.6897430   8.3780184  24.2781048  62.2460327
   8.6615734  22.8092613  62.0156364  20.1862583  44.0865364  37.9337120
  20.0740261  43.1391411  38.0116806  21.0074348  44.2688408  38.3905106
  23.9159908  43.6051750  86.4372787  23.5172672  42.7425804  86.3224716
  23.9667187  43.9653511  85.5518799  17.9945908  71.3854904   8.0949020
  17.6956749  70.4977570   7.8978977  18.8720722  71.4325027   7.7153664
  79.4334259  17.2602596  38.7203484  79.0249405  17.5250988  39.5445023
  78.7588425  16.7505531  38.2716103  54.2099533   4.5978794   9.3955488
  54.6343346   4.3800497  10.2254181  53.4671173   5.1482315   9.6436195
  24.3120518  50.7924690  56.4538116  23.4000683  51.0631752  56.5598145
  24.4797325  50.8779640  55.5153008   1.5250878  38.9489555  55.0730400
   2.4683256  39.0809326  55.1685219   1.1850752  38.9954414  55.9666100
  51.7409134  50.8216743   5.2039952  51.0005531  50.2401123   5.0311313
  51.9161377  50.7149162   6.1389446  29.6289158  22.7768631  69.4848404
  30.1442032  22.0165348  69.7543106  29.9904366  23.5033379  69.9925537
  55.0119171  70.7662277  28.7680588  55.8820038  70.8192139  29.1635017
  55.1358032  70.2251892  27.9882126  21.3303108  46.6388397  72.5350723
  20.5780678  47.0274506  72.0885925  22.0708389  46.8158722  71.9549789
  44.1997757  14.5888529  74.0679550  43.7962303  15.4566250  74.0491028
  45.0866241  14.7298765  73.7365341  69.9824219  49.9415512  17.0738983
  70.7450180  49.4609871  17.3959770  69.2587814  49.3192711  17.1469936
  32.2503662  39.7654457  56.6756325  31.3856773  39.9946938  57.0162125
  32.5936089  39.1287193  57.3025208  71.4336624  54.8881035  20.5742588
  71.4076996  53.9548454  20.7854118  70.5190277  55.1677933  20.6122112
  11.0317669   7.1556745  57.7256050  11.2576771   6.6314716  58.4939842
  10.4745207   7.8546281  58.0679092  55.3692818  39.9773178  10.3394327
  55.7350273  39.4637146  11.0596228  54.6630173  39.4329033   9.9915295
  16.2437916   8.5842514  11.8246155  17.0344715   8.2083349  11.4376488
  15.9690447   7.9422894  12.4793148  27.8082161  68.5362701  36.7580719
  27.7237377  69.0239716  35.9387817  27.2662582  69.0197449  37.3815842
  22.9194660  54.3893738  87.2949677  21.9935741  54.5180016  87.5009079
  23.1996803  53.6861420  87.8807755  18.2532845  48.7924461  78.9098358
  17.3074493  48.8855019  79.0237122  18.6013622  49.6694260  79.0710297
  66.3149567  25.3121433  29.2540302  65.4098053  25.4206009  29.5458736
  66.2750854  25.4219913  28.3039913  64.4349136  23.2572651  26.2677517
  63.6265831  23.7683582  26.2275734  65.1283340  23.8909302  26.0837231
  60.1796837  13.3020411  30.8012619  60.3029556  12.5220022  30.2603607
  60.4262123  14.0302906  30.2310810  56.8503494  15.3908882  53.4722443
  57.2507095  14.6501951  53.0169220  57.4521484  16.1194534  53.3197174
  24.6526909  16.0482559  33.5541687  25.3236885  16.3041935  32.9213295
  23.8395672  16.4081268  33.1998329  68.9047012  30.3155041  56.2658424
  68.5857162  29.4142303  56.3125992  69.8088303  30.2659855  56.5762177
  76.1110001  39.9298744  53.5741463  76.3716888  39.0090332  53.5922394
  76.8120117  40.3864365  54.0392914   9.8539190   1.1111351   1.0331172
  10.5029821   1.7787874   0.8113301  10.3518858   0.4374857   1.4962130
  20.5936909  51.7648087  28.4846020  20.8746758  52.1670761  29.3064651
  20.4093456  52.5050163  27.9063759  27.2920704  52.4290085  50.0261574
  28.0328102  52.6669235  50.5837708  27.1925316  51.4850845  50.1499786
   7.7435207  42.1075020   9.6631260   8.0909576  42.0331573   8.7743111
   6.8257332  42.3508415   9.5419493  42.7819862   3.1228838   4.3972740
  42.6535072   2.4481742   5.0639763  42.6539421   2.6657429   3.5660949
   7.5294380  50.2957344  54.4948082   7.6929803  49.3955040  54.2136154
   8.3385429  50.7626152  54.2859917  39.9814491  66.6157837  57.5198822
  39.2386971  66.0133209  57.5597382  39.8375664  67.2218018  58.2467079
  36.0919228   5.4301109  56.8627968  35.2641296   5.8720560  56.6739197
  36.3847847   5.0973306  56.0144348  28.7175255   3.7686665  36.2548065
  29.2709961   3.3087244  35.6236496  29.2130890   3.7403543  37.0732460
  39.2528915  62.8508835  64.6582108  38.9220848  62.4784966  65.4756012
  40.0885963  62.4070816  64.5137634  71.1472321  59.4148865  66.1085510
  71.2732468  60.2126808  65.5948639  70.7999191  59.7216644  66.9461060
  13.9239340  21.0321884  10.3175106  14.0073271  21.3621712  11.2121553
  14.7914667  20.6861706  10.1080122   5.7532611  38.6900711   9.6155691
   5.5991745  39.5164108   9.1576862   4.9789286  38.1614189   9.4227858
  62.6990395   3.0969617  42.7770729  61.7491417   3.2141874  42.7908020
  62.8225365   2.1591091  42.6307411  11.2452831  44.7590065   1.8967736
  10.8745975  45.5314598   1.4699920  11.5131721  44.1914520   1.1740367
   4.5629611  42.0633316  14.4915400   4.6255579  41.1084366  14.5136347
   3.8968599  42.2444115  13.8284025  21.6730881  65.4174652  70.9172897
  21.9629898  65.1771393  71.7973099  22.4429779  65.2795563  70.3654861
  49.0512352  11.7673903  25.3175621  48.6694260  11.6407433  24.4489918
  48.3179436  12.0537071  25.8621120  52.7810745  45.3706360  68.7318573
  53.4681053  46.0344009  68.6715775  53.2275124  44.5457916  68.5406647
  17.6363182  33.6792717  77.5615997  17.5344181  34.5256729  77.1263351
  17.7079182  33.0485802  76.8451309   2.8149564  19.7866306  84.6219940
   3.1815398  19.8302326  85.5051422   1.8928457  20.0178375  84.7337418
  75.7591400  60.7836838  80.5626602  75.3456802  60.6282616  79.7134705
  75.4738312  61.6630936  80.8106003  83.1299820  25.8844986   9.3264160
  83.3748856  25.1537743   9.8941250  82.2881622  26.1833076   9.6703491
   1.6977750   6.0982604  82.6827011   2.4328415   5.5421824  82.9409332
   1.6979891   6.0665550  81.7260208   1.7786767  31.2669010   3.1152439
   1.0223584  31.7013264   3.5095651   1.5671607  30.3342400   3.1556625
  71.9679337  25.2376366  79.5731277  72.5610123  24.7517757  80.1462250
  71.5575333  25.8849239  80.1465607  57.8671684  54.8832016  23.2238255
  58.5771294  55.5196419  23.1393585  58.3098831  54.0362244  23.2773361
  84.8505096  38.3653603  62.2646103  84.2249451  37.7236481  62.6009216
  84.8458939  38.2304802  61.3169708  63.1639748  64.5206451  22.9741821
  62.5068130  63.8269730  22.9176846  62.8956604  65.1591568  22.3134747
  25.2295036  56.1429062  86.4937820  25.8314133  55.4038467  86.5816879
  24.4570942  55.8838081  86.9962616  77.5878983  55.7016830   0.5302473
  77.2204971  56.1501045  -0.2314378  77.0929337  56.0469322   1.2732444
  80.6660385  29.7443657  59.6907310  80.4318466  29.2863960  60.4979820
  80.0400162  29.4221039  59.0422897   5.0182829  43.7394714  78.6506348
   5.0739918  43.4152946  79.5495453   4.6156158  44.6040039  78.7323303
  75.0303421  22.2866383  40.0562706  74.1495590  21.9664745  40.2510567
  75.3784409  21.6594658  39.4224625  40.1654091  27.7022171  66.8209457
  40.4658470  28.6090622  66.8809662  39.9359970  27.4659214  67.7197037
  30.1485348  45.3967552   8.7577658  30.3013706  45.8473015   7.9271750
  30.4805546  44.5105438   8.6141644  11.0681591  70.7455673  33.2628212
  10.2431660  70.8554382  33.7356300  11.2336016  69.8030472  33.2856255
  20.1457615  55.4201736  70.7460938  20.2030334  54.8819008  71.5355301
  21.0179844  55.3661003  70.3555374   7.3163571  70.9128952  14.0632563
   6.4869094  71.1023636  13.6246824   7.9823098  71.2947922  13.4915133
  76.2517471  50.4658928  84.5296326  76.4897156  50.8533173  83.6873169
  77.0825272  50.3807869  84.9973755  26.0047417  41.0945511  60.3941727
  25.8605251  41.0448303  61.3391380  25.7648735  41.9916916  60.1621552
  44.9914360  24.0784740  61.9819870  45.5830536  23.9079247  61.2490959
  44.9527130  25.0330429  62.0414085  35.3862572  68.2846756  28.9404011
  34.6130714  68.4057465  28.3892574  36.1094933  68.1889420  28.3207302
  22.5837440  51.2830124  70.1484985  22.8938179  50.5223503  70.6399078
  21.6456432  51.1294441  70.0361862  77.0557709  16.0087318  27.9345379
  77.3992767  15.1334114  27.7555218  76.2157364  16.0346832  27.4763870
   4.9592471  27.7035408  61.9109879   5.3691883  28.5556374  62.0596924
   4.0419645  27.8338127  62.1515160  70.8826065  55.7164726  63.4412155
  70.3578262  56.5075912  63.5635796  71.3877487  55.6366119  64.2503433
  61.9885635  52.5767746  60.0080414  61.9662781  52.4162636  59.0646591
  61.9748840  53.5304375  60.0891266  51.5425034  33.2120552  54.6994476
  52.2536011  32.7937317  54.2140846  51.9608879  33.9423676  55.1553307
  71.8074722  26.4332657  18.4383106  71.8810959  25.4828434  18.5249653
  72.6993408  26.7554569  18.5686798   6.0886874  40.0521927  11.9966745
   5.1708260  39.9598083  12.2520695   6.1334238  39.6683731  11.1209393
   5.4913616   2.2065518  76.4979782   5.6070218   2.6672697  75.6669617
   5.4988685   2.8990054  77.1587982  56.7414589  60.4946136  73.1684265
  56.7269669  59.8298683  73.8570023  56.1800461  60.1384392  72.4798203
  56.6718979  35.7027779  73.7328796  56.9334030  35.0554199  74.3876877
  56.6669350  36.5343666  74.2068710  13.9433298  20.1315784  73.3779602
  13.6697655  20.9625797  72.9895859  14.7493019  19.9043198  72.9142838
  53.1378326   7.7774692  67.7366714  53.2035980   8.0154200  68.6614838
  53.6851997   8.4195671  67.2846375  56.8739967  60.5566101  49.5088310
  56.2416725  61.2069626  49.2031517  56.7804527  59.8258820  48.8976707
  84.1380920  11.8698196  81.7441177  83.6107254  11.4972563  82.4507370
  84.0218048  11.2630720  81.0129776  36.1172829  40.4602470  82.3287888
  36.6481133  39.7619209  81.9456635  36.6948547  40.8765907  82.9685593
   8.5022354  53.7767868   1.8014357   8.7366896  53.5467148   0.9023641
   7.6466551  54.1991692   1.7252318  60.8277016   3.1527691  28.1074734
  61.3025856   3.1847439  28.9379520  61.5134583   3.1392748  27.4398022
  66.6824799  54.6521301  82.3238831  67.4982986  54.2978821  81.9700851
  66.0261154  54.4551659  81.6555862  74.9364929  60.2270966  73.9844513
  75.2228699  60.8959122  74.6064682  73.9817123  60.2951012  73.9823380
  75.0628128  34.8384857  35.3233147  75.1077042  34.8573303  34.3673515
  74.9412689  35.7538414  35.5754738  64.7793808  70.2982941  42.0327682
  64.4602966  69.5138550  42.4789543  64.0760269  70.9384003  42.1413155
  81.0454559  58.4072762   7.0796986  80.7266541  58.9279060   6.3424444
  81.9249878  58.1349297   6.8180151  57.4663200  34.4010735  52.0856133
  58.0715599  33.7180023  51.7969513  57.8930283  35.2205429  51.8353767
  80.2656937  35.1779823  22.6018467  79.4191742  35.4940872  22.9176140
  80.9058990  35.5820084  23.1876221  79.9537125  47.1701355  60.1474342
  79.3847122  47.5893517  59.5018845  79.4512787  47.1953125  60.9617805
  46.6008339  47.7590561  42.3410530  46.4253731  48.5381012  41.8132896
  47.4376373  47.4305382  42.0123177  15.0815706  47.8263626  88.2645416
  14.3480568  48.0386581  88.8417053  14.6707706  47.5805740  87.4356461
  13.6989975  12.0017872  58.7778091  14.5920773  12.2824221  58.9775238
  13.6010427  12.1642523  57.8395996  58.5347214  42.0641708  26.6696091
  58.6671219  41.7864952  25.7631893  59.2201309  42.7143822  26.8234653
  50.7026939   5.8585801  80.0593872  50.6561852   5.1921272  80.7448883
  51.6236420   6.1188259  80.0404434  66.9567032   9.8801842   9.1030684
  66.5091476  10.7013121   9.3072186  66.2631912   9.2205095   9.1130219
   3.6584370  29.4662743  29.7737331   3.7019444  30.1904507  29.1493073
   3.6058121  29.8910789  30.6298885  35.1505432   4.9947371  51.6524963
  35.7814827   5.0895505  50.9389420  34.6690598   5.8220072  51.6579781
  65.4275589  44.5229073  49.9754028  65.9044876  44.7901421  50.7611237
  66.1041946  44.1887970  49.3865356  37.4418602  59.4117317  53.3164444
  36.8949432  58.6297302  53.3912163  37.0904236  59.8781776  52.5580597
  14.3540993  19.8007336  62.6984863  14.2948179  20.4848232  63.3653717
  14.5700712  19.0070610  63.1880493  37.7038269  61.8193741  56.2923355
  37.8285255  62.4778442  56.9757805  36.7571144  61.6812286  56.2627144
  85.2617416  71.1642227  32.4501801  84.5317688  70.7418289  31.9974613
  85.0229111  71.1270599  33.3763618  79.1428833  45.4830589  69.6279602
  79.1266327  46.3253784  69.1735764  79.1890869  44.8333817  68.9265213
  42.5958748  31.5715637  61.7983093  41.6954498  31.4464226  62.0979958
  42.9185638  32.3119659  62.3120270  28.3750935  35.6116371  10.0868149
  28.9425983  35.6759872   9.3186817  28.1154327  34.6907997  10.1162968
  70.4882965  68.0577774  10.5693636  70.6651459  68.8672409  10.0900736
  71.2170639  67.9798737  11.1850405  26.7333927  60.8104591  55.6767387
  27.4409771  60.1664658  55.7055702  26.1315250  60.5361366  56.3686409
   7.3881679  52.6933060  79.6119995   6.4785171  52.9606209  79.4804230
   7.7274165  52.5548515  78.7277069  65.0389862  43.5766106  55.2487144
  65.9250870  43.4713516  54.9023514  64.5031738  42.9859047  54.7193718
  60.7405167  62.2952538  22.2223301  60.0150795  62.3462448  21.5999336
  61.2473412  61.5347824  21.9376450  40.7521019  55.9924164  45.0234718
  40.7130241  56.3534966  45.9090919  40.8536644  55.0495453  45.1535034
  35.1705513  20.8609810  78.6414490  34.6563377  21.1182518  79.4067078
  34.9286690  19.9479351  78.4862900  42.8757591  65.8193512  70.7985153
  43.4154892  65.3460541  70.1653442  42.2523689  65.1665878  71.1171494
  77.7534409  35.6422577  32.1101074  76.8971024  35.2312508  32.2283707
  78.0378418  35.3576012  31.2415943  11.3270941  58.2352180  59.4948692
  12.0690842  58.8064842  59.2965317  10.5669670  58.6994743  59.1442947
  18.0496521  44.0364761  19.0339184  17.8582497  43.2378349  18.5422192
  17.8389645  43.8154984  19.9411182  86.0603256   6.3947687  37.3373451
  85.1516647   6.3926005  37.6382904  86.4604568   7.1377940  37.7890472
  59.7855148  41.5893745  74.2198715  60.4717560  42.1418686  74.5941162
  59.3504066  41.2008018  74.9787750  22.5521717   1.4463108  51.5244064
  23.4205112   1.6765348  51.1939316  22.3500080   2.1299262  52.1631813
  35.4711876   7.6531377  71.5418091  36.2198181   8.2354069  71.4123917
  35.0405426   7.9879203  72.3283844  16.1010323  63.3319626  55.9323235
  17.0119038  63.2716866  56.2202682  15.6409321  62.6743431  56.4539337
  11.0938063  14.3791208  11.8188505  10.7293921  14.6803894  12.6511192
  10.3398018  14.0413475  11.3355103  63.8777237  11.6986074  76.5739059
  62.9729347  11.9414291  76.3773651  64.4021835  12.2098894  75.9576492
  17.7106819  14.9822989  12.5643082  17.0019436  14.5014639  12.9917641
  17.2675629  15.5590038  11.9419832  83.4480972  61.3875771  31.3697739
  83.8246460  60.5339851  31.5838299  82.9236450  61.6171761  32.1368904
  67.6596298  39.6691132  10.6305380  67.3972549  40.2052307   9.8822260
  67.3178864  38.7972908  10.4321222  43.8647575  49.1454201  83.7539139
  43.6327286  50.0684814  83.8556442  44.3203850  48.9221268  84.5655594
  54.2525749  42.8941078   2.8082356  55.1494102  42.7309418   3.1002841
  53.8007164  43.2135353   3.5892751  71.9173050  18.8800030  23.9752254
  71.8083878  19.7641354  23.6249714  71.7198257  18.3038387  23.2368011
  52.6792030  12.2932310  47.3685646  52.6662560  12.7198181  48.2253571
  53.6046333  12.1106167  47.2058907  33.3948135  24.0480633  84.7403717
  33.8348694  23.2499962  85.0330734  32.5958443  24.0875702  85.2660370
  15.0889082  71.1466904  76.3093109  15.9000731  70.8324203  75.9099655
  14.3939476  70.7330933  75.7972565   6.1788545   3.5315259   3.0756724
   5.8760114   4.4294519   2.9405918   7.1076112   3.5547788   2.8452337
   6.7771010  19.7527523  21.9218044   6.3852248  20.1722355  22.6877670
   6.8390994  18.8279190  22.1607018   5.4068403  36.3185463  50.2642975
   5.4292130  35.9169960  49.3956871   5.3518410  35.5785294  50.8689270
   6.2228546  50.4328880  80.6732483   6.4141183  49.6613350  80.1399994
   6.6336560  51.1576500  80.2018738  60.2433281  25.0147896  34.6987457
  60.3826103  25.4524498  35.5385590  60.5473557  25.6458969  34.0464363
  26.8755054  43.1765213   1.4953123  26.0526142  43.3002892   1.0222776
  26.9112129  42.2364235   1.6718825  49.5250397  11.1551113  67.8197098
  48.8981209  10.4520950  67.9899368  50.1078491  11.1453390  68.5789642
  61.2694359  32.4958344  28.4909954  61.7213097  31.6531544  28.5349483
  61.9621201  33.1455688  28.6104507   5.5619831  22.5783653   3.1488273
   5.6090941  22.1618519   4.0093675   5.8436489  23.4800301   3.3034105
  60.8718338  24.5689754   5.6535993  59.9563789  24.3344307   5.5014062
  61.0234566  25.3237457   5.0847721  66.7278748  42.5953331  52.7720490
  66.5402298  42.2582397  51.8960419  66.8514328  43.5360260  52.6453094
  29.0211334   3.8062632  84.9570007  28.6412830   3.3204336  84.2249374
  29.5782490   3.1690378  85.4039917   1.9383310  45.3961296  28.8313770
   1.8085505  45.6064796  27.9066372   2.8636031  45.1595383  28.8956242
  34.0746117   2.2928779  88.6454239  34.3615227   3.1733944  88.4033432
  33.1282310   2.3735166  88.7641296  21.2687645   9.1693230  49.6672058
  21.4344063   9.7295094  48.9089279  21.5372372   9.6979160  50.4187012
  12.4624500  48.9371223   7.9223933  11.7285233  48.5815010   8.4235086
  13.2395716  48.6686783   8.4125481  78.5925674  29.8825989  14.4255857
  78.2225037  30.6795444  14.0459051  79.4140701  29.7508984  13.9522743
  38.1664314  32.7756195  57.6074524  38.8867226  32.1485939  57.6726761
  38.5867844  33.5979500  57.3558350  31.4739838  59.7838516  23.8525848
  31.1023369  58.9375610  24.1013947  32.2602234  59.5627213  23.3534260
  71.2595673  22.6473007  14.7684774  71.8154144  22.7243328  13.9930210
  71.4880219  23.4074974  15.3033981  13.9821529  46.3250351  52.7468376
  14.1658907  46.7941093  53.5607414  13.0294533  46.2333450  52.7330704
  86.5206757  16.8610859  75.8341827  85.5885315  16.8989124  75.6199112
  86.7974701  17.7769775  75.8616714   1.6012282  43.0423050   5.1771207
   1.7067566  43.4131546   6.0532284   0.7486110  42.6079559   5.2019949
   4.2516384  24.4380131  23.3433495   4.2714434  24.7555714  24.2461224
   3.5332172  24.9212341  22.9351826  86.2341003  19.3424263  10.4071808
  85.9125748  19.2852421   9.5074120  87.0705185  18.8772087  10.3926620
  72.0638809  56.6600723   8.5176277  71.1763077  56.5178223   8.1886816
  72.1213379  57.6062813   8.6503706  74.7515640  50.8855705  76.1757889
  73.9126053  50.7416229  75.7379990  74.8311539  50.1537247  76.7875824
  61.3389854  21.4454937  61.2183914  60.6781693  21.9384098  60.7319908
  61.0092506  21.4248409  62.1167679  32.0037346  12.4015541  10.7485666
  31.9464397  12.9585352  11.5249176  32.0124664  11.5089989  11.0942554
  39.4729118   0.5298264  12.4472189  38.7453156   1.0997628  12.6962337
  40.1812019   0.7709502  13.0442238  60.0059242  29.5622158  69.9418030
  60.6954346  29.7315197  69.2998199  59.5741615  28.7684898  69.6258698
  43.2710304  53.2355347  12.5814571  43.6833496  53.8439255  13.1947136
  43.9163132  52.5380821  12.4656801  20.3842049  45.9238892  35.4836006
  20.2633858  45.6922073  36.4044456  20.5401821  45.0876617  35.0447083
  50.8709831  39.7278938   0.9442891  50.6624527  40.2944069   1.6871272
  51.6958008  39.3076019   1.1877365  66.8404083  59.2389946  74.9467621
  66.1221466  59.7117958  74.5263062  67.1401291  59.8264046  75.6405563
  26.6528358  14.8017282  10.3807011  26.2119312  13.9592609  10.4906311
  27.5400124  14.6521959  10.7074881  49.5871239  48.0687294  56.4685364
  50.4832001  48.1607170  56.7922859  49.4953384  48.7638664  55.8169289
  19.2629623  69.6389389  63.8324394  18.7106895  69.3577194  63.1029587
  19.8445835  68.8958282  63.9928627  86.4401169   7.0804882   2.5139115
  86.7402802   7.2331352   3.4099216  87.2021637   7.2774878   1.9691991
   8.1801701  53.0592346  88.1298981   7.7395549  53.7247238  87.6014938
   8.9936848  52.8792267  87.6587067  60.3819618  39.7416687  55.7800064
  60.6582870  39.9168701  54.8804626  61.1577225  39.9269447  56.3092537
   3.8422072  56.1583061  57.7176018   2.9353995  55.9225655  57.9134483
   4.3635359  55.4735260  58.1365547  47.4892387  53.8513107  88.7642975
  46.7012749  53.8873787  88.2220383  47.1649475  53.6686172  89.6461716
  69.7964783  45.8743324   7.6079731  69.4533463  45.4876862   6.8023715
  69.0971832  45.7506409   8.2497787  49.6990738  35.9629059  54.5507660
  48.8484001  36.3872147  54.4387207  49.8076553  35.4319305  53.7617760
  31.6909504   8.9491196  38.5926247  30.8962517   9.3557720  38.9380493
  32.3479080   9.6446810  38.6214943  55.5228500  17.6746883  20.0473080
  55.9214935  18.2569141  19.4005222  54.8848686  17.1640339  19.5488682
  65.8799667   0.8435452  78.5424347  66.3401337   0.2352167  77.9641495
  66.0228424   0.4928159  79.4215317   6.2916183  68.4409332  71.3990936
   6.4131904  67.6336823  70.8992996   6.6406727  69.1285782  70.8320541
  41.6132622  10.4438457  82.1758423  41.2429161   9.7761965  82.7531815
  42.4437981  10.0709248  81.8802567  53.7527390   1.0459660  85.8706970
  53.6550751   0.3536202  85.2169800  54.6964607   1.1986750  85.9186783
  83.8527451  63.6486168  81.2967911  83.6499023  62.8595276  80.7943649
  83.0175247  64.1114426  81.3633957  63.2190285  39.4844551  71.0914764
  64.1349792  39.6382751  71.3230057  62.7472992  39.5536690  71.9214859
  85.3277664  46.1249390  48.9012985  85.5392151  46.3774872  48.0025520
  84.7399979  45.3753090  48.8074570  52.7116928  49.5757332  24.5883503
  52.7834282  48.8207741  24.0042896  52.6979485  49.1978188  25.4676819
  31.4736710  36.0503349  87.1123810  31.2125721  35.1299858  87.1442261
  30.6477089  36.5340271  87.1201859  63.3683701   6.6052642   6.9001598
  63.7914047   5.7559042   7.0260925  62.4943924   6.4954305   7.2747712
  31.9593735  59.9964638  82.1837845  31.4415798  60.7186317  82.5395889
  31.8325920  59.2810631  82.8069687  44.8098450  51.8695869  34.5943985
  43.9491196  51.4694748  34.4707298  44.6505661  52.8100243  34.5141258
  12.4493141  25.3266277   1.7749768  11.8539801  25.4211617   2.5185313
  12.5271235  26.2107658   1.4165374  11.2250748  53.7658386  67.3277512
  11.7147760  54.5576172  67.1052322  10.6477070  54.0342484  68.0424805
  70.5468521  16.5514889  40.9058113  69.7388992  16.8128395  40.4640656
  71.2412796  16.7714233  40.2848129  18.7647400  13.5208092  15.1895123
  18.7587223  14.1865206  14.5017452  18.5583496  12.7043953  14.7344255
  36.6640701  36.8194466  12.4607306  36.6691628  35.8809891  12.2723103
  36.0073051  37.1798096  11.8648882  45.1054649   7.7788453   4.1696959
  44.2714462   7.3993378   3.8928924  45.0125961   7.8975902   5.1149507
   4.3801680  34.5297318   4.9273157   4.3888345  34.3591461   3.9854786
   5.2905984  34.7324333   5.1423993  45.7557831  62.7800064  17.0129700
  45.4930916  61.8600616  17.0434036  46.7083817  62.7542229  16.9228649
  83.7911453  54.8935585   6.5048723  84.1513138  55.0378265   7.3799133
  84.2223358  54.0964355   6.1968136  13.5802879   2.3750522  21.2911854
  13.1970081   3.2454522  21.1828690  12.8379984   1.7754153  21.2158661
  34.0493202  60.3599091  26.6311283  33.5649719  60.6392937  27.4080353
  34.0124092  59.4037666  26.6568623  15.5279617   3.5140917  15.8405285
  15.6546707   3.5372486  14.8920345  15.4707861   4.4344983  16.0970726
  39.2492485  60.3987312   9.0716887  39.0567017  61.3310509   8.9720011
  39.0443954  60.0191536   8.2171774  40.7377205  67.5448303  34.8507233
  40.4208221  66.9490738  34.1718369  40.8840523  68.3729095  34.3934441
  11.8238649  27.5141468  50.8291245  11.1766815  27.4743366  51.5332565
  12.5177917  28.0765991  51.1731339  27.6586246  63.6994820  38.4320335
  28.4311333  63.2131767  38.7200813  27.0000916  63.0253944  38.2641830
  74.1811829  24.7322807  61.7738914  74.9954681  25.0372753  62.1740761
  74.3986282  23.8724403  61.4138603  65.8907394  35.5806084  33.2118073
  65.3399200  34.9940491  33.7302513  66.7835312  35.2750931  33.3724785
   6.2562623  34.4099541  52.2806625   5.4226050  33.9467926  52.3626823
   6.3774986  34.8369064  53.1287460  41.9926147  21.8800411  64.5394897
  42.2275429  22.0517750  63.6275940  41.9435959  20.9259262  64.5985870
  48.3918457   3.0754707  40.4950218  48.9574203   3.6061406  39.9339943
  48.0512161   2.3939335  39.9156151  21.9535561  49.4728355  13.6262827
  21.8210239  48.9149971  14.3927555  22.4279900  50.2331429  13.9625587
  20.1037693  10.2083492  18.1235905  20.3143883   9.3653126  18.5250397
  19.8065491  10.7530899  18.8523903  34.3725395  27.8944988  80.5131912
  34.7470055  28.4566994  79.8350067  33.4475212  28.1387939  80.5429993
  68.9368591  54.6492958  87.0844574  68.2315903  54.0707550  86.7944260
  69.7354431  54.1384621  86.9519958  31.3366089  64.7692795  77.6389771
  31.6684208  65.6366272  77.8710327  31.6551685  64.6213226  76.7485504
  77.4501038  24.2697296  53.3805084  77.1501236  23.4055500  53.6623573
  76.7322769  24.8594284  53.6111641  56.5562286  59.1043167  35.2852173
  56.4218025  58.6561584  36.1202736  57.1036682  58.5054398  34.7773933
  61.6061134  45.8475647  48.9246674  62.5245285  45.9103851  48.6623726
  61.5044785  46.5154381  49.6027908  86.8325195  51.8007507  64.7063217
  87.0434952  52.4637337  65.3637238  85.9020538  51.6194839  64.8389969
  34.3550949  52.3684769  73.3821106  33.7694855  52.0418205  74.0651855
  34.9856186  51.6607742  73.2486038  48.3879700   1.1577854  75.2813873
  47.8470459   0.7409655  74.6106491  47.9078560   1.0175782  76.0975113
  61.9804535   1.0475528  74.1847458  62.1378975   0.5209299  73.4010925
  61.7772217   0.4073412  74.8666992  47.6114388  35.8329887  66.4877853
  46.8648834  36.4306946  66.5281754  47.9473152  35.9291573  65.5966263
  44.5106430  69.4577408  13.7716875  44.6137466  69.8272018  14.6486692
  45.3959160  69.4542084  13.4076729  73.8437424  60.3478165  39.6220169
  74.6508331  60.5784264  39.1619530  73.4609985  59.6451416  39.0966721
  36.4295769   7.5925493  76.6686859  36.3134842   6.6446571  76.7339172
  37.3164024   7.7021866  76.3255386  73.4631195  28.4329319  73.6474915
  73.8446884  29.2991238  73.5048218  73.8636932  28.1257477  74.4607620
  77.1203232  45.7160530  71.1941376  77.7892456  45.4839630  70.5500031
  76.5480042  46.3303070  70.7343903  80.6793518   7.6844578  48.0450859
  79.8362808   7.4889531  47.6361465  80.5669708   7.4274669  48.9602699
  64.5922394  30.9346180  70.5605927  63.8794250  30.6481190  71.1315918
  64.4287872  31.8676968  70.4232025  63.3852959  10.7599936  52.5549011
  63.1648521  10.0541372  53.1626854  64.2806702  10.5662317  52.2774239
  61.6800995  39.5314140  73.2923813  60.9210587  39.0445671  73.6134262
  61.9230995  40.1035042  74.0203171  15.1568632  29.8007469   6.4236884
  14.6865072  30.2525959   7.1242809  15.2258902  28.8954010   6.7266974
  60.9881744  45.9902420   0.8346057  60.2826805  46.3962517   1.3382581
  61.5248718  46.7254486   0.5385233  82.3450775  27.0047455  31.2519684
  83.2662964  27.2099590  31.4115772  82.2852325  26.8942471  30.3030529
  71.0861664  42.2299156   6.0464258  70.5058289  42.3000565   5.2884593
  71.3136826  41.3011131   6.0887518  43.2694397   2.7090466   9.0534077
  42.7559624   3.0960548   9.7624903  44.0056610   3.3093212   8.9355965
  59.9144135  11.3178110  55.6829834  59.2915535  11.6417913  55.0323601
  60.0627213  10.4043207  55.4384995  68.7784958  27.7884426  37.4224892
  68.9877930  26.9868717  37.9019775  69.2615738  27.7085896  36.5999985
  22.1738605  53.0765724  46.2488823  22.1361885  52.2612915  46.7490082
  21.3303070  53.4978638  46.4137039   8.4698277  24.9809113  24.9258137
   7.7604012  24.9736767  24.2832470   8.4595165  25.8685112  25.2839928
  16.5875702  59.8117905  78.1946793  16.0069618  60.0258064  77.4643860
  17.2903709  59.2964249  77.7988205  57.5530014  19.3190174  81.2667465
  58.3092079  19.0798988  81.8026657  57.1515656  20.0525017  81.7326736
  18.3878040  60.0048103   3.3612766  18.2891216  60.9209404   3.1020393
  19.1437626  60.0021362   3.9484296  31.4205265  54.1503029  66.4365082
  31.4049835  53.5733643  65.6728821  30.7379761  54.7980881  66.2612076
  43.1777649  70.2405014  36.2343788  43.0273361  69.9364471  35.3393059
  42.8286057  69.5410919  36.7867813  52.7816963  56.5764961   5.1503105
  53.7187958  56.3887787   5.0970192  52.5258904  56.7764168   4.2498527
  74.7133331  11.2657661  40.0535851  74.6524048  11.5364523  39.1374779
  73.8274231  10.9817915  40.2788582  72.6208420   4.8147674  71.9742432
  72.9026184   5.4609466  72.6217651  72.3937988   5.3328028  71.2020187
  35.6309547  62.9579849   7.9197955  34.9100990  63.5576096   7.7273078
  35.9118843  62.6381569   7.0624623  20.5089722  67.1650772  34.4342079
  20.0697727  66.3413239  34.6458015  20.0486431  67.8227386  34.9555588
  73.4444199  36.9872093  42.7170715  73.3691635  36.1487236  43.1725998
  72.5784225  37.1310730  42.3355217  54.7321281  47.8338928  46.7394104
  55.0022125  48.7313995  46.9337425  55.1390457  47.3070679  47.4272385
   3.3910193   5.5556765  36.6143036   2.8037760   6.2661166  36.8724709
   4.0457096   5.9766059  36.0571365   5.5153599  48.2991486  15.2435389
   4.6814680  47.8436394  15.3591652   5.3486180  48.9299164  14.5431404
  74.2322998  28.5819340   1.5555611  74.1959152  29.0647697   0.7298632
  75.1596298  28.3747559   1.6712018  35.4256134  25.1445560   2.0269475
  35.5882416  25.4126358   1.1225600  34.6364555  24.6049995   1.9786009
  83.6732788  20.1672478   0.8305312  83.1021729  20.7584972   0.3401302
  84.5508804  20.5316143   0.7152928   9.8702116  45.0785370  51.0050888
   9.2935829  44.5269508  50.4764252   9.7718182  45.9545555  50.6320686
  71.4723434  64.7937012  68.0951996  71.6326218  64.4372101  67.2214432
  72.2515640  64.5557251  68.5976105  12.9829388   3.5958686  76.8284988
  13.0101051   2.6803560  77.1065826  12.5500708   4.0525417  77.5498199
  20.8223419  48.1984673  29.0100193  19.9893208  48.4722633  29.3938770
  20.7738304  47.2427254  28.9891891  56.1241570  39.4196968  46.4656525
  55.7941475  39.1426430  47.3203850  55.6424065  38.8820038  45.8371353
  46.1584206  30.1642933  87.1960220  46.7460747  29.5380726  86.7732391
  45.3910446  30.1959667  86.6247330  21.4425087  56.3208771  74.7621536
  20.4854584  56.3375664  74.7595291  21.6769066  56.1694870  75.6777802
  73.5955811  12.2048292  71.4039154  74.0739136  12.4176035  70.6025620
  73.2666931  11.3177977  71.2581711  56.4177589  70.9020538   9.0292931
  56.7275467  70.3395996   9.7391615  56.5399704  70.3779297   8.2377186
  72.3036499  30.6113625  54.0377121  72.9112549  30.7104206  54.7706718
  72.6324005  29.8530502  53.5548859  45.2310677   5.3302631  56.7362175
  46.0482635   4.8380713  56.8147659  44.5490074   4.6592388  56.7087364
  79.4886780  69.5683517  71.2058029  79.8257599  69.4672699  70.3156357
  78.8319550  70.2612228  71.1359863   7.0455933  12.5281248   3.9783070
   7.1211162  12.7621889   3.0532436   7.7251444  13.0440779   4.4121675
  45.3039284  18.8893147  70.4294891  44.6667824  19.6025429  70.3896713
  45.9494133  19.1069622  69.7570190  77.1087189  16.4796143  58.6743851
  76.3980179  16.2490368  58.0760803  77.0444489  15.8375177  59.3813591
  15.6745272  14.8421679   4.2993035  16.2423382  15.2969637   3.6772246
  16.2490788  14.6248598   5.0334015  86.1839828   0.8954723  77.9373322
  86.3840790   0.9209380  78.8730392  85.3397369   1.3400166  77.8607559
  84.8071518  69.7298355  44.1935501  85.2888336  69.0654221  43.7008438
  84.0535889  69.2618484  44.5532265  41.3389015  35.6968956  61.1597672
  41.1445045  34.7661171  61.2697563  42.2844925  35.7285538  61.0145531
  82.1908646  24.3096867  57.5668678  82.2238007  23.3648815  57.7168350
  82.8188705  24.6733074  58.1910706  45.6552048  70.8197556  59.9148598
  44.8365021  70.5635376  60.3394852  45.4020958  71.5129166  59.3051949
  79.6432114  10.6554375  68.9645844  79.6654205  10.2370825  68.1039352
  79.5248642   9.9316778  69.5797272  24.0891705  59.4600563  63.1736336
  24.0097885  58.7525711  62.5337906  23.5189686  59.1952934  63.8954353
  17.5717945  50.5212326  32.3900566  17.6738701  51.3996811  32.7563019
  16.6840191  50.2609787  32.6357346  54.4646454  59.2916908   0.0833845
  53.8224373  59.9999313   0.1301893  53.9617348  58.5312347  -0.2081937
  64.9868546  22.2808876   2.1935990  64.8346405  21.5602970   1.5821968
  64.5991974  23.0442009   1.7654582  49.5973244   8.0635862  28.6378746
  50.1049881   8.0195923  27.8275814  49.7933121   8.9291096  28.9966068
  55.7425003  69.5471344  66.5102158  55.4875450  68.8006668  67.0524445
  54.9856758  70.1325455  66.5374680  43.9932976  63.6693954  73.8892975
  44.8432121  63.4429359  74.2669067  43.9990540  64.6254349  73.8425598
  62.6840820  36.2533035  36.6966095  63.2619705  35.6176758  37.1188164
  61.9024391  35.7507935  36.4669456  42.9709358  69.8830490  89.1199341
  43.0562515  70.6642990  88.5734863  43.7815742  69.8566208  89.6282654
  12.5499630  67.5340271  26.2608891  13.4644260  67.3135910  26.4380760
  12.3350210  68.2040176  26.9098454   2.8371572  52.7730064  50.0518456
   2.8163214  53.3933525  49.3231697   3.7121861  52.3869591  50.0127983
  37.5663033  46.3523827  30.4437103  36.7746391  45.8727760  30.6875839
  37.8770065  45.9145775  29.6512337  60.2012405  15.4641380  57.4752922
  59.7324944  16.2964249  57.4135857  60.4007874  15.2337904  56.5679054
  32.0427551  56.5612831  41.2117004  32.8555145  56.3640671  40.7461319
  31.9309502  55.8297539  41.8188286  53.9619408  45.0650597  18.1253834
  54.2940331  45.5392914  18.8876514  54.4938011  45.3823318  17.3955250
  42.4386139  35.4256630   8.1629772  42.5587769  35.6592140   7.2425175
  42.8683815  36.1307755   8.6470661  13.3827810  41.4093552  14.1463547
  13.4893188  42.3552551  14.2471237  12.6106806  41.3133430  13.5887938
  15.9436216  57.1155701  74.7902069  15.7784472  57.9490509  75.2309570
  15.8450069  57.3134537  73.8588867   1.3275638  12.6019468  87.9043503
   2.2823050  12.5872545  87.9713211   1.0559249  13.2953653  88.5056992
  43.6421204  42.6190376  66.0907059  42.7798119  43.0175056  65.9728775
  43.6892242  42.4222794  67.0262756   6.3981504  12.3269825  84.0810852
   6.1007829  13.0731764  84.6016617   6.2605495  11.5687742  84.6489029
  40.0485878  70.7861938  73.3494720  40.9774094  70.6488571  73.5356445
  39.7987595  71.5225601  73.9076691  59.9187164  65.2182388  51.7933998
  60.0625381  64.8928680  50.9047585  60.1620102  66.1430817  51.7521400
  61.7708244   5.7799740  40.2010460  61.9138145   6.7230911  40.2805214
  62.4620285   5.3871703  40.7341270  17.2188396  35.6872025  79.7679977
  17.9273281  35.2536736  80.2437439  16.8478336  35.0009918  79.2132950
  84.6644516  36.4171906  19.8388863  84.1698761  35.9174385  20.4884109
  85.5366745  36.5106125  20.2219429  20.8342628  53.6499901   8.8049059
  20.2755470  52.9354477   8.4991350  20.3894558  53.9855919   9.5832071
  46.9484367  71.5475006  25.6055069  46.2388916  71.9794388  26.0811157
  46.6313019  70.6561966  25.4598064   3.1071913  47.3884430  53.8529625
   2.8489876  48.1148033  54.4203796   4.0639982  47.3916626  53.8801956
  48.9455070  20.5123787  16.0604496  48.9200821  21.4691067  16.0444660
  49.0599251  20.2912331  16.9846992   2.4525342   3.0781839  47.8266411
   2.2042823   3.0975974  48.7508812   2.3543627   2.1608555  47.5714874
  85.4496078  69.4703751   5.3191547  85.8699188  68.7338943   4.8751211
  84.5147858  69.3478165   5.1538730   0.8261456  64.4176331  69.1570816
   0.3659546  65.2033463  68.8619308   0.9471868  63.8981667  68.3622665
  57.0386810  59.3176003  69.4982300  56.2961311  59.2363167  70.0967636
  57.2183800  58.4206772  69.2163162  26.2496891  43.4935684  66.4538422
  26.1258030  42.5444183  66.4538803  26.8666611  43.6545563  65.7399368
  69.9454193  45.6535492  88.5744324  69.1896057  46.2166939  88.4075470
  69.8431702  44.9270287  87.9596558  60.9173012  40.9875183  67.2461929
  61.5039368  40.4315071  67.7589645  61.3883362  41.1415939  66.4272766
  76.1223145   1.5950633  84.3044434  76.7337494   1.5201806  85.0370865
  75.7135620   2.4528091  84.4203186  54.9211540  55.5496254  68.7777786
  54.6493301  55.5886536  67.8608170  55.7149048  56.0832863  68.8152161
   4.2921610   7.9836082  69.7995453   4.7974958   7.3028126  69.3552628
   4.8518395   8.2629728  70.5240707  57.7535400  20.9485207   9.6479683
  57.4629822  21.2990913  10.4899349  57.3850594  21.5478878   8.9989576
  67.8502045  46.0969276  28.6862144  67.6219864  46.3122330  27.7818966
  67.9282227  45.1429329  28.6929092  37.9989777  10.3914433  88.0499344
  37.3609276  10.2017555  87.3620834  38.2967567  11.2814331  87.8615799
  45.5906944  41.6681862  24.5440216  46.5457382  41.6164551  24.5820560
  45.3560677  42.2808380  25.2410469  15.4836111  37.2089272  81.1354446
  16.0315056  36.8004646  80.4652176  14.6458511  36.7502441  81.0721970
  63.2711143  54.4743576  21.6987610  63.0395508  53.7965393  22.3337212
  63.9260406  54.0615273  21.1358452  69.3594131  49.1233025  82.0163422
  69.9234619  49.2851486  81.2601089  69.9192657  48.6573105  82.6373444
   9.0933943  29.1920280  79.1816940   8.3251171  28.7632427  78.8047028
   9.4030828  29.7785873  78.4915695  60.3253136  25.1457748  68.3155441
  60.0542412  24.2420216  68.1543503  61.1057243  25.2620296  67.7736282
  64.0241776  11.5270481   7.9345007  64.3056412  11.5219393   7.0196333
  63.3530159  10.8462563   7.9824080  28.1110973  12.8299732  70.4885559
  28.8442307  13.4240313  70.6493073  28.3733349  12.0081625  70.9033890
  16.8958530  37.3956833  11.5669804  17.0943241  37.4163284  12.5031509
  17.0546207  38.2912483  11.2686777  51.0974503  58.9357567  49.8521805
  51.9898834  59.1842041  50.0931473  51.1944427  58.4703751  49.0213699
   1.6927272  29.3917580  21.9587460   1.9180102  29.9483738  21.2133217
   1.0723572  28.7552223  21.6035080  67.8848572  18.2332344  16.9211235
  67.4847870  19.0958080  17.0313034  67.1677856  17.6162090  17.0671196
  38.0469666  50.8335304  21.3629093  38.0093994  51.7568130  21.1131744
  38.9726257  50.6021729  21.2863216   4.3488235  65.3230515  58.1270790
   4.8777447  65.4737015  57.3436394   4.9872422  65.1294250  58.8134918
  56.0958862   5.8664331  25.2504673  56.7429771   5.1630054  25.3023739
  56.2951813   6.3150473  24.4287262   0.1093571  10.1724911  88.3153229
   0.7203322   9.8142757  88.9592361   0.5591061  10.9384918  87.9586716
  74.6939850  16.4267063  54.5479012  75.0137177  17.3224049  54.4396057
  74.7946091  16.2478714  55.4828491  23.7215500  70.4618530  56.9589844
  23.3945904  71.3219147  56.6951408  24.5039062  70.6515656  57.4768219
  53.9427261  53.8700867   2.4515212  54.4045601  53.5934601   1.6600537
  53.0296173  53.9572411   2.1779106  59.2086792  43.5882072  31.6596813
  58.9528465  44.3566055  32.1699181  59.0365143  43.8357658  30.7512188
  71.2163162  63.8363724  40.4019966  71.5144958  63.9957008  39.5064888
  71.2540665  64.6950150  40.8233528  63.6488075  58.5730972  12.5663910
  64.5074921  58.4335594  12.1671124  63.0397377  58.5808258  11.8280115
  37.1530685  53.3084831  17.7409058  37.0601616  52.8427963  18.5720119
  36.2804489  53.2752876  17.3489056  32.3159103  52.7528343  64.1377487
  31.9287491  52.6389732  63.2697792  32.9411354  53.4694214  64.0289993
  62.6582184  45.7990913  65.4432983  62.8710556  46.4183693  64.7451401
  62.9556465  44.9521027  65.1110611  29.9885368  65.6082306  30.2452755
  30.3555984  65.8173599  31.1042080  29.0434284  65.5690536  30.3917904
  30.8816376  38.1608429  12.7820206  31.7601490  38.1031494  12.4063597
  30.5437126  37.2662926  12.7394314  51.2232323  60.8563957  80.0070572
  51.0013351  59.9443779  80.1947250  50.7183647  61.0691032  79.2221451
  41.4012108  26.2238197  74.1884689  40.6247444  26.7824554  74.1530228
  41.6912994  26.1588898  73.2786026  83.7184143  29.4419975  63.9699020
  84.0872498  29.4262447  63.0867577  82.7729416  29.5030403  63.8335419
  61.0377808  41.0274200   7.7098064  61.8147163  41.4253693   7.3170753
  61.3386459  40.7007256   8.5577354  14.3799419   5.4826388  31.4090405
  14.8343019   6.2796741  31.1360512  14.6046638   5.3837700  32.3342171
   9.5466623  71.0455856  10.2511759   9.1733294  70.2761078   9.8213329
   9.3671007  71.7672806   9.6485615  58.0638847  37.3753014  12.6621342
  57.7322350  36.4844780  12.5495491  57.2840614  37.9285965  12.6177158
  84.6189117  51.1849785  12.5953188  83.9476929  50.5130234  12.4762726
  85.3362885  50.7311974  13.0376768  10.8043537  45.5828171  31.2773800
  10.8589621  44.6555061  31.0464306  11.4423990  45.6920090  31.9825115
  14.5510025  49.8652916  54.1798019  14.4485865  48.9468231  54.4291191
  15.2403440  50.1945877  54.7565193  59.7499199  44.8632011  74.1627350
  60.3981895  44.4360275  74.7226486  60.1331596  45.7167625  73.9607697
  17.2331200  58.0266151  31.8771229  17.1014767  58.7022820  31.2120094
  17.6751118  58.4800415  32.5949554  17.9330673  51.8849640  72.2521057
  17.1133194  51.4651680  71.9913025  18.5996590  51.4690895  71.7053528
   7.1618838  46.0542564  35.1090965   7.8189301  46.5810699  34.6541328
   6.7053437  45.5852699  34.4106293  44.9506645  29.6400108  36.3073311
  45.4856529  29.1129951  35.7138023  45.5387192  30.3325291  36.6087379
  59.3223000  63.5906410  27.6264801  59.7856026  63.0735054  26.9675770
  58.4877129  63.1368332  27.7437592  84.9175720  52.2829361  60.4040565
  85.3529282  52.0448456  61.2225952  84.4391556  51.4940872  60.1489716
  38.6713371  56.4927292  36.2153053  39.4434967  57.0504303  36.3100357
  37.9367332  57.0582809  36.4535027  45.6340981  57.5911980  27.5305958
  45.5931168  56.7867470  27.0134811  45.6118546  58.2944756  26.8816452
  53.5063858  32.3430214   2.8300068  52.6209373  32.6621742   3.0042298
  53.5572662  32.2867241   1.8758194  12.5879965  64.2597351  28.4897766
  12.3426514  63.4034500  28.8402328  12.9031343  64.0750656  27.6050072
  65.1006088  20.8886318  63.7867508  64.5526199  21.5186806  64.2546997
  65.9379196  20.9088306  64.2501526  25.9805965  28.5164165  10.8880787
  26.3125000  28.9484997  10.1010742  26.3769360  29.0006695  11.6124020
  64.9050217  60.6923790  87.8301544  65.7169647  60.6259956  88.3327179
  64.3476410  59.9987144  88.1828384  38.8932648  68.5552979  68.8042145
  39.7913094  68.3284531  68.5627670  38.9705353  68.9449234  69.6751022
  61.5393791  34.6569748   9.4661932  62.4115334  34.5170021   9.0974293
  60.9439278  34.5310478   8.7274046  15.6685371  23.8594685  12.7833080
  15.0899801  23.1202335  12.9704857  15.2472849  24.3146839  12.0542297
  69.7120819  39.3062782  76.1713867  70.5583572  38.9622803  75.8855286
  69.4221573  39.8611870  75.4473343  46.9458504  55.5690575  24.5355377
  46.8413696  55.0497818  25.3328266  47.8240700  55.9430885  24.6066799
  50.0157509  38.3576279  81.1822357  50.4517059  37.6578445  81.6685257
  49.7503586  37.9477768  80.3589325  69.3212509  11.1075478  33.8023224
  69.5063629  10.8413239  32.9017181  68.6930847  10.4587069  34.1195717
  27.5985832  46.7638168  83.9617157  26.9444180  46.8917847  83.2747498
  27.2856770  46.0034370  84.4517593  70.7960434  22.3574829  67.5428543
  71.0235596  21.4482918  67.7373810  71.4533081  22.6378479  66.9059677
  83.2604218  62.3919334  52.1941490  83.0279388  62.1221199  51.3056755
  83.6051178  61.5980835  52.6030693  55.6581573  48.8622437  27.0825615
  56.0919533  48.2735443  26.4649181  55.4173889  49.6253624  26.5572891
   0.5214622  61.4911499  88.5500107   0.7134511  60.6449280  88.9540863
   0.5977027  62.1214371  89.2663574  46.6063766  42.9100342  71.0584335
  46.1099815  42.8190765  71.8717880  45.9630585  42.7556267  70.3666763
   3.2087474  12.4833975  69.7102737   2.7158754  13.3014574  69.6463470
   2.9954991  12.1425505  70.5789413  81.7037582  62.1961136  67.8769913
  81.2490158  62.0376205  67.0497513  81.0916214  61.8947983  68.5483551
  42.6688347  46.7456398  76.3041077  41.7644653  47.0171661  76.4610138
  42.7128029  45.8516731  76.6434021  66.2289047  32.4735146  20.1723289
  66.8819733  32.2109909  20.8210239  65.3892288  32.3552132  20.6163788
  20.4706974  56.6793900  14.1104116  20.4426231  56.2570534  14.9689417
  21.4038448  56.7546005  13.9108849  63.2298927  11.1364851  18.1792545
  62.9329720  10.9930773  19.0778656  62.5608101  11.7017841  17.7932587
  71.7714386  45.4037819  42.5358696  71.9994888  44.4979630  42.7449493
  72.6084671  45.8681259  42.5381050  68.5275803   7.2939649  47.7406578
  68.9695053   6.8931594  46.9921341  68.3408432   6.5620589  48.3285980
   3.0809755  44.8689003  70.4157104   3.2166882  44.4325867  71.2568054
   3.9360223  45.2397537  70.1975479  63.3461647  23.9003315  86.1585770
  62.9037476  23.4020557  85.4713898  63.7871246  23.2369404  86.6893311
   3.4339464  32.8811150  81.4012604   2.6855640  33.3751793  81.7360077
   4.1975646  33.3190880  81.7771606  40.2023087  20.3212509  13.1134510
  40.5275459  19.7626247  12.4074860  40.8592491  21.0127945  13.1936359
   7.7088923  54.2351418  43.8362160   7.7605467  53.9519768  44.7491112
   6.9597583  53.7579193  43.4794426   2.3757322  37.2351913  12.5229158
   2.1208289  36.8277931  11.6950970   1.9660927  36.6897545  13.1944256
  12.0887318  17.0710583  61.5716362  12.4769402  17.7088795  60.9727135
  12.6386089  16.2927113  61.4819489  18.7917881  11.2145147  13.5482178
  19.6429863  11.6389771  13.4408588  18.9631824  10.2880173  13.3795271
  56.1703644  46.6165314  32.2391663  56.1874542  45.8573456  32.8218918
  55.7364273  46.3004646  31.4466820  15.5805225   9.1169605  54.0042763
  15.1678295   8.5497370  54.6555634  14.8808031   9.3159037  53.3821449
  52.2246666  27.2660007  87.9217377  52.3996964  26.3787518  88.2354050
  51.6901665  27.6622295  88.6098785  39.0029068  50.1249123  57.1073189
  38.9613686  49.1687393  57.0916748  39.3580742  50.3632622  56.2510033
  41.2622490   6.1536241  20.4231472  41.4835510   5.2537436  20.1834145
  41.2121162   6.1414289  21.3789558   8.5114889  66.7965469  60.4054184
   9.2158327  66.1532059  60.3263588   8.0720539  66.7762680  59.5552902
  50.5134048  33.4498291  66.0741425  49.8736420  33.0271835  65.5011597
  50.1964989  33.2715683  66.9595947  76.2367249  68.1601257  29.7059040
  76.8488159  68.6483002  30.2565975  76.7947693  67.6874313  29.0883503
  24.5670776  67.7709808  22.7626743  25.2128735  68.3539276  22.3634834
  24.8616142  67.6713409  23.6679649  21.4838696  62.1069756  70.4662476
  20.7563057  62.4893227  69.9756470  22.0313435  61.6930313  69.7990494
  36.7992668  48.0750160   3.1548374  37.6515007  47.8698578   3.5393414
  36.4483490  48.7725143   3.7085385  78.2696991  11.7228231  15.2394361
  78.3773499  12.6733208  15.2740335  77.5458603  11.5417786  15.8390312
  45.7614670  15.2836342  53.2590866  46.4155350  15.9372559  53.5064812
  45.0526047  15.7915916  52.8644676  30.7472134  54.5472870  72.5000610
  30.0756512  54.8573380  71.8925247  31.4251976  55.2224236  72.4725418
  75.6558228  59.4914017  63.1307983  76.1818390  58.7978630  62.7326241
  75.2564163  59.9451370  62.3886147  66.1382751  64.6961899  71.6916428
  66.9251099  64.8719559  72.2076187  66.2925339  65.1436539  70.8596497
  25.4724503   6.7507830  46.9909401  24.5923004   7.0502887  46.7631989
  26.0303707   7.0942249  46.2930832  45.4416504  62.2719650  65.8934860
  44.9521599  62.2970161  65.0712967  45.3697853  61.3638611  66.1874466
  68.8347931  13.0900383  62.3913193  67.9057541  13.3139486  62.3367538
  69.0849609  12.8846073  61.4905167  70.7741318  20.4376717  65.0480728
  71.5356369  20.7218113  64.5424957  70.2535477  21.2325001  65.1641312
  27.4394321  10.9936514  75.2596664  28.1242142  10.3683386  75.0224228
  27.6115551  11.7576141  74.7092438  48.7265320  68.2185669  34.2747421
  48.9568787  68.5876389  35.1273613  48.0385208  68.7950134  33.9422035
  59.7271423  22.7202930  16.9438648  59.8906212  21.9647293  17.5083351
  58.7734528  22.7980118  16.9179440  35.8033714  71.0999451  18.4284573
  34.9278793  71.4263840  18.6362629  35.8904037  70.3005219  18.9476776
  57.1990128  51.9611702  30.0984573  57.0645714  52.9087677  30.0837116
  57.5060234  51.7766037  30.9861012  40.6090469  11.6177816  69.6326218
  40.5404778  11.3316565  68.7217636  41.3682442  11.1461782  69.9753113
  44.5143204  52.0601883  38.1782532  45.0327568  51.4941788  38.7501755
  43.6716232  51.6132011  38.0989113  45.2566643  33.2417030   0.1666550
  44.5095558  32.6681213  -0.0038416  44.8815613  33.9938126   0.6247618
  59.2477608  19.2558670  83.2586212  58.8258667  19.1643410  84.1129456
  59.8894005  18.5460968  83.2310944  32.1187897   4.1608248  65.3212051
  31.3580494   4.6550040  65.0157623  32.1869507   3.4254568  64.7122498
  64.2814865   4.3280005  71.4209442  63.5961189   4.7356434  71.9504013
  64.7884598   5.0637918  71.0776901  48.1827354   7.9767809  80.9541931
  48.6404648   7.5184097  80.2494812  48.6986351   7.7872658  81.7378769
  35.4211159  68.8719788  19.8751545  34.7484360  68.5776367  19.2610741
  35.3047104  68.3134384  20.6437321  45.0757141  59.8055458  61.5419922
  44.7598114  59.6377258  60.6541443  45.6851578  60.5372658  61.4450569
  84.1843491  49.0804749  25.3277950  84.4896164  49.3001366  24.4475708
  83.3313141  49.5087852  25.3993034   9.0839949  71.5806656  81.4644394
   9.9487247  71.9047165  81.7163620   9.2549410  70.7280731  81.0643158
  72.9390259   2.8275275  64.5365829  73.4050598   3.2860749  65.2357101
  72.3290710   3.4779921  64.1886215  11.8676586  63.1171608  54.2985039
  10.9509192  63.3618088  54.4248657  12.0497694  62.4975433  55.0050011
  54.5822678  56.7731628  54.5851669  55.2070236  56.3237343  54.0160255
  54.2620277  56.0908775  55.1752243  28.4665680  69.7893753  49.7575035
  28.8343754  70.5024338  49.2354927  28.4449196  69.0417328  49.1601753
  18.0712337  46.3243256  73.2337799  18.6204224  45.5433121  73.3019028
  18.2257576  46.6491547  72.3467407  64.4406128  12.7975903   3.3907535
  64.9448166  11.9928856   3.2705162  63.6798325  12.5288544   3.9057550
  41.5427513   1.1460710  78.2723389  40.9559937   0.3899502  78.2875061
  41.7920532   1.2741729  79.1875839  31.1454086  49.5184402  53.7407532
  31.4949932  49.7806396  52.8891258  30.7614880  50.3188438  54.0987892
  21.3510876  68.0073547  16.8047657  21.7231102  67.1980743  16.4542065
  20.5797348  67.7235413  17.2953758   7.6036630  64.3850937  38.9878883
   7.2989364  65.1342316  39.4999123   7.6005011  64.6964340  38.0827408
   7.8126545  56.2096100  68.8608246   7.2861910  55.5316010  68.4373016
   7.2883916  56.4850998  69.6128082  75.8635712  40.8193359  65.8166199
  75.7350464  39.8708191  65.8110275  75.0339279  41.1753311  65.4985046
   3.7603154  49.3557358  63.1190300   3.0500867  49.9132233  62.8012047
   4.4831381  49.5201073  62.5134392  18.9647541  53.0759773  83.9648590
  18.2405014  52.8133087  84.5329132  19.0499592  52.3577919  83.3378143
   3.0904179  19.5608711   3.3756995   3.1867948  18.6387672   3.1376460
   3.8586318  19.7507610   3.9142356  50.6593285  55.4124374  67.8267059
  50.8717499  54.7247276  67.1957092  49.9945717  55.0207176  68.3931732
  59.5910912  40.5551529  59.4730759  60.3657646  41.1133080  59.5407524
  59.1924973  40.7989197  58.6376495  63.5886421  25.3407345  24.0476952
  63.8302269  25.6880035  23.1890488  62.6880569  25.0355759  23.9378929
  15.8305578  26.4350662  80.0907440  14.9321070  26.5151234  79.7704239
  16.3251381  27.0754051  79.5792923  35.8537750  61.6557732  30.9754677
  34.9032974  61.5493927  31.0142918  36.0909386  61.3699265  30.0932655
  42.5278778  50.2984085  34.3964500  42.5138931  49.3422813  34.3533363
  41.6418419  50.5623322  34.1484108  33.2434425  71.1304550  62.5382118
  33.9603958  71.3754654  61.9532509  32.4573631  71.2023087  61.9967766
   8.6191826   7.3185925  61.9365463   8.2542601   7.2492323  61.0543594
   7.9888949   7.8573442  62.4147911  49.2457428  49.5036125  44.1514587
  48.5935707  48.9024887  44.5113983  49.9520912  48.9350471  43.8448029
  73.5930862  15.1615133  30.3368988  73.4678345  16.0986385  30.4863701
  73.7898712  14.8050022  31.2031593  38.9427185  44.4947701  33.4606361
  37.9998360  44.3886147  33.5868797  39.0247154  44.8987885  32.5967636
   9.4595890  62.4020576  38.8765030   8.7218246  63.0095634  38.8229065
  10.2130384  62.9136887  38.5819168  58.9450951  12.9595633  57.6020050
  59.2719612  12.3670311  56.9250298  59.6632614  13.5751829  57.7485809
  63.2529068  11.2683697  84.4740448  63.1768837  11.7676744  85.2871552
  64.1827469  11.0493498  84.4135208  42.2609787   1.9390004  88.8782272
  42.6597710   1.7209425  89.7206345  42.1852150   2.8931375  88.8889236
  36.2518158   3.7031589  86.6996307  37.0705338   3.5398867  87.1679001
  35.9729805   2.8391707  86.3963089   9.4842291   0.5369130  15.9887371
   9.6421556   0.0378799  15.1873274   8.5331583   0.5230862  16.0960007
  45.2459946  42.3585930  31.1874657  46.1186981  42.1659813  30.8446484
  44.7816925  41.5226784  31.1439114  69.4720764  45.4332237  84.5638199
  69.4935760  44.7983398  85.2798386  70.0181122  46.1575508  84.8694839
  59.5808449  61.4384346  59.7476082  59.1392708  62.1607971  59.3010254
  60.5108109  61.6600761  59.6999512  83.3092575  38.6919861  52.6083221
  83.3013229  38.7369919  53.5644302  82.4791870  38.2727966  52.3813782
  16.6836720  48.3729362  18.2327747  16.8621674  47.5707703  18.7235889
  17.5481186  48.7475014  18.0634727  76.7556534  50.7530327  33.5416374
  75.9907379  50.9650764  34.0765800  76.7149658  49.8030701  33.4314346
  83.9782791  33.1487465   0.4438376  84.8326950  33.4952507   0.1866677
  83.4124603  33.9192047   0.4935319  23.5625725  29.5863857  84.8750610
  22.7557354  29.8210964  85.3334961  24.1514149  29.2836456  85.5663300
  55.0305481  71.1011124  81.7777710  54.5625114  71.8703461  82.1024933
  55.3404579  70.6581726  82.5677032  14.5079222  55.5718880  65.5828781
  15.3285952  56.0596619  65.6521912  13.8969965  56.0500793  66.1435394
  18.4918709  14.3144226  54.6156197  17.5834103  14.0442524  54.7495651
  18.9229183  14.1269836  55.4494629  77.1550140  47.1840248  18.0566063
  77.6739120  46.4467430  17.7350540  76.7371826  47.5424347  17.2735405
  74.3542328   5.9447322  49.3410645  75.1240158   6.3648510  48.9574432
  74.3949203   5.0404100  49.0299759  61.9072304  57.9764137  10.5346603
  61.7982941  57.2302208   9.9451151  61.1666260  58.5491676  10.3354464
  85.1586838  24.7184505  65.1471024  85.6742783  23.9264317  65.2990723
  84.3677368  24.4083920  64.7060776  13.8733883  50.4683304  14.1025763
  13.5854607  51.0730171  14.7864494  14.7638941  50.2259865  14.3565454
  79.8838272   3.8330441  45.0468788  80.6718979   3.6993823  44.5202675
  79.2004700   4.0360017  44.4080811  55.7197456  11.5941477  13.3275681
  55.0926514  12.3142881  13.3937778  55.1787605  10.8044872  13.3299599
  22.3325405   3.6968644  87.7679901  21.3835602   3.6966484  87.6428070
  22.5042782   2.9190812  88.2988358  66.3789673  62.2059822  62.2115974
  67.0151443  61.4950562  62.2896767  65.6321487  61.8107681  61.7618294
  42.4287491  42.7692719  22.1531200  43.2748070  42.3354683  22.0425262
  42.5080528  43.2410698  22.9821854  27.7470188  28.6500092  60.2668266
  28.4658051  28.0748539  60.0045776  27.5780907  28.4208126  61.1806984
  57.8655663  44.9754181  88.5679321  57.9720612  44.0623627  88.3010483
  58.2666893  45.0195923  89.4359055  50.8450546  54.9159393  15.4496174
  51.3541031  55.7237701  15.5167885  51.4866829  54.2478981  15.2082272
  73.1470795  56.1392899  60.7848320  72.4885788  55.6455803  60.2961044
  73.9771194  55.9106827  60.3664856  22.6176891  -0.0819960  11.3474770
  23.4105625  -0.2009700  10.8245735  22.4687080   0.8635355  11.3448830
  53.0358734  55.9008179  13.5785971  53.2065430  54.9869537  13.8065281
  52.9174500  55.8926773  12.6287861  74.9099503   8.8133707  81.0014191
  74.1322021   9.3699255  81.0413361  74.9646835   8.4156151  81.8703384
  25.9443169  54.0180664  61.9649010  25.4499664  54.1281319  61.1526604
  25.7117710  53.1410484  62.2698479   0.6320630  19.2725811  75.5839386
   1.4612256  19.3185959  76.0599670   0.5728464  20.1102219  75.1245041
  61.7076149  37.7317085  88.1325760  61.8190575  37.5483398  87.1997375
  60.7620277  37.6866531  88.2742310  38.8188629  47.2396507  32.6494102
  39.2762260  48.0096855  32.3116379  38.3175888  46.9120903  31.9026451
  85.1521530   2.5516906   3.2648120  85.4233932   3.1369951   2.5576482
  85.7275467   1.7914064   3.1804357  71.0875778  67.9878082  55.2916527
  70.6896896  67.4045258  54.6453590  71.3839798  68.7424545  54.7828369
  53.7362938  71.5514984  23.2099285  53.6201591  71.8230591  24.1204205
  53.9208794  70.6136703  23.2613888  21.2276535  44.3056641  17.3962898
  21.8803082  44.5429573  16.7375278  21.6750908  43.6749458  17.9604073
  78.5103760  65.2504120  36.8238792  78.4546051  65.7357025  36.0007057
  77.6755447  65.4214783  37.2597961  10.7943268  47.0969200  49.2796516
  11.5374031  46.5774193  48.9727478  11.1863136  47.9085541  49.6018791
  44.4092064  65.8705521  31.1043587  44.1767235  66.7930374  31.2102089
  43.6014404  65.4527206  30.8057671  57.5667801  24.6709595  33.7731552
  58.3699417  24.5543938  34.2806740  57.8162651  24.4499607  32.8758545
  67.1069870  66.7118378  37.9878311  67.1244659  66.7775269  38.9426155
  66.1790314  66.7710724  37.7606239  14.2153749  52.5438805  67.6548615
  13.7480650  53.3728294  67.7582855  14.9268713  52.7442856  67.0467148
  20.9492989   6.0886803  79.0558319  21.4516773   5.4423456  78.5597458
  20.2229195   6.3223710  78.4779053  31.3309708  30.8883018  72.3625793
  30.6934013  30.3533821  71.8897171  31.1046486  31.7895832  72.1330032
  48.2463913  42.1096611  64.4654846  48.8272629  41.5818405  65.0134201
  47.4594154  41.5740471  64.3654022  32.2003326  58.8686714  67.3969040
  32.3048172  59.3723183  66.5896530  31.8594818  59.4999046  68.0306168
  30.1830196   3.8262374  74.6058731  30.2736607   4.4958649  75.2838211
  30.8240643   3.1563506  74.8436661  84.2150803   7.5826163  74.3901672
  85.0156784   7.5945516  73.8656464  83.6454544   8.2286224  73.9725113
  85.7380981  68.7687225  83.6794052  86.3185272  68.0547943  83.9432983
  86.2508698  69.5626907  83.8307724  64.2130127  29.0806293  40.4391747
  63.3447456  28.7818050  40.1689072  64.8052673  28.3847618  40.1541519
  67.7717896   8.8150578  65.6041946  68.5386581   9.2950106  65.2914734
  67.0624771   9.4574738  65.5838699  39.0233307  52.3063965  51.8938141
  38.8698120  51.3722343  52.0352631  39.9662437  52.4155502  52.0172501
   7.5124874  29.6151390  60.9054794   7.0747304  29.7064686  60.0591583
   8.0184002  30.4219933  61.0017586  45.7005119  13.0056734  76.2121735
  45.2097206  12.7562017  76.9951935  46.4466133  13.5039415  76.5457840
  73.5319061  42.6742363  34.1046791  74.2802505  42.7068329  33.5087357
  72.7678299  42.6503143  33.5286102  73.8429413  16.8054352  79.0530167
  73.1729431  16.3545017  79.5668182  73.9521866  16.2621994  78.2725067
   6.5996528  46.7220421  24.5904942   5.9251208  46.1358185  24.9333973
   6.7251339  47.3727531  25.2811890  39.4991455  22.1763973  81.5201492
  39.2204208  23.0113297  81.1440659  40.4454002  22.2679539  81.6317215
  78.7620468  61.1814995  46.7182388  78.8048935  60.2582359  46.4692879
  79.6558762  61.4002380  46.9817772  23.8363876  48.6527786  71.7232056
  24.7891750  48.6106949  71.6416092  23.5204029  47.8921738  71.2354889
   0.4553271  32.1091995  43.5588989   0.2951601  32.7840157  42.8992004
  -0.0727237  32.3787727  44.3103790  45.5789375  61.0618858  78.4373856
  44.6970558  60.9986038  78.0706253  46.0926857  60.4283409  77.9364700
   8.7279024  56.7687912  38.2036629   8.0535831  56.9931450  38.8449059
   8.4017324  55.9742393  37.7811317  62.6903496  27.0359898  62.5558052
  63.3878784  26.3814774  62.5918083  63.0611572  27.7531586  62.0416031
  48.6764565  31.1532001  62.0057411  48.0713234  30.8099651  62.6631851
  48.5410042  32.1005325  62.0269279   0.2929372  33.8408775  87.4036255
  -0.0813797  33.4324265  86.6230545   1.1854585  33.4979477  87.4487762
  18.9880486  39.6457176  25.8572598  18.7944565  40.0598221  26.6982536
  18.3460884  40.0188065  25.2531700  15.8420391  63.2692070  88.1653214
  16.0205345  64.1987228  88.0225830  16.6979752  62.8883476  88.3616638
  23.7977524  13.7207594   7.6003685  24.6235600  13.2744808   7.4129934
  23.4626923  13.2853680   8.3842058  41.9988480  51.8254700  51.7197800
  42.0927200  51.9422874  52.6651764  42.8801918  51.6072464  51.4167252
  78.9253998  71.0609589  52.3081551  78.1678314  71.2016373  51.7402382
  79.6814270  71.1984329  51.7373962   8.4158039   2.9792655  51.5560150
   7.5092812   3.2398715  51.7189026   8.3630486   2.3827968  50.8092384
  34.6494827  38.7817307  66.5310822  33.9454765  38.9145660  65.8962936
  34.5057678  37.8967972  66.8664474  54.0560684  31.1526661  30.3992310
  53.9112892  31.6850624  29.6170387  54.2941399  30.2895298  30.0607758
  12.9783707  35.6681023  74.2235565  13.4066668  35.5655518  73.3736877
  12.0767822  35.3838882  74.0732498  53.5764809  71.2918472   7.7980165
  53.8966293  70.9146881   6.9785757  53.7579460  72.2282562   7.7176909
  57.6930923  69.1229095  73.1146393  57.2937164  69.4427414  72.3056641
  58.4228973  69.7213364  73.2743378  49.9730682  66.3050842  60.3752022
  50.8245163  66.1041260  59.9867706  49.7653465  67.1831894  60.0558052
  24.6918411  67.8529816  11.0964861  24.0210896  68.2628555  11.6426783
  25.2945480  67.4484634  11.7204571   8.3526669  43.4747009  41.9650993
   8.1596527  44.3051720  41.5300179   8.6825647  43.7271080  42.8274727
  17.1054096  61.4110489  16.4377460  16.4384441  61.5001030  17.1185207
  17.3310452  60.4808426  16.4437256  53.3034019  21.7595100   7.5586820
  53.7675552  22.0398312   8.3474874  52.9037361  22.5600834   7.2187095
  26.1916447  44.8291588  61.1660995  26.9704952  45.3462791  60.9606514
  25.6596584  44.8713531  60.3714676   8.4830399  33.6034508  51.0691910
   7.6488838  33.9789352  51.3510246   8.4930191  33.7274132  50.1201057
  54.0057678  44.6438522  84.2085800  54.7283134  45.2633209  84.1065292
  54.0952148  44.3168869  85.1037445  56.1131058  33.1263657  13.4235897
  56.1529427  32.3084679  12.9279232  56.6211128  32.9513435  14.2157564
  53.1180687  48.7726059  64.6594086  53.3741722  48.2122078  63.9268799
  52.2520485  48.4537659  64.9135208  68.2899857  11.3378296  37.8031158
  67.7685471  11.2642174  37.0037956  68.3191681  12.2772560  37.9843788
  85.9239120  46.7140198  41.7589760  86.6171951  46.2883110  42.2633286
  85.8986588  46.2320824  40.9323387  44.3492470  11.8732100  73.2083130
  44.4020805  12.6744289  73.7293549  44.9722481  11.2763729  73.6229019
  54.3627281   1.7614057  88.9319305  53.6979065   1.1478810  89.2447052
  54.3365898   1.6774889  87.9787750  47.7689934   6.9822650  61.7132721
  47.2452431   7.7659411  61.8799171  47.1662407   6.2544713  61.8657150
  14.2947769   8.1374292  64.2084503  13.4368038   7.7756882  63.9865036
  14.3715744   8.0089951  65.1538773   7.0222659  29.8471699   3.8107848
   6.0775027  29.9946308   3.7670896   7.3229170  29.9511700   2.9079976
  68.2569351  60.7120857  14.8601437  68.7992020  60.1787338  14.2790174
  67.3771439  60.6532745  14.4876661  61.1118851  22.1068516  84.4924240
  61.1034660  21.1790333  84.7276077  60.4757614  22.1793499  83.7808609
  76.9268951   5.0473895  54.5661278  77.1224060   5.9843788  54.5584030
  77.7825470   4.6236210  54.4989967  28.4115124  47.4871101  76.3501511
  28.4476776  46.9136848  77.1157227  27.7958755  48.1773338  76.5967560
  75.1885529  28.3784828   4.5153184  75.8395844  28.6721802   5.1525979
  75.6960220  28.1812439   3.7280431  14.8456001   2.0635676  54.7318344
  15.2508116   1.7229114  53.9343452  15.4686222   1.8509164  55.4267120
  68.3499222  24.4722462  31.0361595  67.4063187  24.3194427  31.0861263
  68.4829788  24.8694973  30.1755085  54.6804008  38.2199135  52.8023300
  54.5836487  39.1630630  52.9339981  55.5367622  38.0124779  53.1762924
   6.4722815  65.1606903  31.1254559   7.1969857  65.7500000  30.9162846
   6.5043163  64.4900894  30.4431782  76.8450089  32.1630058  40.2543678
  77.7532654  32.0071259  40.5132370  76.6040497  32.9738274  40.7024040
   9.7055044  47.2595139  61.4427910   9.6256161  46.3786888  61.0767403
  10.5954237  47.5320206  61.2191505  39.2318954   1.3103648  74.8569870
  39.8966599   1.6770712  75.4399490  38.4862022   1.1280185  75.4287567
   1.0047377  49.1620827  36.3284111   0.2221492  48.7519073  36.6965752
   1.6583939  48.4629288  36.3162117  32.8442230  50.2333679  16.5760803
  33.7305374  49.9115753  16.7407875  32.5945892  50.6739960  17.3883381
  10.1777849  43.4166527  57.7332687  10.8385229  43.1117096  57.1114426
   9.3461809  43.3068123  57.2721786  11.2504663   6.9367929  13.8915157
  11.2468414   6.2278333  14.5346289  10.9507046   7.7040114  14.3791122
  36.6149025  40.2383499  62.7072983  36.9096909  40.6968918  63.4941101
  36.2279243  40.9231339  62.1618195  21.4830952  21.4012642  68.3777924
  21.4829063  20.4447479  68.3416367  22.2492867  21.6207619  68.9078903
  53.1852531  11.9327431  83.1234283  53.7779999  12.6749935  83.2415237
  53.7644958  11.1829576  82.9872971  86.5998535  26.7759838  63.3391609
  86.1242905  26.1634235  63.9002686  85.9168777  27.3151379  62.9403152
  70.6904831  44.8768539  80.9168625  70.0445175  44.6082993  81.5701904
  70.3641663  44.5131149  80.0937958  86.2335587   8.7455215  82.1821518
  86.6930084   8.4718304  82.9760208  85.4283524   9.1538658  82.5001602
  65.0781860  50.2926598  37.3706665  64.6926117  49.6049919  37.9135132
  64.8070221  50.0742378  36.4790421  73.3761902  44.1082764  46.2579613
  72.9483337  43.6678467  45.5236664  73.1802292  45.0361252  46.1278419
  70.8481064  29.7711887   1.0703591  70.5792847  28.9463596   0.6658568
  71.6660461  29.5614815   1.5211655  38.2557945  35.5052338  80.5801773
  38.3800316  34.5771255  80.7786942  39.0753288  35.7730141  80.1643753
  22.4260330  63.8354225  54.9271507  21.6976318  64.1665421  55.4525299
  23.0280704  63.4537659  55.5659943  37.2981300  71.3324661  16.0861549
  36.6628075  70.8869019  15.5257378  36.8249702  71.4953690  16.9021320
  61.3596306  26.3468075  72.4829865  61.4976921  25.5551815  71.9628906
  60.4330635  26.5543194  72.3619843  72.7450104  67.1043701  82.8682022
  73.1940231  67.7145691  82.2831650  72.3917160  67.6570206  83.5653381
   2.2037952  63.2713356  44.9470482   2.9912508  62.7366486  44.8457909
   2.1859348  63.8220367  44.1643372   3.9664662  42.0793304   9.8379250
   4.4438744  41.6014442   9.1597385   3.0471838  41.8638725   9.6806726
  55.2365150  38.0560226  80.2410278  54.4368744  37.5303078  80.2202988
  55.6973801  37.7601585  81.0260696  42.6954651  69.5706558  53.3882332
  41.9246025  70.1074371  53.2042236  42.3490562  68.8006821  53.8392029
  47.8918457  14.2035198  77.3139725  48.1985168  13.4176846  77.7663498
  48.6795006  14.7343225  77.1952972  80.9145432  30.4705906   0.4718726
  81.1353226  30.0758514  -0.3717346  79.9723358  30.6316967   0.4216724
   0.9132450  66.3704453  80.9079285  -0.0344864  66.4399719  81.0228271
   1.0663422  65.4409943  80.7378845  33.8230553  10.4373636   0.8000832
  32.8865242  10.4967718   0.9888017  33.9693642   9.5122671   0.6025448
  76.3165970  30.6519394  45.1225204  76.6173019  29.8299980  44.7349434
  77.0994568  31.2017307  45.1554871   9.5467863  67.6384430  43.4855461
   8.6464863  67.5622864  43.8016014   9.4581451  67.7951660  42.5454292
  22.8927059  66.1348343  41.0837288  22.5014191  65.2613373  41.0723419
  23.1140079  66.2861862  42.0026169  60.9743423  37.2860909  23.1204777
  61.5909996  37.2410774  22.3897648  60.4951820  36.4584045  23.0808449
  35.6919098   5.9735999  12.2921314  35.6858711   6.5013223  11.4935675
  36.5822411   6.0635304  12.6319170  18.6108265   4.0310559  43.5030098
  18.6962070   4.2194963  42.5684357  18.0513496   4.7315531  43.8384514
  40.5588188  62.7518883  43.0539017  40.6966362  63.6973648  42.9963570
  41.0193825  62.4908066  43.8513641  65.5674973  32.3045425   6.9580669
  65.7611465  31.3678436   6.9216256  65.5975037  32.5910110   6.0452328
  73.3599014   4.6115270  45.3783798  73.1652451   4.6993222  46.3114586
  73.5714340   5.5004253  45.0931664  86.4372559  28.2773666  17.0383434
  85.7938004  27.7565956  17.5189629  87.0836639  27.6395760  16.7356682
  10.3613882  43.1321487  35.8831062  10.0467796  42.3922653  36.4025536
   9.8218307  43.1164665  35.0926247   1.1340507   0.5932748  34.9365654
   1.2929157  -0.2132222  35.4270325   1.2446427   0.3417158  34.0196571
  10.2042265   6.0215907  49.6561737   9.6652040   6.6624618  49.1925240
  10.2238846   5.2605839  49.0759010  52.5651207   6.5901623  59.6182632
  52.9519615   6.0214419  60.2839546  52.0904732   7.2547765  60.1174927
   4.2551827  66.7170258  61.5016479   4.5679212  67.5584335  61.1692963
   5.0137243  66.1368561  61.4364395  84.6305923  27.7976894   8.2690134
  84.6898193  28.3240948   9.0662737  84.2362442  26.9736557   8.5548296
  54.1921768  24.9895515  19.4851875  54.3661270  24.9700527  20.4262466
  54.2754707  25.9124527  19.2452927  56.0209694  35.4428101   8.3362455
  55.9182167  34.9177551   7.5425248  56.0124893  34.8038216   9.0488834
  68.0786362  20.7151718  53.7265358  67.8620529  21.6474209  53.7418709
  68.6273651  20.6095161  52.9493828  39.3083115  50.7568779  18.3246937
  40.1336098  51.1724167  18.5745773  38.7970085  51.4607391  17.9254665
  22.7276440  57.1059608  12.5271530  22.5485497  58.0459785  12.5043449
  23.5512924  57.0074043  12.0495319  37.6220055  37.5916214  74.8769913
  37.2520638  38.2283554  75.4885025  36.8828087  37.3287582  74.3286057
  68.1093063  46.5061264  67.6160355  67.6202850  45.6901855  67.5095825
  67.4349976  47.1792946  67.7075958  22.0795155  63.1689110  19.1339169
  22.9165154  63.6231613  19.0373745  21.9583302  63.0885811  20.0800095
  28.8973999  66.7141495  55.9135361  28.5314178  67.2624359  56.6075630
  28.3311749  66.8738251  55.1584702  48.3234787  67.3724594  80.9270935
  47.8061371  66.6553345  81.2935944  48.3487282  67.1935349  79.9871063
  17.2585278  70.7890167  36.2604904  17.5456028  71.6981583  36.1751595
  16.3159256  70.8490677  36.4158211   4.1098261  52.7443161  45.7587509
   3.2190645  52.4900589  45.9998512   4.1997299  53.6398926  46.0844650
  32.5822525  35.2377968   8.0614357  32.1886559  35.6246910   7.2793703
  33.4868393  35.5506859   8.0541134  86.3420639  31.2805710  78.9657135
  86.2525787  31.6381779  78.0823441  86.1548538  32.0202751  79.5436630
  66.9185181   2.7353342  62.8338776  67.8188248   2.9819198  63.0457306
  66.4784927   3.5662594  62.6545067  25.0632915  65.5565567  25.2741833
  24.9907722  66.4476776  25.6160622  24.1637859  65.3075943  25.0617275
  52.8966141  40.2848930  22.0101776  52.3309669  39.5678520  22.2967567
  52.4559097  40.6446037  21.2403603  31.6062012  49.3768272   5.4145327
  31.8952675  50.0522881   6.0280704  31.8610210  49.7099190   4.5540972
  26.5361748  11.0419683   0.6208546  26.6303825  11.2278233   1.5551001
  25.9177227  11.7015162   0.3066144   0.6814685  11.5344076  49.1885757
   0.3683306  10.7045946  48.8285942   1.5916164  11.5932627  48.8980598
  68.3263626  13.4648666  31.6878967  69.1873245  13.7832804  31.9591503
  68.4923248  12.9896860  30.8737164  18.5744610  46.2778015  25.0789356
  19.1166153  46.6999207  24.4125156  18.4995613  46.9302597  25.7752972
  68.0363464  47.2519150  70.8202591  68.4621353  46.6682358  70.1923599
  67.5129242  47.8439407  70.2801056  36.9210587  45.0094109  70.3536148
  36.8023949  44.6805687  69.4625473  37.6308403  44.4770546  70.7128448
  55.3056984  14.6165009  33.0188141  54.9133148  13.7525167  32.8931236
  55.0414886  14.8733282  33.9022522  43.5824890   5.3757110   9.3529205
  43.8562584   6.2101102   9.7337875  42.8388290   5.6002336   8.7936420
  19.1362286  64.1855392  47.1240616  18.2609329  64.5699005  47.1726456
  19.3685646  64.0030823  48.0345345  41.5678291  20.7843571  85.7730408
  41.7019463  19.9579315  86.2370071  40.6215401  20.8318233  85.6369934
  57.8083420  34.5095291  35.5392380  57.9774971  34.9828682  34.7246399
  56.9500732  34.8229103  35.8245468  40.1013718  41.9887390  77.5299530
  40.3736725  41.5333099  78.3266068  39.5909576  41.3397789  77.0456390
  46.1179924  11.3834143  80.4677429  46.8912125  11.8932743  80.2260742
  45.4898834  11.5535841  79.7657776  56.3429565  54.5972862  61.7799149
  55.9647827  54.8012543  60.9245720  57.2888031  54.6151085  61.6340103
  80.0545731  59.6169128  74.9249268  79.8994446  59.8415909  75.8423691
  79.3482742  60.0534592  74.4487000  26.8610973  58.7879677  28.2377090
  27.0923347  59.6731606  28.5191288  27.2942085  58.6852379  27.3903046
  73.4371872  41.9332733  38.8826218  73.1196213  41.1347618  39.3042412
  73.6989441  42.4995918  39.6085701  71.3375778   9.5055428  73.6757431
  71.7550507   9.3815517  74.5281372  70.8190384   8.7116137  73.5452576
  57.7886276  16.9333858   4.8513751  57.5029488  17.6797924   4.3245950
  57.4953232  17.1402378   5.7387409  64.1518402  32.3823090  85.9975052
  63.9821014  33.2199059  86.4286194  63.2835388  32.0493202  85.7708054
  62.1030960  56.7736320  25.5119762  61.2568398  56.8831787  25.9456558
  62.7085533  57.3029594  26.0310783   8.3306456  49.7954559  -0.2381229
   8.1849232  49.5013275   0.6610352   9.1007767  50.3612404  -0.1832063
   4.3068743  45.9070549  50.2614250   3.8699908  45.0638504  50.3812943
   3.9288185  46.4707756  50.9363518  48.3710136  62.8328094   6.3688030
  48.9471779  63.2107773   7.0331898  47.9214401  62.1183357   6.8200684
  64.3430710  36.1639900  81.8909073  64.1799622  36.4365273  82.7938766
  63.6524963  35.5279999  81.7042236  40.4270554  52.9729500  76.8423233
  40.6107254  53.7815514  77.3205109  41.2235489  52.4510384  76.9394989
  62.2408180  44.7206306  44.4589539  61.9803314  44.1353226  43.7477646
  62.1853981  44.1797638  45.2467499  72.3266754   6.0269165  31.9961739
  72.9284515   5.2922573  31.8762722  72.0349579   6.2445211  31.1108589
  78.1890488   5.5115480  74.6358795  77.3303452   5.3677726  74.2381516
  78.8133469   5.2544336  73.9573669  73.1185303  65.5149918  71.0219498
  72.7582169  64.6526642  70.8150482  73.4619751  65.8372879  70.1886444
  47.6729279  22.9154949  66.7203979  47.8914299  22.2008724  66.1222305
  47.1395416  23.5124569  66.1956406   6.6924157   3.7989452  82.1404343
   7.5486836   3.3714702  82.1578293   6.3803644   3.6737244  81.2442322
   6.3815565   6.7697482  75.9662704   6.0620294   7.6709805  75.9225159
   7.2200570   6.8348413  76.4233398  44.1838760  12.0873680  78.3553162
  43.7260208  11.2488422  78.2963867  43.8166046  12.5066223  79.1335068
   9.6173382  65.3450699  31.1155033  10.1946287  65.1060791  30.3903465
  10.1915712  65.3688507  31.8809605  18.0094719  61.1519241  74.5733109
  18.6465702  61.4585991  73.9281082  17.5425949  61.9426651  74.8434830
  54.1883659  26.5563450   0.9857475  53.6866837  26.1737709   1.7055990
  55.0963554  26.3188629   1.1738516  56.2113876  22.4441013  68.4489517
  55.6651154  22.1417122  67.7234344  55.9318161  21.9149456  69.1959915
  62.6083031  22.9002590  35.7866058  62.0988388  23.6934242  35.6205788
  63.5146370  23.1581745  35.6184769  29.3065472  12.4486418  61.1606255
  29.4561977  13.0514708  60.4323196  28.4047565  12.1500463  61.0429649
  60.6508598  35.6918411  43.1375351  59.7975922  35.8768845  43.5298653
  60.4581413  35.5174484  42.2162971  59.3650742  51.1571388  50.3326683
  58.6718292  51.4830704  50.9066124  58.9461632  51.0706100  49.4763641
  22.7966557   8.9794865  72.5986328  23.7253437   9.1627483  72.7406921
  22.5501823   9.5449133  71.8666687  78.7753143  64.9279633  48.8379593
  79.3680801  65.6794281  48.8505211  78.0669250  65.1717072  49.4337807
  61.1357841  24.3358955  77.5094223  60.8833809  23.4186764  77.6154099
  61.1802330  24.4641266  76.5618896  52.3949051  25.0024834  13.8456173
  52.3967285  24.8479862  12.9009695  53.3110733  25.1762447  14.0616598
  57.6071739   4.7050118  55.3248215  56.8128929   4.4747691  55.8068390
  57.3786469   5.5076528  54.8560181  31.3549290  14.3358421   8.9629974
  31.5279713  13.6004620   9.5507946  32.1682625  14.8405371   8.9649391
  20.1343822  70.1701050  46.8934631  20.7385998  69.5902252  46.4299011
  20.5612698  71.0266037  46.8730316  24.8555164  41.0398979  80.3401031
  25.1398315  41.8999786  80.6493912  24.5512791  41.1954536  79.4459686
  19.0594673  46.8424072  31.4518433  18.5340919  46.9539413  30.6595230
  19.4553165  45.9760971  31.3567657  74.4945221   0.7918219  58.5373306
  74.1714783   1.5111068  59.0800095  74.5938644   1.1751794  57.6658936
  53.6994514  34.9954720  70.5842438  54.5007706  35.4599533  70.3426437
  53.0095978  35.6552773  70.5136108  80.1367645  71.5355148  79.7833176
  79.9777832  71.7281570  80.7073593  81.0837097  71.4087219  79.7245636
  81.7286606  36.2552490  24.5744820  81.8561401  35.6943245  25.3395615
  82.1378708  37.0862160  24.8158760  84.2268524   7.0214510  55.7778816
  84.0734558   6.0896549  55.6214905  85.0259933   7.0476160  56.3041077
  69.0328217  46.0108986  32.4925690  68.9724350  46.7270813  33.1247673
  68.5360184  45.2966347  32.8916245  45.3528442  57.7410660  84.8968048
  45.3281174  56.7970390  84.7404861  45.9292679  57.8434258  85.6540909
  18.8529739   7.4076376  80.7896805  19.3420792   6.7425656  80.3052368
  18.8226986   7.0763245  81.6872025  70.3117981  57.5754166  15.3608170
  69.5490189  57.7190704  15.9209595  70.3624344  58.3626099  14.8186045
  69.9916000  16.0856171   9.3029108  69.6638565  16.0361195  10.2008896
  70.8267975  15.6185837   9.3266878  74.1314621  24.3282242  20.0846100
  73.2144623  24.4341908  19.8314056  74.5606918  25.1231441  19.7682285
  83.0975113  24.4509315  72.3170853  83.2623215  25.3883228  72.2152634
  83.9000397  24.1079578  72.7102051  76.4871979  41.3650284   3.7878094
  75.6767731  41.3341599   4.2962308  77.0253906  42.0185623   4.2344375
  30.7185268  51.3287010  34.2729530  31.2927876  51.3347359  33.5071716
  30.9735680  52.1061440  34.7697182  73.3745041   6.4973607  88.2736053
  73.5289688   5.5876303  88.0191269  72.8301086   6.4373345  89.0586319
  21.9876213  64.1114273  88.9858932  22.8470421  63.8333893  89.3026276
  21.5671291  63.3028564  88.6932526   1.2587401  40.6717453  16.4959602
   1.3552530  40.0469666  15.7772341   2.0607300  40.5724297  17.0089703
  63.5592079  51.8909378  86.8452682  63.8200417  51.0879440  87.2962646
  63.5105858  51.6422310  85.9222260  85.4743271  49.2056427  80.9773331
  85.9980316  49.9082413  80.5922165  84.6245422  49.2742043  80.5421219
  81.3929520   6.5313649  76.8636856  80.5903473   6.9885554  76.6126328
  81.2040405   5.6076241  76.6986237  19.0354843  24.6059036  10.2241678
  19.8972340  24.9780197  10.0366850  18.7564259  25.0417500  11.0293989
  45.7343903  51.1964531  48.0779762  45.5820427  50.2991600  47.7815208
  45.7786522  51.7107620  47.2719002  39.8540649  56.0411949  28.5218830
  39.6970863  56.6445923  29.2481747  39.1106186  55.4387550  28.5460415
  68.0332260  55.0333099  37.3670120  68.9017258  54.7477455  37.0834618
  67.4676743  54.8643532  36.6134644  79.4379578  30.5146599  79.3381958
  78.9785233  30.2518215  80.1357346  80.2865219  30.0753784  79.3947906
  65.2034302  14.9590187  71.1393585  65.7571335  14.4508972  70.5465164
  65.3849335  15.8713455  70.9136429   3.1552198  49.3767586  75.5269775
   3.0915360  49.7126961  74.6329269   2.3615577  48.8545494  75.6437149
  48.6232033  26.3785934   4.4611416  48.9860229  25.9045181   5.2093697
  47.6803894  26.3995018   4.6251621  40.5927315   4.0865722  42.7460976
  41.3901482   3.6284125  42.4806786  40.8562393   4.6052523  43.5062065
   2.2466378  52.0800591  31.3360367   2.9471893  51.6271935  31.8054771
   2.6706691  52.8505287  30.9581470  32.6289635  60.7485657  79.5173798
  31.7416344  61.0654831  79.3487473  32.5460434  60.2127266  80.3061981
  64.2446976  35.1616211  18.1146679  63.5594025  34.6116409  18.4943008
  64.0171432  35.2215729  17.1868439   8.3919363  33.8926277  65.7960434
   7.5134149  34.2665520  65.8639755   8.4613256  33.3057404  66.5490265
   1.3561494  64.1978149  34.7167168   0.5006582  64.4042664  35.0932083
   1.6929320  63.4873390  35.2626381  46.0079994  54.1346130  54.0513458
  46.7164650  54.4095001  54.6333618  46.4312515  54.0074997  53.2022667
  29.8050327  48.7547531  35.1168060  30.0471821  49.6472092  34.8695869
  30.5813408  48.4093208  35.5575447  48.8974190  21.7613544  80.6987457
  48.8483658  20.9184513  81.1496735  49.4286537  21.5868111  79.9218521
  57.9201508  41.6389313  68.9037857  57.8332443  41.3583679  69.8148117
  58.5676842  42.3433456  68.9308395  78.9253235  57.5806160  28.8922367
  79.7738876  57.5048523  29.3286133  78.3393784  57.0289803  29.4105034
  82.5299530  28.7826557   6.4558940  81.8362045  29.2200146   6.9495201
  82.9142380  28.1653957   7.0784268  69.3601074   2.6301930  88.6939697
  68.8217316   2.8474488  87.9329300  70.1744232   3.1144068  88.5573807
   6.5289302   7.2702894   7.3621383   7.1088405   7.8329511   7.8753123
   6.2603846   7.8146439   6.6220078  70.5724945   5.5996561  15.3895636
  70.6702957   6.2629280  16.0727463  71.3995667   5.6275330  14.9085207
  24.5951786  67.3600845   3.0968227  24.7859917  67.9009323   3.8631783
  25.4534359  67.1705017   2.7177653  45.8907928  70.5912247  22.1218357
  44.9802933  70.8803635  22.0616245  45.9426842  70.1368256  22.9627018
  58.5406075  32.8846893  63.0515938  59.0273209  33.6205139  62.6802368
  58.8894920  32.7896271  63.9378624  11.3789072  42.0800514   6.6300726
  11.6632233  41.2879982   7.0861950  11.4308348  42.7694054   7.2921343
   9.1232767   6.6571941  53.3525772   8.5047474   5.9810352  53.6290970
   9.8777800   6.5423226  53.9302979  48.4245110  39.9142303  77.6258774
  48.0315437  39.9583969  76.7541809  48.4648056  38.9784775  77.8233109
  27.5419483  18.1142139  12.2747116  27.0970287  17.5944290  12.9441175
  27.3641930  17.6522884  11.4554062  23.9299393  35.7170029  46.4113960
  23.3877354  35.4295158  45.6768227  23.3277588  35.7510109  47.1546669
  14.8168526  58.3667946  67.2590714  14.2064085  58.0779915  67.9374466
  14.3568821  58.2002869  66.4363174   3.7051420  17.1152992  58.3803940
   3.8933997  16.3045082  57.9077301   4.5342479  17.3464222  58.7991982
  86.0323410  36.9594688  73.4608536  86.8667603  37.0686531  73.0047150
  85.6675034  37.8431740  73.5075989  17.3523731  40.1507416   3.8180132
  16.5355530  39.6781120   3.6578178  17.0916252  41.0705452   3.8649483
  80.0305176  59.9229393  85.0583344  80.1251221  60.6156998  85.7120667
  80.2905273  59.1238937  85.5167618  85.1931763  61.1141853  33.7573509
  84.5466766  61.1383247  34.4628143  85.0313492  60.2822075  33.3125381
  84.5705795  43.1345024  66.9216003  83.8610840  43.4406738  67.4865036
  85.1454010  43.8939056  66.8261261  54.5013695  34.8517609  28.1245365
  54.1008072  35.7094536  27.9826012  54.6671715  34.8178024  29.0666561
  77.6092834   1.5157350  64.8913574  76.7606812   1.7401665  64.5096130
  77.5521011   0.5764976  65.0668411  50.2474976  39.5259514  32.3944244
  49.9955368  39.7484703  33.2906609  49.4941673  39.0498619  32.0450439
  29.8171978  58.6599388  73.9462280  29.3500652  58.9820824  73.1753540
  30.6899872  58.4378815  73.6219406  82.3823624  11.1546831   4.8011203
  82.5964813  10.8606558   3.9157200  82.7628250  10.4883232   5.3733492
  75.9871674  52.9593735  14.6227179  75.2293930  53.3281097  15.0766420
  75.7622910  53.0185356  13.6941910  84.9702301  48.7807083  48.3973312
  84.7827759  47.8586578  48.5731621  84.5776825  48.9456787  47.5400581
  38.0623398  56.8010941  71.3307800  38.9754906  56.5261078  71.2484894
  37.5668640  55.9824448  71.3542557  24.6517372  49.9692612  83.7735443
  23.7464123  50.2663383  83.6820831  24.9862347  50.4499931  84.5306702
  50.0224838   4.1175900  18.8932648  50.4160156   3.4087875  19.4021492
  49.1220207   3.8312497  18.7402668  18.5923939  56.4355125  75.3383255
  17.7015038  56.5436516  75.0053864  18.6217079  55.5327835  75.6552734
  84.8270645  48.3690529  35.3827553  84.5184479  49.2474785  35.1605911
  84.2394867  48.0779877  36.0800819  67.2320251  23.1530685  10.1108742
  68.1608887  23.3496761   9.9892759  66.7848663  23.9751472   9.9097071
  47.1513100  43.2544212  16.3693562  47.9268150  43.5028648  15.8662691
  47.4362183  43.2912254  17.2824287  78.4004135  34.2315216  66.6576004
  78.3311844  33.9667130  67.5748367  78.2450790  35.1759720  66.6685944
  31.4580002  16.6222782   6.2433338  31.9459324  16.2626667   5.5025005
  30.9848194  15.8728857   6.6049151  17.4574661  35.5925713  17.5255051
  17.2041454  36.4377899  17.8965416  18.0216808  35.1984062  18.1907310
  80.0115433  14.6594563  15.3126478  79.9374390  14.4039211  16.2321262
  79.1421738  14.4948473  14.9474955  36.5550804  54.6127930  70.5396500
  36.8623238  54.2890167  69.6928864  35.6602516  54.2808495  70.6126328
  80.6349258  63.3282394  33.2778778  81.2973251  62.6569977  33.1138802
  80.4932785  63.2988319  34.2240829  82.5259476  40.6841354  50.7201080
  83.1106110  41.3996658  50.4702797  82.7807312  40.4687920  51.6172943
  53.5103035  47.1572952  62.2811623  52.8586540  47.3632812  61.6109734
  54.2607307  47.7102165  62.0635185  22.6589451  23.8724098  25.2454624
  22.3897743  23.2198238  24.5990028  22.8868179  23.3607826  26.0216999
   4.1922803  61.9741173  22.1761608   4.2538443  62.4986954  22.9744473
   4.5190978  62.5502663  21.4851627  28.8048630  64.0929413  57.8156166
  27.9944744  64.3059082  57.3528557  28.7344170  63.1570435  58.0036888
  10.2251129  54.6670609  18.0847321  11.0495481  54.3341064  18.4392471
   9.7496719  54.9923286  18.8491859  14.0942574  63.8380241  16.3097725
  14.1504765  62.8878403  16.2086716  14.3621588  63.9988899  17.2145271
  66.5681000   3.1006291  69.0363693  67.4516373   2.8384111  69.2948990
  66.0164642   2.8451712  69.7757416  82.7726288  27.2500858  12.4990969
  82.4003372  26.6550522  11.8482771  83.6900787  26.9859428  12.5680513
  80.6641159  62.4647903  21.8097172  80.4859619  61.5243645  21.8192654
  81.6184769  62.5281639  21.8472176  43.3271408  36.8708992  76.6969757
  43.1187286  37.6956177  77.1358719  42.5689430  36.3115234  76.8656921
  27.9770203  55.2727509  84.4870224  28.3715744  55.2732925  83.6149292
  27.8861790  54.3459053  84.7082367  34.3119354  28.8161488  11.5300465
  35.0379486  29.0730000  12.0985241  34.7182846  28.2772675  10.8512840
  20.7379036  62.8962479  27.7463818  19.8426456  63.0029144  27.4248714
  21.2472210  63.5408096  27.2550850  43.8370590  60.7385750  19.4915485
  44.1542206  60.5482903  20.3744049  43.5751114  61.6586533  19.5242748
  47.6767502  32.2771187  18.0828896  48.5408440  32.2980042  18.4941483
  47.5686836  33.1512375  17.7080994  75.4815903  35.0909004  67.8924561
  76.3481216  35.4085045  67.6385193  75.3870239  35.3580742  68.8067322
  16.2550278  15.3875589  57.5953522  15.8573923  14.9955959  56.8178673
  16.8093853  16.0888557  57.2531548  43.7191658  12.1616974  83.6057053
  43.1800995  11.3770065  83.5062103  44.5982780  11.8273830  83.7835388
  74.1870041  37.3845139  56.4801674  74.0232162  38.1209335  57.0693169
  74.1819763  36.6157990  57.0505066  13.7366524  62.5180702  12.6073847
  13.1407347  63.2574081  12.4870005  13.1629171  61.7533913  12.6555758
  73.0825806  14.1359673  36.4159851  73.8578262  13.5856371  36.5271645
  72.5699310  13.6936941  35.7393608  41.3475380  45.3544121  13.7132416
  41.3201141  45.3803825  12.7567873  40.4472847  45.5350990  13.9836607
  66.3968811   0.0342679  52.9889030  66.7660141   0.5970138  52.3082504
  67.1576385  -0.3818107  53.3943062  82.0288086  16.1254921  81.3900833
  81.3298645  15.7195568  80.8773117  82.0185776  17.0447350  81.1234055
  76.4015656  51.2301407  11.7124720  75.7173080  50.6246109  11.9977102
  75.9624100  52.0788383  11.6569233  61.1011925  57.9989014  70.9040451
  60.5739632  58.7843742  71.0499649  60.5504951  57.2798500  71.2137756
   2.1796508  58.6570091  56.0355453   2.9655941  58.2021332  55.7328720
   1.4707701  58.0291519  55.8958549  16.3770790  44.1208229  42.7959366
  15.9746389  43.6459999  42.0687408  17.0278053  43.5133476  43.1477356
  55.7875633  15.2813931  76.6684875  56.6840591  14.9523554  76.6032257
  55.4440575  14.8835611  77.4684677  77.0282745  43.6052666  42.9256897
  76.9831848  44.4437828  42.4662437  76.4156799  43.0406494  42.4543495
  74.2089920  64.1504974  42.1027374  74.2350388  63.1967239  42.0260735
  74.6773300  64.4657898  41.3297653  75.7285767   7.8885875  88.4991531
  75.0153961   7.2573357  88.5947266  75.8285522   8.2708158  89.3710175
  67.4845428  70.9218674   4.8364058  66.8935928  71.3490524   4.2163124
  68.3380203  71.3210983   4.6677895  83.7377014   5.7155719   9.1486254
  84.3763351   5.0485330   9.4005013  84.0101776   5.9894485   8.2728510
  29.1069984  61.8186340  69.8890076  28.6262131  62.0186806  69.0858536
  30.0230141  61.7736931  69.6149216  86.4851379  62.8531990  40.9245758
  85.8591003  63.2011642  40.2895737  86.8266983  63.6269035  41.3728523
  75.0706406  52.2246971  73.5064316  74.2830811  52.0572128  72.9888077
  75.0466003  51.5648346  74.1994247   7.1786876  33.5788078  13.9751596
   6.9436135  34.4450951  14.3076010   7.8196487  33.7526245  13.2858210
  12.4132595  58.1243782  85.7590179  12.6003389  58.2939301  84.8357162
  12.9185562  57.3380241  85.9653015  73.2751083  28.2798214  81.1886978
  74.0559082  28.2784271  81.7423859  72.5542221  28.4614220  81.7916718
  82.3787308  22.8755608   3.6149266  81.5193634  23.0177689   3.2180688
  82.5409546  21.9385643   3.5055854   6.6999750  27.6746998  56.9906807
   5.8593554  27.3707218  57.3330078   7.3341250  27.4370251  57.6671410
  60.1681938   3.0576715  33.6225586  59.3365593   2.6073787  33.7703819
  60.7012825   2.4244492  33.1418571  51.1103439  57.7613335   7.3588820
  50.8002052  58.6128540   7.0507278  51.4722443  57.3414993   6.5784993
   5.8000293   2.2413485  48.1531410   6.1035919   1.3456323  48.0055809
   6.5942674   2.7737591  48.1089058  15.1856842  60.9676704  72.7760925
  15.6330118  60.1697884  72.4941177  14.6065826  61.1881676  72.0465317
   2.4330318  28.0171776  37.6771126   2.7729754  28.7509880  38.1891594
   3.2105262  27.6143227  37.2905350  68.0718536  57.1310501  82.4589157
  68.9300003  56.7378769  82.6177597  67.5623550  56.4346886  82.0445175
  42.6736641  68.3280029  58.0734901  42.0774879  67.6673737  57.7208176
  43.3003006  67.8295364  58.5979805  10.0919886  58.9691048   2.2382004
  10.4273968  59.3335075   3.0573118  10.2528076  58.0283241   2.3109908
  38.4773102  41.7697868  37.8152962  37.9239235  42.1181793  38.5143089
  39.3717003  41.9000359  38.1304626   0.8660407  68.3815308  62.7413330
   0.2131574  67.7188568  62.5158691   0.4975040  68.8320389  63.5012360
  58.1994095  41.3208008  36.8192978  58.5841141  42.1055679  37.2096558
  57.3659744  41.2096748  37.2767601   2.5924542  51.6143723  66.9612274
   2.1976676  50.7727089  66.7332382   3.1322269  51.8388901  66.2032928
  31.7014122  44.4907379  66.8342209  32.2850952  44.9679947  67.4239426
  30.9592915  45.0807686  66.7024765   4.5093436  12.0442829  59.6898499
   4.5486784  11.3783274  59.0034218   3.8589423  12.6728945  59.3767090
  41.7999306  41.7896881  79.7211227  42.6076126  41.9401283  79.2299576
  42.0555954  41.1948128  80.4261017   0.4693228  55.0007668   8.9576502
   0.1033597  54.3297424   9.5338697   0.4212936  55.8081741   9.4695253
  18.3364658  49.0364647  10.0397224  19.2323551  49.3394852   9.8920965
  18.4215660  48.0921021  10.1707315  46.9354019  18.3772812  86.2154922
  47.6398888  17.8974113  86.6509781  46.4661064  18.8121738  86.9274292
  52.5774117  23.7081566  11.4511852  52.1048126  24.3309937  10.8989582
  53.1706963  23.2574463  10.8502636   0.5181396   9.5019703  77.0389709
   0.4477109  10.4565525  77.0456314   0.6700919   9.2666264  77.9542618
  10.3418589  31.7948666   1.5701686  10.6320000  31.7767544   0.6581807
  10.1593494  30.8793411   1.7816733  65.6450119  55.6596756   4.3300247
  65.9630737  54.8272362   4.6794753  66.3569412  56.2772827   4.4971943
  81.3690643  23.4187431  20.6318417  81.4824829  23.2563915  19.6953545
  80.4793243  23.1204643  20.8206024  68.0797729  62.2594032  54.8277512
  68.9197006  62.3822174  55.2700958  68.3133240  62.0637627  53.9203300
  70.7707520   8.5550756  50.9319344  71.2840424   7.8335710  50.5683365
  71.1152267   8.6716919  51.8173561  56.0168915  30.9540195   0.5551005
  55.0910225  30.9566479   0.3122103  56.1290359  31.7465153   1.0800837
  32.5779991  11.5143776  71.5367813  32.0037766  11.0109758  70.9596481
  33.3967056  11.5966158  71.0477142   1.4857500  38.9310379  10.4547472
   1.5121720  38.4763565  11.2966499   1.8628813  39.7920265  10.6355867
  75.7304611  17.3674412  65.5018539  75.8797607  16.5061665  65.1118011
  76.1809616  17.9766350  64.9169083  48.6753273  59.9122887  55.8682823
  48.4912109  60.7490921  55.4415550  49.1828995  60.1462708  56.6453629
   5.0495296  39.4102936  45.1423569   4.8502674  38.5895424  45.5927925
   4.2169738  39.8822975  45.1251221  37.1204262  60.0090370  62.5875282
  37.8158455  59.6208954  63.1185379  36.3890419  59.3965302  62.6659088
  74.9921341  54.6848755  41.7898254  74.5308151  55.4351044  41.4148941
  75.8557205  54.7042198  41.3774338  84.9838715  27.1907425  13.9982996
  85.7534866  27.7192917  13.7872086  84.4156570  27.7816925  14.4924126
  66.8470993  24.8778687  84.5775375  66.6262283  24.1966915  85.2127151
  67.4446487  24.4492950  83.9647675  16.4128819  71.2634964  20.5869102
  16.3539028  72.1821518  20.3245621  15.9328499  71.2192764  21.4138584
  51.5543900  19.3864079  52.7518158  51.7416115  18.4695911  52.9533768
  50.6781273  19.5356083  53.1069794  18.5816231  15.4856777   6.0428414
  19.3018093  16.0820351   5.8380928  17.9364586  16.0337582   6.4896097
  71.6996231  36.3996849  35.5597725  71.6051178  36.8695145  34.7311859
  70.9531021  36.6878700  36.0850182  67.3014832  13.4064417  70.4238815
  67.1003571  12.4706125  70.4222107  67.3952026  13.6296320  71.3499603
  54.1307678  37.5067406  26.3791637  55.0508690  37.5567436  26.6382885
  53.9729195  38.3191032  25.8981419  16.3724823  40.4043312  17.4522305
  16.4194069  41.3046341  17.1305389  16.4516201  39.8645325  16.6657295
  69.2620621  71.2325058  19.2641068  70.1077423  71.5207443  18.9206371
  68.8200607  70.8380280  18.5122719  10.2754498  41.1884079  17.4719086
  11.2128944  41.0655060  17.3224945  10.2209435  41.9706039  18.0209332
  85.5329514  70.3354721  34.9877396  86.0845337  71.0643616  34.7036438
  86.1460571  69.7029572  35.3622589  37.9922600  45.0306206  80.2883377
  37.2334900  44.7374687  79.7837982  38.6069069  44.2981758  80.2439499
  14.5668163  43.6905670  60.3863297  14.0557823  44.4638405  60.1473198
  14.2249327  43.4327545  61.2424126  38.4213448  26.6573830  87.5201035
  37.7990608  26.1017590  87.0507660  38.6345482  27.3548622  86.9001846
  44.1512108  51.3795204   0.7049612  44.8520622  50.9828606   1.2223580
  43.9900284  50.7527542  -0.0003164  31.5208263   2.7954621  69.8159714
  31.4604549   3.7385626  69.9681168  30.7613773   2.4304860  70.2701340
  18.5211201  41.5864944  75.6155090  19.1928749  40.9545326  75.8716431
  18.9437065  42.4393997  75.7165146  16.0571213  48.7160378  72.9290237
  16.2897758  48.9318466  72.0259552  16.8956985  48.6723709  73.3884964
  60.1085968  60.2597313  75.9284897  60.8569527  59.6949196  75.7356644
  60.0481606  60.2594337  76.8837814  37.0939255  50.1319962   8.3775139
  37.5492325  50.0807533   9.2179317  37.6841278  50.6341209   7.8155870
  17.7375450  37.5947037   7.9819865  17.6709442  36.6609573   7.7822013
  16.8313065  37.9026985   7.9921393  14.5422459  53.3130608  64.1373596
  14.4698038  54.2472572  64.3329620  13.6380882  52.9989128  64.1307831
  63.4165077  37.4107857  84.3193665  63.8407707  38.2640343  84.4099045
  62.4988861  37.5753288  84.5364609  42.9196815  21.1817989  13.1385288
  43.0705872  21.1598797  14.0835047  43.7780151  21.0024719  12.7546873
  66.6429825  44.0897751  33.3074760  66.4456940  43.5503731  32.5417366
  65.8773804  44.6559181  33.4053230  62.7000732  30.8368835  15.0131025
  63.2176323  30.2835236  15.5980473  62.7157326  30.3780041  14.1732121
   5.5992260  54.0171661  84.1084976   5.7227907  54.0848656  85.0552750
   6.2535067  54.6098747  83.7385788  16.4175434  42.7663651   1.4000421
  17.1556301  42.2875404   1.0229652  16.5068016  42.6389694   2.3445184
  23.0387478  56.9287567  77.7836533  23.1400604  56.4541473  78.6087112
  22.2404289  57.4438782  77.9001312   1.4331400   4.0079670  11.1058569
   2.0425305   3.5982118  10.4918737   1.8514122   3.9081323  11.9610262
  58.7441597  12.1637049  53.1055717  57.8025742  12.3336029  53.1335449
  58.9041328  11.8472729  52.2164650   0.4166755  33.2041969   4.2307320
  -0.0951759  33.3706932   5.0222611   1.2353451  33.6801300   4.3703799
  61.5477676  43.3253365  75.6434021  62.2263489  43.9331627  75.3496246
  61.9810982  42.7828636  76.3023300  60.8944511  47.2715263  73.4286728
  61.3360214  48.0105667  73.8470840  60.8938980  47.4893379  72.4965897
  56.7653885  33.6195259  68.7601471  57.0826988  34.5067101  68.9288406
  57.1572037  33.0890617  69.4539185  22.3019714  18.6815815  67.9656296
  21.7112255  17.9955254  68.2764053  22.4212742  18.4915161  67.0351105
  85.2818909  53.0143852  23.9810867  85.8430481  53.4691200  23.3529606
  85.8693848  52.4078140  24.4318104  37.3190346  29.6112900  86.0110626
  37.9859352  29.7860298  86.6750946  37.7399483  29.0035706  85.4029922
  51.8193359  27.3499680  17.7732430  51.4290695  28.1829662  17.5085945
  51.4654732  27.1867180  18.6475201  69.0171738  70.4925613  87.1601562
  69.8195114  70.1866302  87.5830994  69.1846085  71.4151688  86.9678116
  63.6007309  45.3596306   5.0316472  64.3634033  45.8899651   4.8007698
  63.1724091  45.8490524   5.7339573  36.3377533   4.4237137  89.3531265
  36.1601753   4.6473117  88.4395065  36.8855934   5.1404972  89.6730042
  66.3836288  35.9351120  66.4926682  67.0515823  35.2765465  66.6833420
  66.5964813  36.6668282  67.0719070  35.9500465  32.4189034  83.1965103
  35.5033379  32.1058846  83.9830856  36.0809021  33.3543472  83.3516159
  53.0195770  66.7925491  42.2450867  52.1761627  66.3545151  42.1310349
  52.8623276  67.4396896  42.9326324  48.9589958  71.3992386  35.5481415
  49.6184006  72.0503998  35.3085365  49.4085274  70.5589371  35.4584503
  63.2282143  14.4693365  72.8694077  63.7763405  14.7193222  72.1255722
  63.8464279  14.3329763  73.5873566  85.4718628  56.2621460  20.1285515
  86.2094727  56.6744347  20.5781994  84.6967239  56.6525192  20.5322895
  13.9878798  50.4379463  51.3890800  13.9934177  50.4063339  52.3457451
  13.0610800  50.3962593  51.1534233   0.5771985  36.2431259   2.2976027
   0.6938982  35.4653435   2.8431952   0.9106051  36.9633141   2.8327646
  72.8749466  25.5289612   6.3947477  72.3110123  25.1049309   7.0415878
  73.2536697  26.2750854   6.8596148  49.0485611  46.6386452  15.2410622
  48.4848175  46.7470512  16.0070076  49.5410805  45.8371086  15.4176903
  43.7294464  38.7966003  64.1057434  43.1815758  39.5814743  64.1121521
  43.1278610  38.0863991  63.8822632  61.6350937  70.2563248  68.5965118
  62.3765488  69.6531982  68.5444183  61.7595901  70.8532257  67.8586426
   6.2571697   2.4833131  64.8994446   6.4345021   3.4038789  65.0926895
   7.1215410   2.0728042  64.8754349  75.8049393   8.6812744  25.4276638
  75.2188416   8.6725025  26.1843948  76.4490967   9.3593321  25.6314678
  83.5913544  39.7081108  55.3035011  84.0839310  40.2555428  55.9149895
  82.6736526  39.9037285  55.4926834  23.2601814  26.3493900  13.1625109
  22.7830467  25.5204048  13.1256580  24.0767689  26.1358757  13.6139841
  64.2457352  48.1189728  83.4111176  65.1011887  48.3693390  83.0621872
  64.0179977  47.3196602  82.9362869  62.6393471  60.7555466  54.3557472
  62.2492447  60.6277885  53.4910316  62.5612030  59.9021683  54.7822113
  66.4750748  67.8797760  28.2898693  65.9058228  67.1305466  28.1142597
  66.3020020  68.4860764  27.5696735  53.2835159  59.1085129  46.0080147
  53.5582695  59.3621597  45.1268768  54.1004982  59.0316696  46.5008316
  27.1908607  17.8867874  87.9504547  26.6986217  17.8888073  88.7713852
  26.5488472  18.1358700  87.2856140  45.6294365   2.7550275   7.0561223
  46.1689110   2.5038719   6.3063765  44.7343445   2.7577233   6.7169476
  49.0477943  50.9228859  69.3770981  48.6895561  51.1140594  70.2439041
  48.3821945  51.2412605  68.7673111  56.3533440  53.4558220  35.2321739
  57.1184464  54.0030479  35.4093552  56.7104683  52.5755119  35.1149406
   5.5988193  14.4126606  65.5769806   5.9770498  14.1622887  66.4198837
   4.8249969  14.9277658  65.8052292  65.5642700  14.5425539  82.8288345
  65.2648849  14.3980007  83.7264404  64.8360596  14.2462311  82.2828140
  35.7528725  49.3287849  67.3926239  36.4115334  48.6437225  67.5070343
  36.2594872  50.1366730  67.3096161   6.5911660  41.1669312   2.4569609
   6.4557343  40.9306412   1.5393244   7.4506493  40.8052521   2.6730824
   9.9379206  49.8345032  76.9300079   9.8130140  48.9628906  77.3053970
  10.7795458  49.7818604  76.4770966  56.2064095  16.8899460  83.3917084
  56.5021362  16.4424896  82.5988922  55.3296127  17.2069149  83.1749420
  80.0035324  58.2780380   2.1096194  79.8379745  57.3507652   2.2798946
  79.5219574  58.7375717   2.7974751  82.7630692  67.8276520  79.9149780
  81.8357239  67.6025848  79.9898529  83.0482178  67.4023132  79.1062698
  56.4373283  24.5295277  30.2902508  57.0421333  24.2823830  29.5907059
  56.8625793  25.2690887  30.7243557  86.6291885  60.9633980  17.0423603
  86.1063614  60.7907639  17.8253536  87.4361801  61.3562431  17.3750267
  47.6201248   4.0686536  48.7270088  48.4963493   4.4477973  48.7956734
  47.0784454   4.6122017  49.2991714  86.6129303  17.5462036  48.2671394
  86.0615845  18.2023926  47.8409157  85.9945068  16.9633827  48.7077141
  54.2078056  60.8151665  13.7651014  53.5925102  60.0928612  13.6389399
  54.3004417  61.2054558  12.8960066  18.2328491  24.9715538  12.9171076
  17.9169388  25.8712864  13.0002584  17.4644222  24.4302216  13.0979748
  82.0449219  46.4393349   0.6558126  82.3669281  46.0456810   1.4667237
  81.7007904  47.2915001   0.9234284  59.3843117  68.5284195   7.6742482
  59.4986954  67.5837860   7.5702677  60.2592392  68.8920364   7.5381660
  28.6122456  63.8977470  49.1982841  28.5964317  63.7383194  50.1419792
  29.3907280  63.4338760  48.8900261   1.5224649  28.7012768  77.7552719
   1.6504045  27.7530613  77.7278748   2.2011704  29.0513096  77.1781540
  53.5565338  12.4944477  42.7423019  53.2645226  12.9523306  41.9540710
  53.8063850  11.6232080  42.4344902   1.1110808  32.1587257  36.5873604
   2.0029020  32.3280602  36.2836914   0.5619684  32.7257004  36.0458336
  48.2984924   6.4162078   1.7194871  48.8737068   7.1261954   1.4343926
  48.2439766   6.5189819   2.6695907   5.9270458  50.8681107  65.8146820
   5.3559723  50.1002769  65.7915344   6.5407104  50.6888084  66.5270691
  52.1383209  29.2056160  28.4623871  53.0243607  29.2449970  28.8223991
  51.5901985  29.6190815  29.1293526  53.7643738  49.1796761  82.8299561
  54.1194687  49.2506981  81.9439011  53.8589592  50.0586090  83.1970596
   5.2918439  18.0876255  32.1606789   5.9384818  17.3825111  32.1907692
   4.7841244  17.9814835  32.9651566   9.2048817   8.6997099  76.2230225
   9.3447609   7.7529120  76.2385178   9.4529505   8.9640064  75.3371124
  33.8365974  57.4389534  58.6589394  34.7556610  57.5030403  58.3992462
  33.3869019  57.1275406  57.8734283  78.2385788  40.6036148  12.2660227
  78.8022919  40.8867035  11.5460787  78.6847534  40.9115448  13.0549040
  85.6375275  46.4166298  70.4199066  85.4414749  46.5233269  71.3507156
  84.7967224  46.5473557  69.9815216  28.2472210   0.3155898  27.6936169
  29.0010834  -0.1705290  27.3595314  28.4474812   0.4624517  28.6180420
  56.4039955  28.3785877  70.0954590  56.2683296  29.2805157  69.8050156
  57.1937752  28.0949211  69.6350098  67.2976685  38.4996147  73.1499023
  67.9823914  38.3931313  73.8102417  67.7103500  38.2260857  72.3306885
  60.7704887  68.4549637  41.8030396  61.6664200  68.1180267  41.8066483
  60.2556763  67.7710724  42.2313995   4.4645128  43.5804710  72.8816833
   4.8812790  44.4289551  73.0320740   5.1929135  42.9816589  72.7171021
  35.7809486  55.1807213  25.2643795  36.0710144  54.3060493  25.5233097
  36.4957504  55.5205078  24.7260151  55.8330688  37.4286652  87.2525253
  55.6479301  36.4897041  87.2349701  55.7309532  37.7099609  86.3433075
  38.9440842   1.9887356  43.6530228  39.3004608   2.6853230  43.1016655
  38.8446999   1.2425206  43.0618210  27.7379303  57.2226028  13.9953327
  27.0244617  57.8113365  14.2414742  28.4692593  57.8051605  13.7903547
  45.4474144  20.9300117  73.3905640  46.0956764  20.9185486  72.6863937
  45.9652672  21.0102863  74.1915741  70.0692291  14.2074900  64.4741821
  69.9581223  15.1521683  64.3670883  69.6846848  13.8298922  63.6831245
  59.6281166   7.9585829  62.5463219  59.8668976   7.9564705  61.6193848
  59.2501183   8.8254471  62.6943054  59.2701454  42.0014877  80.8348770
  58.5149231  41.9187584  81.4171371  58.9507713  42.5273476  80.1016006
  83.5546494   8.8740931  20.0265274  83.9716187   9.7216005  19.8712730
  82.8630981   8.8229465  19.3667049  23.4508991  61.2413940  68.4260712
  23.7145710  61.5840721  67.5720901  23.4461231  60.2910614  68.3117142
  11.2411785   8.1820717  62.8651695  10.3859062   7.9683566  62.4922523
  11.3674841   7.5363126  63.5603485  71.4332886  71.0518646  26.1276913
  71.3477325  70.5992737  26.9667797  72.2552261  70.7249451  25.7619381
  46.0980682  64.0109406  58.7791595  45.4454803  63.3115997  58.8149147
  46.6842461  63.7553635  58.0669060  30.9039078  36.7440758  76.9348831
  30.7157383  36.8362350  77.8688660  31.0865803  35.8117409  76.8182144
   6.4202824  57.3253708  31.0049934   6.4560499  56.9387932  31.8799267
   5.4909887  57.5025864  30.8592510  14.3200092  47.4511223  69.8386841
  14.4884586  46.5841904  69.4695282  14.1278915  48.0015259  69.0794907
  59.4413910  12.2502937  24.1156902  60.1973534  12.6556168  23.6908817
  59.0463486  12.9568510  24.6265240  69.2191238  39.4544983  30.7039871
  69.2510300  40.1316566  31.3797626  68.2851562  39.2917404  30.5719223
  15.5299301  58.9218025  29.9558220  15.6703911  58.3481216  29.2025681
  14.9672232  58.4149857  30.5412502  36.5944710  40.8470917   6.9588113
  36.2966728  41.2499466   6.1431775  35.8007202  40.7598763   7.4866228
  38.1603622   1.4824773  46.3827095  38.4041023   1.5157877  45.4576607
  37.7352333   2.3238463  46.5488243  23.2671871   4.3965597   8.4119444
  23.5134888   3.6875815   7.8178773  22.3914642   4.1597815   8.7173615
  23.0750637  28.7990723  52.2591591  22.7533512  29.5456924  51.7538986
  23.1089611  29.1171436  53.1613312  41.2130775  34.8533859  10.5404100
  42.0656776  34.6533127  10.9267721  41.3876114  34.9319000   9.6025372
  75.7828598  20.9527092  10.6923199  76.5838089  21.4129086  10.9431734
  75.9112396  20.0585384  11.0088797   9.7441225   6.4689102  66.8460922
   9.7592049   7.4206629  66.7452393   9.6502752   6.3293681  67.7884064
  42.6608238  56.2623672   0.1132765  42.2754059  56.7246895  -0.6309975
  42.1552887  56.5616341   0.8689926  76.2050552  45.1854744  33.2836914
  75.9126968  44.9865074  34.1731644  75.9239197  44.4317589  32.7649345
  74.4226456  43.1958046  78.7684402  75.1824265  43.1243248  78.1906357
  74.3445053  44.1330414  78.9465179  67.7365189  11.5714960  16.7521553
  68.1581039  11.2418318  17.5457687  67.1823883  10.8487883  16.4574280
  31.3305035  57.9323845  20.5758419  31.4170475  57.9697456  19.6232948
  32.1577988  58.2833481  20.9054527  67.8676758  37.3214798  76.0831223
  68.3607941  38.1413231  76.1135178  68.4835434  36.6597404  76.3978348
  78.1776505  45.2352409  10.5583000  77.6874084  44.7993698  11.2553778
  78.8220291  44.5859070  10.2765741   6.4608560  59.9146957   8.6694374
   6.5325384  59.1012039   9.1687574   5.6546154  60.3208122   8.9876795
  66.9789429  28.8778419  83.6268845  67.0156784  29.8025455  83.8714371
  66.2836685  28.5127888  84.1742172  23.5281887  34.9452209  87.3633728
  23.1367893  35.6504669  87.8787994  23.1710091  35.0650177  86.4834290
   8.8692484  27.9184132   7.8371305   8.2119532  28.5178719   7.4837971
   8.5656481  27.0490570   7.5758266  22.1306381  53.1481285   3.3243806
  21.7611370  52.7461777   4.1105981  22.5829983  53.9286308   3.6444068
   2.2453284  41.0364685  57.9964409   3.0500984  41.1340179  57.4874573
   2.2454529  40.1195946  58.2713470  57.2435379  48.3318558  62.9324722
  56.4686813  47.9721107  62.5007172  57.8320045  47.5833702  63.0310135
  65.2021484  39.5696373  64.8715210  64.3342056  39.9674950  64.9394989
  65.3595657  39.1891708  65.7356415  77.7860794  48.6982994  51.9238853
  78.5742340  48.1794357  51.7631912  77.2136459  48.1159477  52.4232979
  19.7371464  46.3787651  78.0709457  18.9983921  45.7701836  78.0609207
  19.3677540  47.1984711  78.3993683  78.6065979  28.6124382  58.1154633
  79.0503540  27.7989769  57.8754768  78.1008453  28.3879452  58.8965187
   6.3510079  18.8310356  58.3679733   6.4666481  19.5286942  57.7228889
   6.4671988  19.2647934  59.2133064  51.5105705  20.9026184  81.7520218
  51.1606102  20.7363663  82.6273041  51.8957062  21.7769890  81.8101654
  29.8132496   5.7540946  20.2335491  30.4141960   6.4761662  20.0499554
  29.2566471   5.7022619  19.4565430  48.5611649  63.2211456  36.7659569
  49.4926834  63.1645851  36.5531044  48.1690559  62.4658661  36.3277435
  50.1424713  51.0783501  33.2600937  50.3479919  50.4549294  33.9567528
  50.0716133  51.9219437  33.7068176  55.8533516  50.5302010  51.0923576
  56.1236343  49.6496315  51.3526993  55.1194916  50.3885040  50.4943542
  54.7446022  34.8854332  17.3120155  55.2813034  35.4826546  16.7909489
  53.8434944  35.1041183  17.0744972  44.0789604  40.1605072  60.4539528
  43.5444794  40.7946014  60.9319534  44.2150307  39.4452324  61.0753212
  40.9482460  30.0199280   6.6418767  40.3711166  29.9725952   7.4040527
  41.4393921  29.1985855   6.6619749  67.4398193  69.5855789  78.9252472
  68.1111908  68.9545593  78.6658249  67.3150940  69.4312286  79.8616486
   2.8762271  13.7550163  53.1171188   2.9401729  13.3780851  52.2395859
   3.6739955  13.4664726  53.5604477   3.6559515  28.8839283  16.1876068
   4.4779215  28.4666653  16.4454632   3.8572562  29.3174133  15.3582697
  52.6821365  26.9102688  55.3714180  52.7778358  26.8201122  56.3195457
  52.4687119  26.0281258  55.0672722  77.5588913   0.7127825  56.6100616
  77.0719833   1.1955636  57.2779465  77.7791672  -0.1192837  57.0288429
  34.8694000  63.9721260   2.9570487  35.1908188  64.8708420   3.0293353
  34.2236633  63.8915138   3.6590154   6.1859660  34.5516548  48.3243408
   7.0725660  34.2239342  48.4752426   6.2211385  34.9448395  47.4523315
  82.5081787  18.9277153  69.8570786  83.4347305  18.6898079  69.8233185
  82.4548111  19.5850945  70.5507889  65.2934723   7.1194592  70.8623352
  65.7500916   7.3877206  70.0649872  64.4192047   7.4997606  70.7771454
  80.0395966  21.4401817  80.2276001  79.2427139  21.7924633  80.6239548
  80.3670349  22.1506615  79.6760254  56.6803169  60.2368851   0.7697129
  55.8697662  59.8181915   0.4800023  56.3907356  60.9611626   1.3245068
  14.4443550  47.6473846  10.3409061  15.1758308  47.3807793  10.8977709
  14.7992086  47.6246529   9.4522028  73.5489349  50.7573051   9.3349829
  72.6056213  50.7770271   9.1737347  73.8637695  50.0117645   8.8238211
  72.2342377  39.2434845  38.8675880  72.6113892  39.1386948  37.9940834
  72.4636841  38.4351730  39.3260841  28.2550735   0.5341384   7.6366415
  28.3914795  -0.3283484   7.2445421  27.3711071   0.7829269   7.3665709
   4.7996836  25.9451694   0.9663088   4.5257554  25.0409412   1.1198220
   5.7499151  25.9302559   1.0806307  40.4928131  39.2876701  64.5011673
  40.2046623  38.4317360  64.1840286  39.8029060  39.8904953  64.2239380
  15.7910662  61.9966011  18.8960342  14.8380804  62.0821114  18.8688564
  16.1099091  62.8953094  18.9790783  46.4797745  55.2659378  67.3403320
  45.6730804  54.8819695  66.9967651  46.2010994  56.0886269  67.7425232
   1.1752245  67.8836212  56.7911530   0.3143703  67.8318481  56.3758469
   1.6004127  67.0564041  56.5649719  83.0870132  54.0370064  54.5059853
  82.5799103  53.3125343  54.1396255  83.0409546  54.7226562  53.8396568
  63.4050331   1.6288922  24.4361401  63.5793839   1.4118279  23.5203247
  64.2615814   1.5815171  24.8607693  16.8872509  38.0058250  18.6594296
  17.4357471  38.0293007  19.4435406  16.4873848  38.8746452  18.6207504
  82.0109177  46.4488411  76.4138641  82.4017410  47.3204231  76.3519821
  81.1653671  46.5336723  75.9733276  28.8983803  57.4939651  53.9617119
  28.8146839  56.7988930  54.6144753  29.7824860  57.3876076  53.6106033
  81.5317917  19.0064716  87.9503937  81.6888123  18.6441650  88.8223572
  81.2472000  18.2570477  87.4273300  79.4972687  59.8464928  77.8911743
  79.3282547  60.0174141  78.8177032  78.6315231  59.8609619  77.4831314
  71.5864029  33.5529251  53.3113556  72.4613037  33.2313805  53.5290718
  70.9915237  32.9334373  53.7339478  14.3615093  41.9114037  83.3448715
  15.2175274  41.5114441  83.1915894  13.8322210  41.6390915  82.5952530
  49.8793335   6.1484327  34.6895142  49.1135025   5.5871396  34.5683327
  50.3099861   6.1538539  33.8346786  55.9312019   5.9684033  50.7186775
  55.1277924   6.4184041  50.9799538  56.4817696   6.6576362  50.3471107
  42.8700142  66.3311234  37.9348831  42.6825371  67.2590103  37.7930527
  43.5438499  66.3241043  38.6146851  64.7454300  25.2148895  80.6183548
  65.0187149  26.0608978  80.9730530  65.2275467  24.5707531  81.1368942
   7.7715321  22.8089638  64.8285446   8.0205202  23.7284374  64.9223862
   8.6030827  22.3437748  64.7371368  15.7336607   2.0400748  33.7945976
  15.0658178   1.9084755  34.4675751  15.9494810   1.1568267  33.4953880
  12.9006329   8.8042660  30.4969273  12.5863018   7.9086933  30.3729210
  12.1491461   9.2739153  30.8587704  55.4364090  10.0636282  52.1601067
  55.9884605   9.5013189  52.7035027  54.6749420   9.5223656  51.9516983
  73.8090439  69.7170334  63.4545860  73.4219742  68.8952026  63.1529198
  73.5311127  69.7918015  64.3674927  72.0334320   4.8269863  55.3762741
  72.2219238   5.7540703  55.5219421  72.8613586   4.4600883  55.0661736
  24.9216461  53.7708626  30.0626411  24.4826126  54.4422264  29.5403843
  24.9524555  54.1370697  30.9464817  61.9166985  48.5369377   2.7303123
  61.5787544  49.3833389   2.4376857  61.2179413  48.1756363   3.2756879
  62.5060921  57.5669174  68.4720459  63.0392075  58.3594208  68.4091644
  61.9368515  57.7203903  69.2261276  17.4365463   1.6011204  11.9323750
  16.7394714   2.1289790  12.3218403  17.3959179   1.8028706  10.9975605
  61.6478233  33.9540596  21.2723503  61.8340492  33.6717491  20.3768883
  60.9121246  33.4071541  21.5477982  51.1839523  29.0574837  22.5406017
  51.9670105  29.5977592  22.6462345  50.6471367  29.2614574  23.3064041
  68.4527740  44.0954971  62.2382698  67.8342743  44.7128448  61.8476677
  67.9660034  43.2733765  62.2966270   3.8438272  46.0066376  22.3707981
   4.0692334  45.7075882  23.2517033   3.7143679  45.2011070  21.8702049
  46.2158203  17.5385761   1.3031187  46.1592712  16.9395313   0.5586864
  46.8152161  17.1075802   1.9123772   4.9360614  16.1482735  27.1632061
   4.6690788  16.6538658  27.9308834   4.5190392  15.2948627  27.2815895
  10.2873917  26.6816750  89.1359329   9.7190666  26.8968220  88.3963776
  10.1051188  25.7597580  89.3178024  33.2307510  53.0359383  81.4146576
  33.0614281  52.2780495  80.8550415  32.8258896  52.8104553  82.2521973
  33.2983627  12.2491026  87.9483261  32.8146820  11.6954050  87.3353806
  33.6014023  11.6465492  88.6275406  24.4574471  71.5176315   8.2215366
  24.7848835  71.5003738   9.1208258  23.8397160  70.7877655   8.1775188
  15.9786549  13.7398109  59.6125412  16.5832615  14.1806107  60.2095184
  15.9835768  14.2816162  58.8234558  -0.0124060  68.1121216  42.9019814
   0.6716903  68.2757645  43.5511856   0.3118960  68.5268555  42.1025696
  12.0846510  64.2777023  77.9987793  11.7799721  63.5730171  78.5704575
  12.6410294  63.8398819  77.3545837  40.2075768  26.9979687  83.1418076
  40.6478348  26.1626511  83.2988129  40.4145660  27.2104664  82.2317352
  52.2365608  43.4418831  37.8873215  52.3174210  43.4711761  36.9339943
  53.1156921  43.2220917  38.1956215  63.5499420  24.9637852   7.0981011
  63.9251175  24.1437054   7.4189520  63.1262398  24.7267551   6.2731633
  37.1960564  51.1539803  65.4969330  36.3445282  50.9654427  65.1024857
  37.7446022  51.4292259  64.7623749  61.4985085  40.8370743  88.3276443
  61.3531075  39.9294243  88.0606995  60.9731255  40.9404755  89.1210632
  67.2692032  70.0711060  89.4557114  67.4297638  70.7203674  88.7709427
  66.3974228  69.7275085  89.2603302  73.1966095  26.1557140  52.2471924
  72.9022064  25.6912117  51.4637413  73.5740509  25.4734898  52.8024712
  70.3531876  58.4223022  46.8771782  71.1499710  58.4113846  46.3468437
  69.6938782  58.8230591  46.3106651  69.9517899  18.3465481  85.1447525
  69.8266983  18.6220512  84.2366333  70.8366318  18.6385365  85.3639069
  24.7697906   4.4625292  62.9400177  25.6599464   4.4373918  62.5889854
  24.4551563   3.5620878  62.8597488  70.0367889  21.4236755  71.0068283
  70.0802536  20.4993820  70.7618332  70.7904510  21.5546474  71.5822144
  68.4778061  47.7441025  34.6172562  67.9081802  48.5057297  34.7253265
  69.1271057  47.8296547  35.3153419  11.9778328  48.9443893  88.7554932
  12.5525103  48.5767250  89.4269104  12.5450249  49.5222435  88.2449951
  68.8594742   8.3303690   0.6365736  68.4135056   8.6214771   1.4319359
  68.5478363   7.4355149   0.5011117  17.8805733   2.9729407  49.9178314
  18.5298538   2.7744339  50.5925636  17.3876019   3.7138255  50.2703934
   8.7425613  49.8840752  50.9347839   7.8874536  49.9230042  50.5064049
   8.6443806  49.2072067  51.6044388  79.9100342  15.4058056  24.5503922
  80.1900711  16.2856979  24.8025761  80.7254410  14.9149027  24.4486141
  86.3528671  12.0284271  62.2832222  86.0818710  11.1240225  62.4408455
  85.6035004  12.5549612  62.5615044  61.1578636  48.1274376  14.5341902
  61.4251785  47.8126488  13.6706619  60.7460861  47.3692055  14.9486170
  77.6160583  41.7408943  79.5552139  78.0303955  42.4485703  80.0489197
  77.1367493  41.2381134  80.2137756  29.5063572   3.6137402  47.7960434
  30.2008495   3.6998334  48.4491119  29.9701881   3.4840221  46.9688416
  86.0827942  41.6049004   5.0870371  85.8684845  40.7688408   4.6731386
  85.5535126  42.2481880   4.6155758  57.3182678  46.2264175  40.2665329
  57.4566803  45.2872696  40.3893166  56.7618523  46.4846001  41.0013657
  35.6573982  64.2945480  45.8670883  35.3750191  64.3543854  44.9544487
  36.5956650  64.4820862  45.8402824   2.9773474  65.6334000  73.4259872
   2.7555723  66.5085144  73.7441254   3.4588816  65.2307434  74.1486359
  70.9107971   3.8730466  82.3814621  70.6630554   2.9493315  82.4215393
  71.5863953   3.9106727  81.7044220   8.7753716  62.6194077  32.8111267
   8.7405977  62.4847946  31.8640766   9.4095898  61.9732628  33.1217613
  42.9925880   2.0170438  84.1044769  43.3973961   2.8832929  84.1489334
  43.2793159   1.6615671  83.2632523  62.5917587  69.2647705   9.3570471
  61.9586296  69.3364792  10.0713577  63.2450066  69.9379883   9.5475101
  44.1988487  45.4447060  23.6649761  43.5186806  45.1284599  24.2596092
  44.9868546  45.4926071  24.2062550   1.1892401  53.4241676  23.0838528
   1.6773462  53.5069542  23.9030781   1.4017501  52.5466232  22.7660637
  61.1493187  19.2827721  64.3263550  61.8090820  18.9468174  64.9330521
  61.0818710  20.2139645  64.5374680  46.2744484  58.1465378  77.0489426
  46.9155655  57.6688385  76.5226364  45.4517479  57.6781349  76.9075241
  40.8793221  47.0313568  81.2909012  40.7818069  46.2687683  81.8611450
  41.5223732  47.5829163  81.7364273  13.9744358  50.4782448  24.3452702
  14.2028036  49.7823601  23.7289734  14.5081081  51.2245331  24.0723534
  68.7270203  53.2959747  65.1657639  69.1696396  52.9793777  64.3783112
  68.1847687  54.0230141  64.8598022  54.5694580  19.4823761  14.4498272
  54.8706589  18.6254578  14.7518244  53.9469795  19.7669468  15.1189842
   1.5371164  67.3536453   4.7785983   1.9398575  67.9360886   4.1345568
   2.2663698  67.0589981   5.3241282   0.0210482  70.3843613  20.8137074
   0.5812375  70.7624588  20.1358719   0.5491751  69.6846848  21.1981144
  68.8324966  67.0267944   1.6280981  68.5325470  66.3276291   2.2089841
  68.7109833  67.8289108   2.1361170  43.0679703  15.8697758  89.0534058
  43.5036545  15.1746206  89.5465240  43.7285385  16.1711025  88.4296417
  61.0230484  44.9533386  78.5466003  61.8569374  44.5430717  78.3173828
  60.6218491  44.3481979  79.1703568  79.5165634   9.2018518  71.3586349
  79.9565811   8.3564653  71.4477234  78.6406555   8.9835835  71.0402451
   6.7197280  37.6512070  54.8393517   7.4402194  37.6002731  55.4674683
   7.0793958  37.2837181  54.0319977  31.8920593   1.9283004  63.6981430
  32.5759506   1.2650293  63.7908401  31.2838306   1.5574584  63.0587921
  15.1769619  33.1128578  79.0358963  14.4417267  32.5087662  79.1394882
  15.3540363  33.1155510  78.0952225  74.4672470   2.0411630  12.6312895
  74.8823090   2.9019909  12.6854496  75.1834030   1.4209366  12.7679329
   2.2091553  54.5413055   6.9106073   1.8699927  54.8584671   6.0735846
   1.4893492  54.6756821   7.5270920  25.9508190  58.3786392  85.3033218
  25.8664875  57.5047913  85.6847763  26.0175438  58.2232857  84.3611679
  78.6107254   7.1632557  77.0163803  78.2592163   6.6168003  77.7192764
  78.4293289   6.6702409  76.2162170  61.5778236  12.9312077  75.7863083
  61.0519142  12.8497982  74.9906845  62.2742996  13.5443563  75.5513535
  47.4365158  27.8259563  86.4623489  47.5554962  27.3356171  85.6489334
  47.9287262  27.3289814  87.1157837  80.7763367  49.8847542  78.4041901
  81.1894150  50.6244469  77.9587097  79.9084778  49.8194809  78.0057068
  66.2465286  24.9956303  15.8652506  65.7028809  24.2717743  16.1762409
  66.8915863  24.5815735  15.2919416  58.4442291  28.4176044  78.3149338
  59.2431755  28.9379063  78.2300644  58.7509499  27.5477314  78.5708084
  74.9016495  18.3265476  68.9601059  75.6641922  17.9252892  69.3769379
  74.4629898  17.6016502  68.5147552  60.5265007   3.9150794   9.2567806
  60.0586624   3.4329910   9.9386539  61.3458824   3.4336693   9.1423817
  75.6566010  66.2661438   4.3877683  75.4767303  67.1629791   4.1057110
  76.4974442  66.3219223   4.8417473  78.3192902   7.9266329  58.4165955
  78.8610992   8.0729752  59.1920013  77.5753937   8.5184107  58.5290413
  65.4649353  14.5298967  50.7619247  65.8166885  14.0193863  51.4912262
  64.9291382  15.2048950  51.1784973  53.7232323  33.5085335  22.7681026
  53.6249695  32.7646904  23.3624725  54.6493568  33.5011787  22.5262909
  25.3169651  35.3492279   7.9386473  25.8670673  36.0826874   7.6635828
  24.5802383  35.3600578   7.3276253   5.0445757  50.5124474   2.0494797
   5.0906534  51.3577881   1.6028168   5.9377146  50.3540878   2.3551867
  52.1534805  45.0153656  58.6021233  51.3994560  44.5589180  58.2288437
  52.1378746  45.8796349  58.1909904   2.9961433   5.1559620  57.6751747
   2.2539537   5.3131824  58.2588425   3.1754043   4.2197623  57.7625084
  85.6004639   0.7454441  44.2789803  86.4369736   0.6296380  43.8283463
  85.2630386  -0.1434296  44.3898010  73.8765793  34.7713852  85.7673569
  74.5601120  35.3614426  85.4497910  73.5569000  34.3297348  84.9806061
  21.0903778  69.3390579  82.0717239  21.5431480  68.6261673  81.6211472
  21.0122757  69.0387268  82.9772263  53.6477394  41.8646584   8.4620676
  53.2899246  42.1625557   9.2984037  54.4646873  41.4233704   8.6946459
  12.6206179  27.1945953  69.2304001  12.9855471  27.1607227  68.3461456
  11.7115583  26.9139061  69.1252594  62.0679703  69.0906830   6.3253775
  62.6864090  69.6824493   5.8969097  62.4323578  68.9558487   7.2001753
  75.9284286  52.1970825  69.8496475  76.4786453  52.9597816  70.0279236
  75.6940842  51.8631439  70.7155609  59.6579361  62.8587456  86.1701355
  60.0577011  62.5738220  86.9918671  60.1949081  62.4532967  85.4893265
  63.1699486  13.7029705   9.1691046  63.3396645  14.4226637   8.5612640
  63.6335335  12.9557438   8.7909851  74.9148560  13.8912125  18.6208553
  74.1764908  13.3810902  18.9537487  74.6895370  14.7991352  18.8236828
  14.2386436  34.0557289  19.2982960  14.4190941  34.9649353  19.0595226
  14.3251543  33.5708580  18.4775372  78.1739883  55.3382568  10.1696577
  77.6660690  55.7042542  10.8937387  78.9315796  54.9314308  10.5901012
  66.1850586  39.3825302  40.7861786  67.1053314  39.6304131  40.6973495
  65.9542618  39.0096092  39.9353561  58.0921059  12.9417830   3.3056474
  57.3262939  13.0784492   3.8634000  58.8284683  13.2605906   3.8275330
  68.4309158  18.9013405  61.6818657  67.5191803  19.1870613  61.7396202
  68.4059067  17.9725914  61.9121475   1.6210041  22.1487103  47.1891479
   1.3800201  21.7057819  48.0027657   2.0263057  21.4653015  46.6553726
  53.2971344  44.6965599   8.7839260  53.1574745  44.0751801   8.0693502
  52.4296227  44.8160286   9.1704216  45.4067345  65.2634354  15.6576023
  46.3149414  65.5597382  15.7175598  45.3987122  64.4219666  16.1137753
   6.8666654  50.3049850  43.2702522   7.6675568  50.1758690  42.7621841
   6.7148538  49.4615021  43.6965446  25.0929337  64.0823135  80.6481247
  25.2805157  63.5763130  79.8575516  25.5241680  64.9242172  80.5015793
  33.9233971   6.9746332  61.5280571  33.3584938   6.2751722  61.8564949
  33.9063072   7.6394615  62.2164955  22.1904068  47.1491776  12.0453768
  22.9869194  47.3725014  11.5637884  22.0599060  47.8830528  12.6459007
  78.8409119  13.8434057  26.4709530  79.4135361  14.5498714  26.1722240
  79.2717972  13.5007391  27.2539902  13.7948446  59.0260849  15.8146753
  14.6749125  58.7023773  16.0068398  13.3490753  58.2820473  15.4097939
  72.8698730  62.9318085  80.0033875  72.7929459  63.0917664  80.9439850
  72.4376373  62.0886078  79.8676834  23.0522690  41.0679932  71.6738434
  22.2409916  41.5430946  71.4940033  23.7411366  41.6238403  71.3095245
  42.2387848  32.0133476  12.2562265  41.3708344  32.2193336  12.6033134
  42.1280594  32.0354309  11.3057089  30.5690117   6.1371837   3.8877821
  30.9827538   5.7136531   4.6398931  31.1939487   6.0187445   3.1724799
  79.7998123  69.3279190  85.1563721  80.7113647  69.5782547  85.3068542
  79.4082794  69.3128204  86.0297012   7.6181049  36.0009422  78.9704285
   6.8100190  36.4620934  78.7455521   7.5166707  35.7771759  79.8955612
  35.4631996  66.7436295  16.3209286  35.2612381  67.6495209  16.5550156
  36.4192276  66.7130432  16.2847195  61.4197845  25.3413582  11.2269297
  60.7231941  25.2249355  10.5808344  60.9779663  25.7105694  11.9915915
  17.8872051  19.6953487   7.3939781  18.3260460  20.2067261   6.7141662
  18.5675545  19.5313034   8.0470057  47.4220276   0.0745283  77.9602509
  47.8522682   0.7094958  78.5329132  47.4938240  -0.7573260  78.4283218
  63.3841095  53.1292458  13.8512812  63.2708778  54.0192070  14.1850252
  63.2568550  53.2099342  12.9060144  71.3545914  13.5074892  68.5672379
  70.4351120  13.2425337  68.5429001  71.5262527  13.6922436  69.4906158
  64.4121246  41.1985359  79.8860474  64.9959412  40.5901794  79.4329605
  64.6177063  41.0818558  80.8135986  23.0322037  23.2335606  72.0404129
  23.8585300  23.5654354  72.3915176  22.4561005  23.1711597  72.8022766
  19.9044628  13.6836710  56.8675117  20.2425423  12.8128948  57.0765190
  20.1014595  14.2095013  57.6427078  75.9773941  67.1721268  63.2912674
  75.8289642  66.4019623  62.7425919  75.7928619  67.9149094  62.7164116
  63.5149040  70.8713531  86.6944885  64.1396103  70.2340546  87.0406418
  62.6955757  70.6746063  87.1486053  11.3527155  37.9845505  48.1645508
  11.0604553  37.6614952  47.3122292  11.0219250  37.3408012  48.7909622
   4.8609805  29.8452091  55.8953362   5.2935691  29.2143574  56.4707680
   5.5776439  30.2705822  55.4244995  29.4354229  69.5841293  66.0732574
  29.2692318  69.6611938  67.0127640  30.3670483  69.7821045  65.9777908
   6.3583417  35.9417305  46.1710129   6.9377670  35.7826767  45.4258957
   5.4872813  36.0262985  45.7832832   4.7912593  55.5455322  75.6308823
   4.7074494  54.6042557  75.7832184   5.3023143  55.8640099  76.3749466
  34.1660957  47.2840729  52.3854141  34.7328682  47.4738579  51.6377640
  34.7521706  47.3059692  53.1418991  77.1467209  54.0029182  44.1725159
  76.3495483  54.4306221  43.8597565  77.3896027  53.4035530  43.4668236
  76.0388565   6.5427132  70.9235840  76.4593658   7.0730934  71.6004105
  76.7205887   5.9345884  70.6378326  77.3626022  56.4494247  64.0314255
  77.2807083  55.7149544  63.4230919  76.4634171  56.7467346  64.1703796
  23.2598343  46.1746140  59.8386116  22.8480473  46.5367813  59.0540733
  23.1019459  45.2324219  59.7787590  68.2129211  55.9328690  50.9223137
  68.0953979  55.9758453  51.8712997  69.0705490  56.3293381  50.7689819
   0.6616028  15.4628582  40.2768555   0.4091291  14.7250214  40.8319130
   1.3063639  15.0972967  39.6711502  63.6550827  59.4279709  38.0711975
  63.5202637  59.6124878  39.0007210  64.4133759  59.9595528  37.8290138
  43.9707565  46.9817085  40.1714554  43.3185806  47.3105202  40.7901497
  44.2914391  46.1722374  40.5691414  57.1660309   7.9496284  78.3282700
  56.7567978   7.5447607  77.5635223  57.6015816   7.2257094  78.7782364
  47.6773758  60.3601990  24.6081219  48.5743561  60.1182022  24.8385601
  47.5151024  61.1687775  25.0940247  56.9524536  42.3054581  10.6179476
  56.5241623  41.4567947  10.5058413  57.6146278  42.3326569   9.9272833
  13.5208416  51.0901299  30.9537735  13.4476547  50.1396446  30.8674622
  13.9207954  51.2224884  31.8132801  82.8952026   6.8621521  13.0872040
  82.6331329   6.3522701  12.3206720  82.1401443   7.4202971  13.2731743
  33.3137779  68.3611450  36.6228600  32.4386787  68.2206192  36.2613564
  33.7265282  68.9777908  36.0181923  25.6954575  66.7189026  40.8689995
  24.8260384  66.4146423  40.6086807  26.1479950  65.9281464  41.1625214
  52.8889198  56.6119499  70.4056473  53.5326309  56.0716705  69.9474258
  52.5592613  57.2113571  69.7361221  65.8489990  35.2727699  41.2863464
  65.2801285  35.9919434  41.5609474  65.5280838  34.5140343  41.7737465
  84.6156311  61.1041374  58.5973587  84.0575867  61.7171326  59.0759544
  85.4360046  61.0920372  59.0903854  10.4186249  35.5833244  67.7055740
   9.8090630  35.3093224  68.3908386   9.9488649  35.4197960  66.8877640
  29.2681751  11.5883121  85.9248886  28.8467541  11.2162905  85.1501389
  30.1874409  11.3345032  85.8426514  81.9531250   7.3482842  63.5163803
  81.9660873   8.2914906  63.3538246  81.0251541   7.1347866  63.6139565
  47.1936989  65.1672821  19.7711029  47.9468307  65.6789398  19.4757748
  47.3247643  64.3022156  19.3828850  86.1287842  54.9566612  78.1489792
  86.1059723  54.6343117  77.2479782  86.5632858  55.8073845  78.0880661
  25.5351791  12.2837782  11.3159332  25.0415249  11.4699078  11.4166975
  26.4269123  12.0572834  11.5800200  82.2668381  57.9012222  60.5447083
  82.3392944  57.0454407  60.9673386  81.6332855  58.3795891  61.0795059
  31.7426567  45.1638565  85.2368546  31.1161175  44.4406204  85.2615585
  31.3232460  45.8253899  84.6866760   4.9968743  46.5053024   6.0550017
   4.6216493  47.0149841   5.3369064   4.2390561  46.1335869   6.5064135
   5.4489241  13.3887434  68.2737579   4.7165418  13.0545912  68.7916260
   6.1647243  13.4805479  68.9025879   2.3852401  52.5073013  73.5629044
   1.6039619  53.0591774  73.5272522   2.0453165  51.6139183  73.6134262
  42.7634468  44.4599991  77.7348633  43.4660301  43.9899864  77.2857666
  42.9728622  44.3723106  78.6647491  78.5679626  68.3008652  14.7135820
  78.2822723  68.1808472  13.8079300  77.7857971  68.6065140  15.1729584
   9.7477579  18.7448425   3.6385691   9.1455545  19.4784431   3.7627144
  10.4365540  18.8879070   4.2876639  50.4644547  65.5816193  29.4596329
  50.4063301  66.0943222  28.6534138  49.6209564  65.7175140  29.8912315
  27.8902416  12.3088417  65.0744858  27.1175518  12.6272736  65.5411606
  28.0322571  12.9517384  64.3796921  38.2569733  37.7533531   9.3884697
  38.3682175  38.5570374   9.8963537  38.4595680  37.0501442  10.0054655
  13.1007767  48.7650948  65.5547714  12.5611477  49.3683281  65.0437469
  12.6427364  47.9265709  65.4972534  74.1702042  47.5135155  23.4831276
  74.7897491  48.1938286  23.7468891  74.6637726  46.6970406  23.5604973
   5.2358880  57.9018288  44.8275452   6.1904836  57.8405418  44.7925682
   4.9296141  57.1996384  44.2536469  14.1921425  54.9729576  35.4219513
  13.5775843  55.7050629  35.4726753  14.6898575  55.0210571  36.2381630
  15.5639839  48.8385201  57.3807945  16.0337830  49.3723068  56.7400246
  14.8987293  49.4256287  57.7399216  45.4121513  19.8558197  87.7867966
  45.1710587  19.9601631  88.7072372  45.2583618  20.7176571  87.3997345
  66.2006683  56.6028976  56.2132111  66.9511337  57.0106316  55.7810211
  65.9520569  55.8832779  55.6330643   3.7582061  48.2739639   0.9705948
   3.9143288  49.0874977   1.4501978   4.5898461  48.0900612   0.5338037
  83.8902283  22.8236485  35.1777916  83.6769485  22.4100227  36.0142479
  84.8400040  22.9398575  35.2033424  36.3778915  44.7966270   0.9407198
  37.3006096  44.8270073   1.1935040  35.9009590  44.9511757   1.7561216
   3.8529520  67.6289368   9.5131159   3.7856379  68.0941086  10.3469725
   4.7465367  67.7993011   9.2152700  74.4862289  34.7533379  58.2685127
  75.2576675  34.5392876  58.7932014  73.7951508  34.9107246  58.9118423
  55.3410378  69.8370895   5.6084580  55.2558937  70.6258240   5.0728469
  54.4941521  69.3987350   5.5256143  25.6086540  61.7470245  88.1203537
  24.9753819  61.8325920  87.4076996  26.4393730  62.0294647  87.7377777
  81.6154099  49.8739433  85.2377777  81.9781189  48.9894104  85.2855148
  80.8856277  49.8673058  85.8571320  24.7059231  44.4481812  20.7384853
  25.5382385  44.8611183  20.9686317  24.0427818  45.0944328  20.9810486
   8.2104044  59.6957016  42.3790855   9.1471519  59.8779984  42.3049049
   8.1619844  58.9063110  42.9183006  63.6540642  35.6899872  31.4482098
  64.4920654  35.8284187  31.8895950  63.8742981  35.6701126  30.5169029
  22.6934700  40.8725967   0.8930663  23.1699963  41.4254417   1.5123520
  21.7863884  40.8986015   1.1976305  15.0903673  20.6174641   7.4870043
  16.0065117  20.6599941   7.7610540  14.8706770  21.5171928   7.2452259
  71.0270004  36.0480881  15.5489712  70.5523529  35.2169304  15.5599127
  70.8470306  36.4153023  14.6835241  69.0009537  60.0984573  42.7545967
  68.9734192  60.1213913  41.7980690  68.7183990  60.9726143  43.0233727
  56.9612541   2.9435651  88.1710052  57.8284683   3.3155546  88.0103912
  56.9449539   2.7717865  89.1125259  52.8911781  27.3284721  11.6705513
  52.0515900  26.8704720  11.7100801  53.1406708  27.4507389  12.5865402
  40.0766907  34.2089195  84.5092850  39.4530029  34.0756302  85.2230682
  40.5091820  35.0363083  84.7205048  25.8770866   8.3631458  12.1744089
  25.5052052   7.5352750  11.8701620  25.1368294   8.9699392  12.1816473
  77.6978607   2.1279426  23.5467663  76.9288101   2.1224935  24.1166515
  78.2089462   2.8817484  23.8413830  72.2724533  28.8912601   9.8282042
  71.7305679  28.7648335  10.6070547  72.8845749  28.1554680   9.8402948
  80.2169266  13.2396383  48.4696045  79.3887863  13.2069082  48.9484978
  80.8885269  13.2294674  49.1515732  55.7719307   6.2109485  73.3273239
  55.7352066   6.0846081  72.3792114  54.8946457   5.9813080  73.6337128
  57.7245636  18.0289478  47.8569298  58.6160202  18.0341778  47.5083542
  57.2116661  17.5638866  47.1959534   4.5959597   5.0597534  25.8655281
   4.0788217   4.8706932  25.0825500   5.0935926   4.2574596  26.0233841
  66.1999817  41.3977394  75.8769379  66.7089920  41.9006081  75.2411194
  66.5425797  41.6710205  76.7279205   0.8609008  14.3559570  54.7201996
   0.2737511  13.7095318  54.3282509   1.5914779  14.4200029  54.1050644
  44.5466080   5.5456367  76.3357162  44.2753601   5.3211012  77.2257919
  44.7475700   4.7037344  75.9270020  71.9157410  66.7901535  59.8645973
  70.9607620  66.7251205  59.8686485  72.1086655  67.4403076  59.1890869
  74.6502762  39.4663010  20.8834896  74.0887375  39.8287926  20.1982841
  74.9537048  38.6311340  20.5275917  16.5783653  45.0636253  39.6612701
  16.6773148  44.1461067  39.4071045  17.0768757  45.5492973  39.0041237
  84.7421951  20.2790470  33.8964767  85.4948044  20.0742340  34.4513321
  84.3531036  21.0560436  34.2978706  49.3686905  50.0571213  86.1831970
  49.0375290  49.1905556  85.9473495  50.3135109  49.9992981  86.0410690
  84.0381393  37.7417030  49.7816849  84.7005539  38.4232178  49.6678085
  83.4095001  38.1191406  50.3969765  32.2167282  17.4635162  69.9973984
  32.5216141  16.6855392  70.4643326  32.6451569  18.1939468  70.4436646
  15.6245165  10.3173351  70.2378693  16.3707733  10.5815783  70.7759323
  15.2666178   9.5503025  70.6848602   6.4817472  42.9238892  46.9779320
   5.5802655  42.6035347  47.0085068   6.7690153  42.7456970  46.0824127
  56.2588425  65.5051346  42.9097557  55.7650681  64.9816666  42.2785721
  55.7230530  66.2869415  43.0437393  19.3080082  44.1392784   3.6623509
  20.0694733  44.1176186   4.2419505  19.3203602  45.0181923   3.2834213
  68.0031815  61.1651649  88.2197647  67.6269379  60.6531754  88.9356766
  67.7092896  60.7186317  87.4257431  52.1606674  18.1761017  71.3865051
  51.3388634  18.1428642  71.8761673  52.3110161  17.2723427  71.1092911
  44.5781212  45.2474976  72.3360062  44.8753357  44.4704247  72.8093491
  43.6243324  45.1682549  72.3204651  74.1156540  18.6230927   0.9005868
  74.8064194  18.9127445   1.4965496  73.3507156  19.1413403   1.1506373
  69.0541153  26.0341816  67.4670486  69.8609543  25.8155804  67.9333572
  68.5533066  26.5617275  68.0892334  86.6864548  30.1898708  47.7441940
  85.7373962  30.1901875  47.8687706  87.0381927  29.8951931  48.5842400
  51.8033600  49.3115616  84.8914108  52.3154030  49.2423477  84.0856476
  51.8250427  48.4307060  85.2653809  67.2431107  20.9242077  87.2926788
  67.6949081  20.7230034  88.1122055  66.6110611  21.6034088  87.5281296
   5.7604842  55.7834396  27.1023655   4.8986473  55.3676720  27.1269588
   5.5944514  56.6582413  26.7511005  76.6778259  52.3219948  36.6324348
  76.9914932  52.8933105  35.9314003  77.2335281  52.5354042  37.3820267
  44.8551979  32.7248764   7.7477989  44.2148247  32.6404800   8.4542217
  44.8086853  31.8902912   7.2813911   8.2046289  57.2533798  59.8943863
   8.9338179  57.8517952  59.7318649   7.4649954  57.6454773  59.4302406
  81.9907227  68.9941330  72.4514008  82.0393906  69.9346848  72.6223602
  81.2648621  68.9000702  71.8345413  85.8978882  14.6978960   5.5455208
  84.9544907  14.5367575   5.5293312  86.0991135  14.8498201   6.4689174
  47.3143387  22.5886536  17.9474659  47.2838440  22.4541702  18.8946800
  48.0705986  23.1592903  17.8107948  73.8693771  59.1148338  42.3436584
  73.8681107  59.7184486  41.6007729  74.1154022  59.6575127  43.0927925
  22.3330307   0.0862810   2.2782190  22.7070541   0.9178554   1.9869761
  22.6404381  -0.5528284   1.6353567  55.6088562  43.7580490  52.0190468
  56.0348701  43.5693512  52.8551903  55.0230789  43.0147362  51.8755646
  64.5578613   8.2135286  67.7957382  63.7094231   8.4669704  68.1592636
  64.3927689   7.3752089  67.3642349  29.2354107  71.5271225  18.0613785
  29.6839886  71.8701477  18.8342571  28.6164150  70.8850555  18.4089813
  82.3340759  51.6319427  70.7841339  82.4377670  50.8120461  71.2670975
  83.1009903  51.6719894  70.2127609  37.9280205  68.7805176  43.2769814
  37.9467888  68.3992310  42.3992004  38.3530388  68.1261902  43.8314705
  32.7807045  38.1788826  23.8678875  33.4252014  38.8058128  24.1962357
  32.4898415  38.5487709  23.0343342  83.5819016  25.6157379  45.3195648
  82.7489395  25.2087173  45.5577888  84.0272217  24.9562817  44.7875557
  27.2125111   9.5272684  59.2000122  28.1083698   9.1911783  59.1733437
  27.1293373  10.0509453  58.4030952  27.4406834  35.6381416  53.8350716
  27.7860050  36.3375435  54.3898888  27.4005356  36.0242462  52.9601173
  53.7744560  19.2239857  74.2935181  52.8640671  19.4716053  74.4551010
  53.7925987  18.2765656  74.4287872  52.3539124  14.6069098  34.4653091
  52.6728668  14.9993267  33.6525955  53.1182938  14.5943537  35.0413246
  65.3445129  36.6432915  64.1604996  65.4895630  37.5845718  64.2563477
  65.6599579  36.2674255  64.9823532  61.5726357  15.2812071  49.1401062
  61.6416283  16.0876999  49.6510277  62.4725418  14.9617624  49.0741081
   5.7156992  55.1063576  49.4114304   5.2610760  55.0048409  48.5752220
   5.7735109  54.2175713  49.7620697   6.9426975  61.5404625  70.0128021
   7.3032327  62.3851509  70.2825165   6.8687229  61.0409660  70.8259811
  38.7290039  41.4393730  53.8694534  38.7385674  40.5574493  54.2414131
  37.8219070  41.5737114  53.5949326   5.7769232  54.8599472  33.6311455
   5.3645926  55.6980400  33.8404732   5.0848193  54.2124329  33.7651062
   3.9003088  59.7575989  33.6011467   3.1207979  59.6884880  33.0499496
   4.5827737  60.0785484  33.0116844  23.5721779  60.1352844  18.7233620
  22.8138046  60.6972084  18.8825531  24.0824661  60.6032295  18.0624008
  22.9967632   3.9187086  55.8289833  23.4920349   3.1248484  56.0307846
  22.6282959   4.1912441  56.6693306  61.0464134  31.3500233  75.6219940
  61.3418503  31.0265770  76.4730682  61.0436096  32.3026276  75.7156219
  27.4552269  33.3475342  77.3880844  26.8173428  33.5373077  78.0760651
  26.9796791  33.5008469  76.5716400  17.3251781  19.9425621  69.3496933
  17.9438438  19.4925079  68.7744217  17.7107391  20.8080425  69.4857712
  57.0584946   9.4240255  43.6779900  56.1744041   9.4855251  44.0397072
  57.0149956   8.6924524  43.0622444  38.3444481  31.5516376   5.3467026
  38.3211632  31.8124161   6.2674003  37.5144424  31.8655071   4.9878039
  72.9675980  16.1935520   0.9580814  73.0963211  16.0017548   1.8869926
  73.3368378  17.0688477   0.8408337  31.9844837  71.8732834  33.5958786
  31.9825077  71.7273941  32.6498642  31.5768566  71.0875931  33.9602394
  73.9887009   3.9626071  66.9333191  74.3761063   4.7947702  66.6619186
  74.6879807   3.5177593  67.4122314  63.9791298  31.4476051  78.5199203
  64.6192322  31.2656670  79.2079620  64.4512711  31.2824898  77.7038040
  83.8175812  43.3467598  44.4182281  84.3220444  42.5775032  44.6827774
  83.4443741  43.1082268  43.5696716  74.2208633  64.7102966  23.0825043
  73.9152679  63.9668007  22.5628414  73.5403900  64.8361206  23.7438278
  79.2729492   2.5109000  88.0462112  79.7018890   2.6901164  88.8829498
  79.8643875   2.8795440  87.3900681  26.5810928  15.8242226  61.7988968
  27.1167793  15.2795095  62.3755760  25.7315845  15.3838024  61.7744560
  56.0299683  46.8410606  25.3356686  56.3597374  46.0049820  25.0063419
  55.4013176  47.1281776  24.6734047  57.3140221   8.4283447  17.8323498
  58.1555252   7.9737959  17.8709545  57.5321693   9.3489246  17.9778728
   4.9127507  67.4849014  50.8832970   5.1702285  68.3066940  51.3011322
   4.3814983  67.0374832  51.5419502  70.4419937  54.9258194  58.3234062
  70.2422485  54.0075607  58.1413841  71.2420425  55.0997543  57.8275146
  69.7783279  13.0321016  29.3592262  69.1827545  12.6976442  28.6886578
  70.4708099  13.4724197  28.8664608  69.0967712  43.1477203  41.3491402
  68.3153305  43.4361000  41.8207512  69.4795303  43.9543266  41.0040131
  59.6942024  65.4535980  20.5894527  60.4276810  66.0653076  20.5258064
  59.5574646  65.1494141  19.6922302  48.1231270   7.7988901  39.2591209
  48.6032867   7.5493727  40.0486870  48.7417030   8.3337517  38.7616081
  67.1794281  23.1459217  22.6982536  66.6400604  23.3250923  21.9280510
  66.9621964  22.2451897  22.9385090  66.4762573  18.9629059  78.3319321
  66.7237320  18.1034985  77.9907532  67.2974548  19.4537010  78.3632889
  61.0282516  13.1952333  41.2200928  60.6825294  12.5616474  41.8488007
  60.7428741  14.0452576  41.5551300  43.8394051  54.3642006  66.5524597
  43.9296989  55.1999779  66.0946884  42.9064484  54.1584091  66.4935379
  34.7982140  65.3523560  20.4736023  35.3124352  65.3231812  19.6667824
  34.8423576  64.4604034  20.8181400  31.6978188  14.5017433  62.4038010
  31.1786728  15.3054285  62.4322739  32.3502159  14.6134024  63.0952797
  77.3808136  26.5245895  75.3023682  78.1281738  26.0425415  75.6563644
  77.2778168  26.1870842  74.4125824  28.5806942  69.7260361  87.3057938
  28.2831383  69.7918091  86.3983994  27.7919559  69.5050964  87.8010864
  14.6059980  37.2684288   9.9507399  15.3542500  37.1777344  10.5407619
  14.2524471  36.3822060   9.8743200  76.5452194   2.5311337   8.6086617
  76.1769180   1.7731842   9.0626411  75.8120117   2.8908744   8.1094370
   6.9035864  51.6533585  83.2838821   7.1000304  51.3063698  82.4136887
   6.3995004  52.4495773  83.1160507  61.5104866  24.3795948  63.0354652
  62.1429138  25.0559826  62.7930527  60.7079353  24.6262989  62.5758095
  68.2511826  32.2318993  76.0409775  67.2955322  32.2683792  76.0005646
  68.5197144  31.9976501  75.1525803  49.0412712  68.1182098  21.6931496
  49.7080383  67.4391937  21.5902157  49.3035088  68.8060913  21.0813637
   9.3515110  13.2568703  46.5850906   9.0395098  12.4238491  46.9385910
   8.5760508  13.6544971  46.1891289   4.7271676  28.2018223  49.0609283
   4.5029578  28.6809959  48.2632103   5.5324569  28.6161594  49.3708687
  15.2078218  54.6128731  58.0176964  14.6467981  55.3873749  57.9772797
  15.0606031  54.2559319  58.8935661  74.6044540  13.6970272  50.7375946
  73.7517471  13.3861504  50.4334984  74.6121979  14.6285477  50.5174980
  39.1625862   1.5617093  36.6607361  39.2656097   2.5101750  36.5830765
  40.0580673   1.2261468  36.7025299   8.6224318  35.2959251  76.4952164
   8.4657631  35.8198547  77.2808304   9.2501297  35.8090477  75.9863663
  44.3641014  67.9452133  64.7109222  44.2785988  67.9168396  63.7579689
  44.1230736  68.8411255  64.9464493  68.5850754  44.7618752  54.8877831
  69.3336182  44.9676666  54.3278198  68.2293320  45.6153450  55.1353111
  74.9129868  33.9815483  51.1673203  75.6690521  34.3865166  51.5922775
  75.0568924  33.0406456  51.2684364  12.1858826  29.2346420  13.7880974
  12.3077507  28.9349041  12.8872442  12.3898439  28.4688759  14.3249731
  69.0907898  37.4522820  39.7918015  69.0473480  36.6393127  39.2883873
  68.9295044  38.1417465  39.1477089  68.5763321  18.5763474  24.1245632
  68.9810867  17.9858131  24.7599201  68.9282379  18.2965698  23.2795067
  77.2061768  65.3840942  22.0573597  76.3873215  64.9797745  22.3441257
  77.5261765  64.8096619  21.3617554  10.1781673  48.9071884   2.7681789
  10.7064371  49.7053413   2.7575340  10.5608788  48.3759613   3.4664342
  22.0708294  63.7211418  30.1553650  22.7387600  64.1417999  29.6139317
  21.4733601  63.3158646  29.5268650  49.6876411  53.3545036  37.4333076
  49.0694046  53.9767685  37.8164520  49.2156143  52.9727898  36.6932259
  56.7775192  25.1199055  11.5669069  57.2203560  24.9398193  10.7376308
  56.9888535  26.0337696  11.7577600  16.5996456  56.7219086  56.2532654
  16.2940922  56.2601242  57.0340500  17.2812386  56.1555748  55.8914223
  30.4990025  21.1266575  80.4847488  30.8827152  20.2800808  80.2560501
  30.6403408  21.2066956  81.4280624  65.2427826  40.1576767  73.1972961
  65.7981033  39.4087982  72.9804153  64.9781265  40.0048599  74.1044006
   7.3529172  71.3468933  17.7433777   7.3473911  70.9385147  18.6090717
   6.4669604  71.2094803  17.4080715  58.5289841  70.7985229  20.2380943
  57.6949959  71.1951065  20.4899178  58.3259621  70.2934418  19.4507542
  81.6606903  43.1486816  20.6717148  81.8287201  43.0269623  21.6061573
  82.3777542  43.7064171  20.3700809  66.7231293   7.9435678  73.0050430
  66.3999252   7.7170086  73.8770676  66.1936646   7.4144611  72.4084320
  26.2791634  36.2531738   4.2989964  25.6905937  36.4191093   3.5625973
  26.7081184  35.4256973   4.0810170  51.9603996  60.7496338   0.9256651
  52.3507423  61.6006813   1.1246279  51.0579643  60.8214645   1.2366012
  68.9098892  33.3285866  58.0906868  69.7807770  33.4756279  57.7216797
  68.6575089  34.1772156  58.4544983  59.7691269  10.9594183  28.7257500
  58.8787880  10.7569008  28.4384918  60.1266441  11.5089588  28.0283146
  81.6697769  44.3464890  34.2344513  82.3344955  44.9554710  33.9127045
  80.8898773  44.5481377  33.7174149  83.4817429  23.9310036  62.9978294
  84.0761414  23.4592533  62.4144135  83.2945938  23.3102818  63.7020378
  82.4413910  21.3301144  84.2012863  83.1009979  21.3848000  83.5097961
  82.9383240  21.1112061  84.9895477  67.8489227  42.4416771  45.1992874
  67.2819366  41.6924973  45.3822746  68.7135239  42.1682053  45.5057411
   0.3321134  68.5140305  78.7057648   0.5379152  67.7169342  79.1941376
  -0.4815086  68.3092651  78.2449799  85.5803680  24.5474777  70.4728317
  84.7159271  24.7243996  70.8438721  85.7532578  25.2954426  69.9010925
  41.1547279  61.6754379  56.0151634  40.3150482  61.8175545  55.5781593
  41.4738426  62.5559349  56.2129631  71.7624054  49.0587692  19.2757320
  71.7816391  49.7826309  19.9017410  71.1814041  48.4116554  19.6756229
  16.3922367  67.0711670  42.1039009  16.9445190  66.4126663  42.5253258
  16.8355541  67.9017258  42.2767181  70.3416214  25.6847458  47.9311066
  69.7684326  25.8060093  47.1741524  71.1895752  25.4498386  47.5542488
  75.9534073   3.9624877  18.7875862  75.0532837   4.1073070  19.0792046
  76.3567581   3.4604387  19.4957428   1.9446963  18.9302158  15.4615316
   1.2333349  19.0009117  16.0980835   1.6884899  19.5168781  14.7499008
  57.4473267   0.9309760  38.3015404  57.6638870   0.6164395  37.4238129
  56.6842041   1.4942253  38.1726112  25.7503662  14.3968115  80.3002243
  25.8133278  15.3450365  80.1856079  24.8100033  14.2219543  80.3372955
  29.8977375   0.8909579  83.1479874  29.1590233   1.0971282  83.7207260
  30.6003170   1.4687753  83.4458771  38.2681503  11.9624023   6.9828200
  37.7253227  11.4267464   7.5613046  38.4352608  11.4023695   6.2247505
  65.2921600  32.9850159  43.9420090  65.2215195  32.3314819  43.2462120
  64.4307709  33.4016495  43.9676247  37.0130501  58.3315353  59.9036026
  36.7164879  58.5601082  59.0226746  36.8409500  59.1154671  60.4251976
  70.2998276  20.2264099  20.0340557  70.6838379  20.4902248  20.8702202
  71.0518646  20.0107327  19.4825516  66.0749969  60.9828415  41.1978035
  66.5143967  60.1344719  41.2563248  65.4104919  60.8621140  40.5195045
  85.0255585  39.5881729  43.0139008  85.0313950  40.2887421  42.3616714
  85.0454178  38.7814560  42.4990730  56.4027367  55.6918297  83.8736267
  57.1802711  55.1492157  84.0049362  55.8706284  55.5409126  84.6548462
   1.4260676  26.5138073  15.6639643   1.0408971  25.6796913  15.3954000
   1.2335094  27.1104622  14.9406691  74.8936844  56.3389053  14.4578800
  73.9872742  56.0511246  14.3490419  74.9693604  56.5448189  15.3896008
   7.7386708  15.1036253  43.8691292   8.6772194  15.1245756  44.0559998
   7.3258815  15.0027113  44.7268333  57.9515076  60.0185776  65.2221603
  57.9046631  60.3582649  66.1158371  58.1426086  60.7865601  64.6837234
  57.6349792  60.7755775  26.7077637  58.2765770  60.3566933  26.1340733
  57.5789337  60.1962700  27.4676933  29.0267220  19.7900925  84.1338120
  29.2694836  20.3764725  83.4172516  28.6556129  20.3677616  84.8007507
  48.1325645  53.3922691  48.4775238  47.8030357  53.3944969  47.5788383
  48.1874771  54.3179703  48.7147903   4.8088007  23.8389168  74.1762161
   5.3749981  23.5601463  74.8958969   4.8211036  23.1038380  73.5632401
  29.8291016   8.7632618   7.4569736  29.5977249   9.4230680   6.8032527
  29.1547184   8.0899782   7.3668146  15.4643612  21.1139183  67.0908890
  15.5516539  20.5817852  67.8817368  14.6687574  20.7884331  66.6698074
  17.5107574  45.1907730  66.2967529  16.9911213  44.4203110  66.0674133
  16.9083176  45.9267540  66.1888962  81.2064056   1.8763934  38.8888969
  80.7401581   1.2944782  39.4890747  82.0384064   1.4329913  38.7233391
   7.2046838  12.8849850  72.4808884   7.3671794  13.7648840  72.8208923
   7.5760341  12.3004951  73.1417236  68.2732239  45.4349213   5.0575485
  67.6539612  44.7110291   4.9641500  67.7233200  46.2006721   5.2232666
  83.5614624  43.8683090  79.1892242  83.3780289  43.3143959  78.4304352
  83.9739227  44.6497612  78.8211975  11.8318396   3.2117999  84.4326859
  11.8972092   3.7058363  85.2499313  12.7351952   3.1369438  84.1251526
  73.7181091  16.3995228   7.4309368  74.2629471  15.8047514   6.9155450
  74.3426132  16.9795780   7.8665557  12.4692612  44.4716682   8.4140301
  13.2417765  43.9879761   8.1216383  12.7063437  44.8000145   9.2813320
  48.7026520   4.5250654  25.7713737  48.7263069   4.2754369  24.8475990
  49.6115494   4.4519758  26.0625763  81.3922272  20.0252514  34.6521149
  81.6629639  20.4483395  33.8372955  82.1724472  19.5574093  34.9497986
  21.8563194  56.2823334  46.5371056  22.6486912  55.8349495  46.8341370
  21.7570801  56.0127869  45.6240158  63.5137520  21.5020676  59.8089447
  62.7970657  21.3606358  60.4274826  63.1731453  21.1872025  58.9716415
  73.2324524  68.9558334  73.0409622  73.3714294  69.3095016  72.1624222
  72.3727570  69.2878799  73.2995987  66.6841049   2.3221166  19.3624191
  67.5493622   2.1105165  19.7128372  66.7524567   2.1347208  18.4262333
  46.5956841  71.1772232  32.0347595  47.3516960  71.0737381  31.4568558
  46.6877594  70.4742050  32.6778145  71.9248199   9.5381908  47.4936409
  71.1467667   9.6300163  48.0435791  72.6137695   9.2612877  48.0977173
  83.0912476  59.3978081  76.1845474  82.4351501  58.8294830  75.7810822
  82.6821442  60.2630539  76.1992416   1.3681023  29.1021175  42.6783066
   0.7948815  28.6911697  42.0311813   0.8634424  29.8460064  43.0072098
  69.7577591  33.2877693  50.0151443  70.0540390  32.7129135  49.3094597
  69.3245773  32.7016144  50.6356392  42.9357147  24.1001720  37.1839561
  43.6412697  23.9796009  36.5484352  43.2341652  23.6334877  37.9645767
  58.7874298  18.6641216  85.9922638  59.3279305  19.4054203  86.2653351
  57.8873367  18.9677029  86.1101761  26.9432487   1.1013712  83.9361115
  26.6666069   1.1886135  83.0239182  26.3489952   1.6729386  84.4223251
  68.4991531  49.0108147  51.2034607  69.4361572  49.0476341  51.0113716
  68.0783463  49.3315353  50.4057808  37.9078140  19.1110497  82.3216019
  38.7431831  19.0303955  82.7819061  38.1165886  19.6104736  81.5321579
   8.6535816   6.5334373  10.2493439   9.2207146   6.8805399   9.5607853
   8.1480436   5.8442211   9.8184795  50.0441589  69.9402466   7.0770764
  49.8759651  70.6301270   7.7189536  50.6748466  69.3622131   7.5064259
  57.1614151  15.3969669  64.9660187  57.5108986  14.8610935  64.2540283
  57.9019203  15.5180922  65.5603333  66.0445862   1.0481116   3.0146582
  65.2779922   1.6205145   3.0449650  66.6454391   1.4842689   2.4105248
   1.4871016  37.3075981  86.8321609   1.3842289  37.3124390  87.7838058
   2.2860861  37.8107643  86.6750565  42.8338470   6.5547848  80.1613541
  43.6812477   6.8145771  80.5228043  42.4867439   7.3544731  79.7660675
  19.9440575  23.6782913  77.7700195  19.5815849  23.8363514  78.6417160
  20.8245373  23.3406811  77.9343491  13.4777870  15.5161238  54.5761833
  13.3168192  16.0502224  53.7983284  12.6064835  15.2442951  54.8645782
  52.9471474  24.7916870  24.4248104  52.6044235  25.5472565  24.9021835
  52.1887169  24.2202492  24.3045025  77.3955765  29.2101212  74.8717804
  76.5442963  29.5798187  74.6375275  77.1886368  28.3613796  75.2629929
  67.3967819  39.1667442  82.1112671  68.0038910  39.8978043  81.9963531
  67.2266922  39.1424103  83.0529175  84.5042191  46.2099724  73.3033371
  84.8888321  46.9098778  73.8310089  83.6016006  46.1434937  73.6149445
  86.1336212  49.9351425  85.1525803  86.4246216  50.0387001  86.0585709
  86.8994675  50.1666069  84.6270905  16.7785873  58.7478027  72.1742325
  16.8160744  58.3509178  71.3040009  17.6667652  58.6542015  72.5186310
  77.6581497  18.6961861  49.1883354  77.2503052  18.4582958  50.0209808
  78.5613632  18.9147491  49.4178543  43.5518379  41.7731552  63.2185287
  43.6956024  42.2624741  64.0285492  42.7779694  42.1789093  62.8277359
  86.3340683  69.2866058  30.1377831  85.6292191  69.5545578  30.7273731
  86.5685501  68.4056549  30.4296322  33.9726448  70.7826385  35.2470169
  33.6391830  71.4168930  34.6123924  33.7461472  71.1548615  36.0992966
  74.2027130  19.1790390  72.9877853  74.2132263  18.6324825  72.2020416
  73.5217056  19.8298492  72.8177490  74.8314590  65.2057648  27.9079628
  74.5612411  65.9331665  27.3475132  74.4890518  64.4262924  27.4704571
  34.2397842  15.1667891  67.7376328  35.1045227  15.2889128  67.3457794
  34.3636742  15.3799324  68.6625366  37.6974754  47.4389458  45.7470665
  38.3593330  46.7664528  45.5860329  38.1496086  48.2654266  45.5775604
  12.4769487  52.9048042  81.3358459  13.2004290  52.4482574  80.9064560
  12.8896189  53.3870163  82.0523682   1.7633392  52.2672005  11.9977970
   2.6254654  51.8550720  11.9419107   1.8491299  52.9071274  12.7044544
  84.2685394  45.3665237  33.2122726  84.8723221  45.7924118  33.8207893
  84.8006973  44.7046394  32.7707367  52.2101669  27.5863266  69.2669449
  52.3340683  27.3102493  68.3588333  52.9636688  28.1469593  69.4517670
  74.0636520   1.7096175   5.5613046  73.8732758   2.1961148   6.3633690
  73.7546616   0.8216110   5.7407489  12.8023396  10.1148624  83.3613205
  12.7115440  10.3068314  82.4279709  13.2175007   9.2528343  83.3892593
  58.8381882  45.2641640  18.2972126  58.7267799  44.3530235  18.5685806
  58.7825012  45.7649803  19.1110420  40.9192085  52.2631950  57.4863548
  40.2704659  51.5600777  57.4549446  41.7592316  51.8194199  57.3694916
  42.8074493   7.4509635   1.4189802  43.0038605   8.1237230   0.7670231
  43.2971802   6.6827126   1.1254071  39.1511879   6.0594492  53.3551941
  39.4360619   5.2502146  52.9306755  39.1733894   5.8596306  54.2910423
  57.0254478  22.0267200  12.1108437  56.8086052  21.7769699  13.0090837
  57.5057068  22.8498592  12.2004194  27.9907017  27.6140499  14.2049665
  27.2819843  27.7013187  14.8424101  27.8862095  28.3689442  13.6257858
  44.8939781  44.7457008  21.1817799  44.7122841  45.4277687  21.8283138
  44.0347786  44.5164185  20.8276081  43.7725945  35.1410217  11.8813391
  44.6015701  34.6634369  11.9120607  43.5629730  35.3162231  12.7987251
  68.8817215  35.5059700  80.3508759  69.7132187  35.5246811  80.8246765
  68.2322083  35.7860222  80.9958038  36.1696739  44.3786583  20.2805614
  35.3839951  43.8624878  20.4608574  36.8934669  43.7650185  20.4062557
  79.4893265   4.5991917  24.6954269  80.0104904   4.7168384  25.4896469
  79.1161804   5.4637446  24.5235577   2.7459254  42.3060799  81.1377258
   2.4237158  42.8320923  80.4057922   2.1124077  42.4579964  81.8390121
  13.1543560   4.6294904  55.3054085  13.9681425   4.1609321  55.1198349
  12.6959534   4.0732021  55.9352036  19.5185566   0.4929422  76.1960602
  20.3258057   0.7575746  75.7549820  19.3199692   1.2186530  76.7877808
  43.0723915  59.3971825  27.4131489  43.8392601  59.4250565  26.8409901
  43.4277992  59.5044632  28.2954235   7.3901248  71.2207108  69.7993393
   7.6319442  70.3723831  69.4277267   8.2165699  71.5904617  70.1099930
  67.8347244  47.3371506  88.1731873  67.4307938  47.6298447  88.9901352
  67.1457443  47.4367599  87.5162125   0.7422835  59.1055717  12.0428610
   1.0890424  59.2613754  12.9213343  -0.1532884  59.4418793  12.0757475
  70.6004333  69.8146973  51.4930725  70.9419250  69.1157227  50.9353561
  69.8454895  70.1562271  51.0138550  66.1264954  40.1191788  44.2973747
  65.6459656  39.2996559  44.1803131  66.9500046  39.9829903  43.8288498
  49.8216171  25.1029110   6.7162185  50.1079597  25.9625626   7.0248232
  49.1091843  24.8610859   7.3079891  65.4665604  40.8322105  50.2157402
  65.6291656  40.9401398  49.2786484  65.4501266  39.8843880  50.3483734
  13.6810827  35.6212425  79.6228409  13.2227468  35.8971214  78.8290863
  14.2110968  34.8738441  79.3458633  39.8754120  31.2238827  61.9541168
  40.1609459  31.7778263  61.2275887  38.9195862  31.2676945  61.9274292
  73.2308731  35.6974411  61.3303261  74.0767059  35.8853340  61.7371483
  72.6335144  36.3408890  61.7115974  29.0596123  12.3793440  57.5801468
  29.2646847  12.3382845  56.6460762  29.5856876  13.1082478  57.9090462
  71.8394012  56.0815086   2.5642877  71.8582153  55.7321510   1.6733177
  72.7049713  56.4713173   2.6870348   4.7244124  54.0264664  54.8341675
   4.0285416  54.6304359  55.0934296   4.5088372  53.7852058  53.9333076
  76.4384766  11.9220343  26.3565311  77.1128845  12.5997553  26.4023991
  76.0698547  11.8908224  27.2393551  73.3359528  45.5678749  52.9569855
  72.4791336  45.6065903  52.5320168  73.7384567  46.4141731  52.7620430
  59.2758102  15.6901522  41.3192711  59.8951874  16.1959782  41.8453331
  58.6986084  16.3475990  40.9308929  31.1816006  50.4173431  60.3860626
  31.6493320  49.6983795  60.8109779  31.7159920  50.6320000  59.6214867
  33.7752151  43.1914978   4.3291979  33.1592026  43.8455772   3.9991353
  33.6188354  43.1701241   5.2732954  31.7835045  70.0819397  19.6794853
  32.1346054  70.9705582  19.6218796  31.5905590  69.9604416  20.6091328
  82.8938293   8.7090473  31.3705616  82.8222504   9.0440302  30.4767513
  83.5588531   8.0227118  31.3165779  66.2952652  46.8566666  31.2269001
  66.8972321  46.5169106  30.5647545  66.7930832  46.8215752  32.0437126
  22.3764763  24.9831066  88.0067596  21.9270954  24.6361275  87.2361145
  23.1095009  25.4852486  87.6507263  64.7476120  38.9140816   8.6528502
  64.0342789  39.4225616   9.0386410  64.3566360  38.4973679   7.8849163
  33.9931908  71.5325241  22.7859192  33.8386993  70.8168869  23.4025402
  34.8039398  71.2916565  22.3377018  47.9203453  51.6597519  31.8300610
  47.9989891  52.6114044  31.8964119  48.7172928  51.3243561  32.2406921
  66.8100586  13.9773979  13.7221022  66.4576492  13.1035919  13.8909159
  66.0614319  14.5633011  13.8339195  81.7271805  16.2745991  44.9266548
  80.9206696  15.7595930  44.9034462  81.4483490  17.1658783  44.7166405
  35.3692436  12.6681166  64.5716858  36.2461662  12.8618841  64.2404938
  35.4926987  12.5317984  65.5110474  38.7265816  69.6660461  11.7487087
  39.0240326  70.4851074  12.1448059  39.1712227  69.6343002  10.9016438
  45.8213692  66.5627365  42.5073433  44.9738998  66.1188202  42.5384026
  45.6183968  67.4796371  42.6926308  11.4507914  49.5802650  70.8486099
  10.7818050  49.8467903  71.4792023  12.2806301  49.7947273  71.2747574
  35.5341873  32.1876488  66.8028183  35.1528587  32.7180519  67.5024567
  36.3213425  32.6656456  66.5417862  58.9355850  16.9098549  31.1419735
  58.2906151  16.2054729  31.2059059  59.4597893  16.8276539  31.9386444
  61.1784325  50.4828415  46.2029152  60.3654404  50.8796806  46.5156364
  61.5744591  51.1542358  45.6473770  49.4613571  15.1467524  71.7449188
  49.9640579  14.4263401  71.3647385  48.6241684  15.1254330  71.2813492
   8.0939045  38.2616005  62.4018173   8.6348572  37.6094971  61.9564362
   7.2946296  37.7899933  62.6362877   6.3092942  60.1312447  40.2522545
   6.9386468  60.2247505  39.5371284   6.8125429  59.7358360  40.9640312
  40.2865295  10.1079369  75.9646759  40.7848244  10.2831621  75.1664047
  40.6064987  10.7547226  76.5935745  12.5719004  66.4575806  36.0703888
  13.0841494  66.0317917  35.3829765  13.1326618  67.1681442  36.3816414
   9.1818323  60.0920143   7.1192002   8.7095222  59.7331085   6.3679733
   8.5663862  60.0147591   7.8482337  61.8345261   9.5851803  25.1452465
  60.9220047   9.3467846  25.3086681  62.2976074   9.3187456  25.9394741
  58.3048172  40.9115868  31.4637585  57.4672813  41.1135445  31.8808632
  58.7295570  41.7624664  31.3549862  33.3845406  54.8613396  79.4133835
  33.4213905  54.3638344  80.2303085  32.9668045  54.2672958  78.7898102
  20.2868519  42.4544067  71.3201294  19.4683285  42.5318565  70.8299789
  20.1768303  43.0454445  72.0649796  13.7485733  50.7278900  72.7213593
  14.2583780  51.1654358  72.0395355  14.2394257  49.9284477  72.9115982
  46.6000671   5.6582637  26.6560860  46.4497719   5.3236151  27.5401974
  47.3604240   5.1695499  26.3410473  58.1522827  49.0495338  18.8900414
  57.2061729  48.9533005  18.9988880  58.2623215  49.9217339  18.5113735
   9.1434517  27.3171940  52.5759811   8.2108812  27.5086594  52.6754036
   9.1923170  26.7618256  51.7979012  46.3337212  51.3447647  84.3680420
  46.5138283  51.6796074  83.4895935  45.3986130  51.5029411  84.4975967
  32.6484184  11.9201584  32.3508415  32.3929367  12.3342791  31.5265446
  33.5231667  11.5701084  32.1819878  74.5984650  -0.1944537  82.7576065
  75.0599060   0.4609087  83.2808685  74.0230026   0.3158498  82.1878128
  10.9479561  63.1699409  14.6001444  11.4162369  62.3526459  14.4299240
  11.0587769  63.3183594  15.5392513  26.2866497  63.0094452   6.1776052
  25.5050449  62.8277321   5.6557741  26.1037331  62.6124306   7.0291653
  26.6330032  20.4091434   5.4107070  27.1007519  19.5847645   5.5442829
  26.7554798  20.8894215   6.2295861  63.7041626  35.4645538  53.6302376
  63.9240761  34.7385254  54.2139778  63.8838959  35.1287155  52.7520866
  22.8531570   7.7944965  10.9443159  22.4471436   7.3260703  11.6736736
  22.1614113   8.3668919  10.6125269  47.8940620  15.6310797  10.0865154
  48.0621719  16.5718021  10.1413879  48.5671768  15.2348099  10.6397943
  30.9296780   2.3639510  35.1965446  31.0359783   1.6744071  34.5412140
  31.1095676   1.9310313  36.0310822   2.3224626   1.8359858  14.4550400
   2.1533222   2.7778077  14.4794254   3.0981762   1.7176788  15.0032225
  82.0788422  39.7319717   7.4812551  81.7170029  39.1892967   6.7806783
  82.9194870  39.3245392   7.6899228  15.9688892  24.5941219  15.7930241
  15.6266317  24.7791405  14.9184618  15.1954670  24.5899811  16.3569679
  68.2256470  15.7253456   2.7920587  68.1610870  16.4665909   2.1898799
  68.2286530  14.9548864   2.2240667   6.0960340  22.0692711  14.7574139
   5.2061467  21.8165283  15.0032883   6.6011825  21.9844170  15.5660276
  35.8726349  48.1946297  13.9519548  35.3410416  47.4010201  14.0137835
  36.0103645  48.3180885  13.0127954  74.9635010  53.8053932  55.5653725
  75.8259201  54.0861931  55.8713303  74.8198700  54.3054886  54.7619400
  52.4840775  56.3345451  79.9403992  52.5730629  56.1333618  80.8719711
  51.5869408  56.6556168  79.8493271  68.6490936  67.8759079  86.0738754
  67.7090683  67.7593842  85.9359970  68.7099457  68.5399780  86.7605591
   1.3408468  65.6988068  16.8252182   1.4702661  66.6141052  16.5768032
   1.3040493  65.2276230  15.9928341  64.5980377  71.5856628  48.7046814
  63.7900810  72.0834045  48.8299522  64.4701996  71.1264496  47.8746109
  32.5930977  66.2779694  15.5984545  32.8788300  67.1771927  15.7596998
  33.3867226  65.7525864  15.7002468  61.8701286  44.9190559  13.4042578
  62.2961922  45.3786087  14.1278000  61.3000336  44.2786636  13.8298435
  79.6298065   4.1248336  58.5587425  79.8636627   4.9016948  59.0667076
  79.6257324   4.4252081  57.6499023  51.7022171  65.9732208  17.3902302
  51.5539093  65.4090729  16.6313000  52.0260201  66.7939224  17.0189762
  81.0330048  12.8116503  39.3302612  81.1704941  12.2126598  38.5964088
  81.9081726  12.9529343  39.6913071  58.8222351  36.6361847  51.2188148
  58.6059608  36.4207649  50.3115921  59.3465919  37.4345932  51.1569328
  79.2230225  57.9387932  32.3114738  79.3459244  58.8854218  32.2406235
  80.0636978  57.5674362  32.0439034  71.1341400  61.1000061  46.5149498
  71.4542694  61.3345032  45.6438789  70.2977600  61.5587158  46.5942535
  76.0086899  41.9864120  20.0364017  75.9275513  41.1127739  20.4190350
  76.8991394  42.2616653  20.2545261  33.7049408  14.8340778  64.2700577
  34.3905678  15.4945831  64.3694534  34.1665459  14.0541725  63.9620018
   1.8718377  13.7616444  38.2332993   1.3202486  12.9896946  38.1065140
   2.7666392  13.4343529  38.1414146  51.2353058  34.4034691  12.1335964
  52.1423225  34.7016602  12.2016926  50.7133598  35.1998024  12.2318678
  20.9097176  12.5612659  16.7172050  20.5126972  11.7136745  16.9176979
  20.2334023  13.0337257  16.2318077  61.9180870  65.6403198  57.5626869
  61.9165840  65.1166153  58.3639145  61.2510033  65.2337646  57.0095634
  39.5637054  41.0375519  48.3196869  39.0014114  40.9475060  49.0890694
  40.2870255  40.4313011  48.4793854  71.4844055  64.0586243  48.2376099
  72.3308411  63.6470528  48.4118996  71.2265167  64.4405746  49.0765610
  54.1906013  51.8124886  83.3323898  54.0411491  52.3889771  82.5830231
  53.8916817  52.3189926  84.0875931  56.5978279  34.9773521   5.2910476
  55.8443947  34.5874519   5.7343817  56.2151489  35.5826797   4.6559358
  79.1252670  71.4989090  82.9288177  80.0715790  71.5227661  83.0708160
  78.8913040  70.5761108  83.0285110  40.9026909  49.2666245  28.4706345
  41.1189995  48.7780991  29.2648563  41.6121216  49.0605125  27.8619785
   8.4904337  62.1129875  30.0034237   8.1887417  61.3222656  29.5562420
   8.1266499  62.8330650  29.4882698   5.6303186  42.5876045  76.2244110
   5.7556710  43.2111130  76.9397812   5.3046770  41.7953033  76.6515503
  56.4268456  40.4770203   0.8990524  56.7842178  39.6544380   1.2335359
  55.7318268  40.7048531   1.5165216  30.6757164  70.5565186  52.2320862
  31.3731995  70.4091415  51.5933151  30.0002193  69.9191055  52.0004730
   9.3089819  37.7147522   3.3232915   9.1860828  38.5190277   2.8190391
   8.7435513  37.0734482   2.8928864  57.5200424   6.3184600   3.0931940
  57.3564072   7.1203737   2.5968173  57.9665794   6.6146469   3.8863583
  20.9705563  69.1036148  20.3048706  21.5017567  68.4435425  20.7502556
  20.1453686  68.6578217  20.1136398  68.3253403  70.8318558  11.3091431
  67.9440308  70.7878036  10.4322786  69.2388992  70.5738907  11.1862850
  42.9115562  50.5011406  62.0306854  42.0651779  50.7673645  62.3898468
  43.5548439  50.9795914  62.5536537  29.4098969  49.4217720  49.4785118
  28.9778347  49.0204659  50.2325058  30.3030090  49.0783157  49.5034256
  51.5594826  49.8732452  69.4675446  51.9204216  49.7162514  70.3400726
  50.6918297  50.2432785  69.6302948  44.2276192  10.3587122  59.2167740
  43.9184380  11.0666838  58.6516075  44.5701218  10.8034143  59.9921227
  57.4056587  35.6071663  84.3866119  58.0599976  34.9302330  84.5593262
  57.7843857  36.4057159  84.7541962  83.4706039  25.5129318   1.3401612
  84.0583649  24.8803310   0.9271407  84.0373993  26.2467136   1.5779431
  86.6976547  21.9254951  17.8058510  85.9544601  21.6003971  17.2977161
  86.3220367  22.1652794  18.6529922  18.4352608  53.2077713  52.7178116
  18.3948879  53.9431000  52.1063461  17.8741074  52.5389023  52.3254395
  74.4489136  50.0406418  14.4693480  74.2212067  49.9840469  13.5413513
  73.6598206  50.3831863  14.8891315  61.5732269  68.7867126  78.8908157
  61.5581207  69.4592819  79.5717392  62.1056442  69.1658020  78.1914978
  53.4670334  14.9408340  25.7259846  52.6548882  14.4962883  25.9689426
  53.4258995  15.7811775  26.1824512  21.6564407  61.5880699  74.7626953
  22.5402946  61.9032288  74.9516678  21.1839046  61.6905060  75.5887985
  71.6571350  58.1455193  75.1970673  70.7578278  58.2259789  75.5148773
  72.0634766  57.5100517  75.7863846  15.3064528  69.2149353  38.9161110
  15.9722557  69.7980957  39.2806168  15.8024797  68.5731506  38.4078789
  49.8660698  57.4052315  55.2418175  49.5481529  58.0931587  54.6570854
  49.9955788  57.8457260  56.0817146  26.9898643  48.1252480  16.3433685
  27.4335327  47.2787399  16.2903233  27.0666065  48.3786583  17.2632198
  13.0099535  66.4290619  60.4738350  13.2874899  66.3506241  59.5611153
  13.1804380  65.5659943  60.8510323   1.7704450  33.2842636  15.0840511
   2.6028571  33.6938362  15.3197908   1.9161828  32.3484535  15.2227907
   3.6480479  68.6637802  33.4712830   2.8017535  68.9714508  33.7958717
   3.6496480  67.7251434  33.6588478  14.1233730  41.2561378  76.3539581
  13.5720778  40.7025795  76.9070206  14.1162014  42.1098671  76.7867737
   4.5588465  16.8626537  24.4163055   4.5909133  17.8030205  24.2404823
   4.7865567  16.7843018  25.3427181  42.0111465  23.4899406  75.1237488
  41.6058960  24.3477421  74.9965515  42.2690239  23.2140770  74.2441864
  22.1092911  46.8697777  82.5121384  22.4433308  46.2248421  81.8886719
  22.6636066  47.6390572  82.3810730   0.3113312  49.7174797  51.7379494
   0.7679992  50.1313248  52.4703560   0.6600999  48.8264923  51.7109108
  85.4583054  63.6021690  35.0337906  85.3042068  63.1112061  34.2266693
  85.6674728  62.9326820  35.6851463  27.0138283  51.1843529  82.1451187
  27.2180424  50.3332443  81.7576447  26.8098545  50.9884567  83.0595856
  79.1875839  37.8484612  71.4545822  78.5433273  37.6645584  72.1382065
  78.6638641  38.0227928  70.6725616  72.8447952  54.3914185  32.2638283
  72.2370377  54.3663673  31.5247536  73.2527618  55.2556038  32.2092590
  77.8550262  44.4816055  24.5188961  77.5483856  43.6690521  24.9213352
  77.0670624  44.8758812  24.1448822  86.6150131  45.3903275  39.5721893
  87.2508698  44.6893082  39.4290276  86.1140976  45.4294014  38.7574577
  23.4606323  65.7520828  65.1315155  23.8476257  64.9342499  64.8190765
  23.9649887  66.4381180  64.6942444  83.2373734  42.6225510  73.6606064
  84.1469574  42.9056549  73.7540894  83.2201157  42.1413765  72.8333206
  32.5155907   9.4583988   8.1080246  31.6041508   9.2509851   7.9018965
  32.6231308  10.3678732   7.8295960  80.2342987  30.3291054   6.8436475
  79.9965744  29.7318478   6.1344194  79.6189423  31.0574818   6.7597737
  15.8966885  10.5112867   7.3701010  15.8315563  10.6127644   8.3196754
  16.8090057  10.2650337   7.2175589  32.8298225  60.9397926  87.4544067
  32.0197601  61.0516815  86.9569016  33.5169640  60.9063187  86.7888641
  60.0051613   3.5399890  84.4639053  60.7875519   3.0889459  84.1466446
  60.0956993   4.4351382  84.1371918   5.4810467  40.7311249  20.9021511
   5.1338592  40.6171303  20.0174484   6.3752122  41.0460625  20.7698097
  73.7929611  70.2630615  24.9150829  74.5194778  69.6406403  24.9464149
  74.2136078  71.1176147  24.8200989  53.2211227  53.2297974   5.2278819
  52.4984360  52.6166687   5.3621712  53.2509422  53.3610001   4.2801852
  86.0491028  34.6386223  41.7716637  85.9457550  34.4766884  40.8339386
  86.9557037  34.9309425  41.8657455  46.5618706  16.9657001   8.2282200
  47.1754761  16.4159012   8.7155008  45.6983719  16.6220093   8.4572983
  64.2985535  14.5207329  20.0309372  64.0212250  13.8000956  20.5966263
  65.0324097  14.1637602  19.5306797  62.6607056  67.8114777  31.5527534
  63.3020668  67.8997879  32.2577972  63.1589165  67.9808197  30.7531643
  85.2809906  57.8649368  17.5535069  85.0076752  57.3083649  18.2827225
  86.1755981  58.1251640  17.7730408  26.0802784  18.2119904   1.3847439
  26.1947002  19.1525955   1.2490932  26.3765182  18.0616798   2.2824521
  15.9698095   0.8351356  87.0198288  16.8149071   0.3861305  86.9989777
  15.5436201   0.5815976  86.2011032  41.0650177  46.2629814  26.5863972
  41.2446098  45.7498131  27.3742046  41.7601967  46.9206429  26.5653038
  60.6672859  38.5455170  18.7385082  60.2183189  39.2316093  19.2324085
  60.9009323  37.8906631  19.3963909  60.7912750  31.9763412  56.2572365
  60.0450020  31.4365273  56.5178337  61.5047493  31.6899757  56.8274803
   0.9207817  21.8611050  60.4104347   0.6923387  22.7074986  60.0261612
   1.4284759  21.4184818  59.7303162  38.6026154  35.7189598  35.3833046
  39.0123901  35.3575401  36.1692390  38.0714760  35.0011826  35.0384521
  34.6711617  36.4715919  64.0482101  34.1328850  37.2374344  63.8482590
  35.5298958  36.6796989  63.6801147  13.7606592  15.7319784  15.4676323
  13.4450417  16.1703072  16.2578773  12.9758396  15.3471212  15.0775375
  14.5173502  37.8421669   7.1958723  14.5576296  37.6201019   8.1260853
  14.3330679  37.0107040   6.7589006  59.8257942  61.3504410  63.3769875
  60.5583076  61.3966370  63.9914131  60.0814819  60.6739731  62.7498932
  79.6756287  56.2669487  61.7589874  80.1935043  56.5195580  62.5233383
  78.7934799  56.1267433  62.1030693  72.9476547  57.6506500  22.9789219
  72.0331802  57.4112358  23.1294460  73.2711411  57.9142570  23.8403740
  49.0077934  51.4526329  39.5437889  49.0751305  50.5350304  39.2797852
  49.2481613  51.9457932  38.7594109  36.6852074  53.2666779  55.2633705
  36.9240036  53.7701912  56.0416298  36.9600716  53.8158569  54.5291481
  33.5750771  45.1848564   6.8089094  33.2210197  44.2997589   6.8953743
  34.2473145  45.2413101   7.4879832  42.1954155  64.7195129  83.3957596
  41.3352089  64.9138260  83.7679367  42.8136406  65.1607666  83.9782715
  10.1072245  39.0111961  30.8208771   9.8496246  38.0893135  30.8241196
   9.8236399  39.3361206  29.9663391   4.3207574  39.1558990  55.3139305
   4.6376266  39.9194221  54.8313751   4.9412813  38.4604073  55.0960503
  56.9632607  66.6885223  48.4591827  56.2410583  66.5333023  49.0679207
  56.5426483  66.7632217  47.6026001  55.1349411  25.4956932  13.7790365
  55.4042282  25.1849594  12.9146509  55.7139778  26.2365017  13.9583464
  26.0755539  59.2707748  65.5205231  25.7318172  58.5448151  64.9998932
  26.1506767  59.9958839  64.9001999  68.3875961  20.6690769   0.8420586
  68.0895004  21.4169464   1.3598046  68.5888672  19.9940529   1.4901855
  39.4838791  16.1888523  71.2997208  39.9658890  15.5553350  71.8312836
  40.1198921  16.8800678  71.1154938  82.8039551  51.8431320  36.7399559
  81.9172211  51.7989349  37.0977058  82.8324738  52.6782150  36.2729912
  38.0832443  54.1101837  27.7425385  38.3526688  53.2666893  28.1060753
  38.0033913  53.9511261  26.8020306  69.1762695  28.6071568  26.5678368
  69.9320526  28.7874756  26.0088139  69.5067978  27.9984112  27.2284527
  44.9100914  59.1628494  12.5893631  45.8603783  59.1323128  12.7000732
  44.6817055  58.3009567  12.2412024  32.9180984  37.1643639  71.5019379
  32.1975174  37.7922707  71.4496689  32.8093452  36.6101151  70.7291412
  50.9457436  30.2192478  13.4162140  50.1569023  30.6065235  13.0367670
  51.1054955  30.7301521  14.2097435  82.5332413   2.4872780  81.7778625
  82.1006927   3.1589921  82.3050537  82.0778046   1.6760216  82.0029602
  69.9701996  64.0908737  58.5368690  70.2409134  64.5853043  57.7632484
  69.0136795  64.0947113  58.5009537  48.2300644  58.2251205  31.9151630
  47.4285545  58.3912125  32.4113808  47.9366531  58.1386719  31.0081520
  85.8583755  19.7923603  21.4432602  85.5360413  19.4545975  22.2788715
  86.7940826  19.9338589  21.5870342  60.6174393  42.5325470  14.9413452
  59.9500160  42.0586090  15.4374924  61.4016418  42.4842949  15.4880915
  58.4255638  11.3127594  45.8556404  58.2184334  10.7615585  46.6102943
  58.9756660  12.0102148  46.2122536  73.7929153  20.6885757  69.4051208
  74.0651016  19.7738972  69.3309021  72.8379669  20.6507053  69.4586639
  51.9783630  32.3083687   8.3335857  51.1707687  32.7001152   8.0010796
  52.2220078  32.8577652   9.0785894  74.3521271  57.9389725  56.3633957
  74.8748703  58.2753601  57.0912819  74.1633987  58.7095528  55.8278465
  67.8511353  71.0204086  31.8022003  67.1416245  70.4367599  31.5335464
  67.4234314  71.8631134  31.9543476  75.3156738  43.2382851  60.6235924
  74.8817749  44.0514069  60.8820534  74.7394867  42.5459328  60.9474564
  83.9868622  16.4845829  26.6153774  84.5997314  15.9490929  26.1115246
  84.4319458  16.6379299  27.4488106  62.5886116  55.9040298  58.6847954
  63.4230537  55.4507370  58.8050652  62.3676529  56.2341156  59.5556870
  46.0497971  43.2678452  43.7815323  45.2969933  43.1879616  44.3673134
  46.3831291  42.3745804  43.6967125  22.0335789  43.8035240  59.0727348
  22.1539593  42.8547020  59.1112022  21.0879192  43.9284058  59.1525078
  80.2855301  52.1947746  37.3116417  79.8323364  52.5091248  38.0939636
  80.2866364  52.9453659  36.7176323   1.5392705   8.5573578   1.0028720
   2.4904461   8.4560595   1.0380225   1.2815186   8.1189404   0.1919549
  82.6525497  37.2575684  66.0008011  82.1866379  37.5038681  65.2017365
  83.3263168  36.6448975  65.7060089   3.5623229  37.2008286  46.2038536
   3.5588441  36.5392227  45.5121155   3.5204606  36.6974602  47.0169334
  21.0278168   6.8876700  72.7147980  21.8249512   7.4077902  72.6133957
  20.3171444   7.4973044  72.5159912  59.3550110  43.6728592  42.8319511
  58.7688675  44.1474304  43.4214020  58.8122711  43.4636345  42.0717621
  46.9737206   5.3243399   4.5923495  47.5316620   6.1016774   4.5662365
  46.8741531   5.1321964   5.5247655  82.5650635  68.3847961  45.0249329
  81.6594772  68.6935577  44.9963150  82.4942322  67.4542923  45.2379570
  72.8408051   9.6586733  70.9288254  72.6481705   9.1924505  71.7423096
  73.3102875   9.0200586  70.3921738  49.9645081  31.3176556  87.3489151
  49.1640854  30.8353043  87.5560150  49.6993408  31.9436855  86.6751175
  73.7183838  60.9707451  70.6882401  73.2930374  60.4117012  71.3384628
  74.5509567  60.5351372  70.5057602  55.3654480  34.7523651  66.0941010
  55.5397263  35.5238571  66.6332321  54.7608299  34.2261467  66.6173248
  43.7497749  21.8000069  52.6409073  42.8816833  22.1153870  52.8922691
  44.1153564  21.4365387  53.4474258  34.0249672  30.6558189   8.0870018
  34.2885056  30.0175591   7.4241266  33.9623909  31.4837780   7.6107674
  26.2950287  27.4242306   4.4203157  27.0139103  26.8356094   4.6504631
  26.1067181  27.2251415   3.5031817  43.2988052   5.4565363   6.1519570
  43.2998581   6.2747021   5.6551313  43.1709747   4.7754912   5.4916019
  56.8642731  36.9707298  16.7637253  57.2175217  37.5110474  17.4704800
  57.5679283  36.3552132  16.5582027   1.0879813  31.6570225   0.1843266
   1.9195336  31.9516697   0.5557232   0.4885368  31.6306362   0.9301160
  12.5942650  47.9312859  81.5230408  12.8602962  48.4140244  82.3056183
  12.5115499  48.6015739  80.8447342   8.7027483  66.5295792  21.3387890
   9.2136507  66.0999756  22.0248299   8.8054237  67.4650040  21.5139160
   1.8832945  36.8936653  76.8455887   1.8014035  36.1144218  76.2957611
   2.0402017  37.6075058  76.2274933  60.7841454  23.9232216  42.5097160
  61.6334343  23.5069256  42.3626251  60.7985573  24.1773014  43.4324646
  26.5405560  24.7132187   0.0801025  26.6354008  24.1640759   0.8583561
  25.6967278  24.4572372  -0.2922664  81.5406418   1.4631469  61.1269608
  82.0108719   0.6300841  61.1605225  80.7770004   1.3299357  61.6885109
  41.2723083  15.8368111  12.1558676  41.0600853  15.5526104  11.2668095
  41.5164719  15.0319061  12.6127539  81.0919647  26.0138931  80.8338242
  80.5617905  26.6929321  80.4166260  81.4068451  25.4758472  80.1074677
  39.1591187  58.3513985  24.5694523  38.6554909  57.5386734  24.5239525
  40.0728607  58.0697556  24.5249157  65.9318390  62.4910774  73.6835251
  65.6826248  62.8560944  74.5325699  65.9314804  63.2423706  73.0904083
  65.0529099  63.7611427  76.0608978  64.6963348  64.6477737  76.0063553
  64.8387909  63.4710045  76.9475784  31.5040493  58.2994576   5.1599088
  30.9846268  59.0295944   4.8232589  31.5230789  58.4357605   6.1071639
  78.9231720  22.9727440  56.9357185  78.6682816  22.1429482  56.5323563
  78.9048615  22.7973270  57.8765297  10.5637808  58.1552544  13.5887299
  10.0636320  58.0554771  12.7787123  11.1958723  57.4366875  13.5699873
  55.4846573  55.3992958  31.2289162  55.5756187  54.6180191  31.7744102
  54.6624680  55.2674179  30.7568550  45.8821526  27.5917416  14.8794508
  45.5154419  28.2751961  15.4403830  46.5421562  28.0426331  14.3528366
  21.9004498  16.1121006  12.8514338  22.6044827  16.3643856  12.2540064
  22.1521282  15.2434216  13.1649389  59.1837616   5.1510601  26.5132961
  59.7742996   4.5422177  26.9569302  59.4772873   6.0175228  26.7949314
   9.6759233  15.2310848  88.1456451   9.4422388  15.0948286  89.0638275
  10.6131287  15.4249096  88.1632462   6.7267017   0.4352725  52.1712456
   6.3349862   1.2421948  52.5054131   7.4290280   0.7318016  51.5924187
  84.0095520  30.0792332  48.6130028  83.6019058  29.2185383  48.5167580
  83.4078979  30.6797600  48.1729851  56.6119995   3.4019136  51.1942787
  55.7802429   2.9745252  50.9899445  56.4004974   4.3349261  51.2256927
  74.6046677  39.8566132  68.6411896  74.7518539  40.4620628  69.3678207
  75.3888397  39.9386978  68.0984421  17.5694084  56.7134094  25.5039845
  18.4432621  57.0843239  25.6265984  17.2904873  57.0357513  24.6469364
   4.1484747  17.4313393  67.6911469   3.2777026  17.0382404  67.7499847
   4.3549013  17.4174004  66.7565689  19.1688976  27.8627701  26.8565807
  19.9911366  28.2160645  26.5169697  18.9555359  28.4257450  27.6007366
  41.6217957  40.4572601  70.0123596  41.5209885  40.2377739  69.0861359
  41.5167885  41.4080887  70.0459976  18.7213955  10.3488750  83.2578888
  18.4450970   9.9948101  84.1031876  19.6721840  10.2384834  83.2512131
  75.2857056  55.5092850  34.4186821  75.9031067  55.2458839  35.1010780
  75.7664719  56.1504517  33.8952293  35.0026970   3.8191910  59.0843964
  35.3771362   3.6561689  59.9501038  35.7045822   4.2508140  58.5972710
   2.7434130  58.3956146   5.5485139   1.8749993  58.6347656   5.2246380
   2.5725989  57.9077644   6.3541546  76.1264114  34.8392105  87.5266495
  76.1628647  34.6930847  86.5813675  75.8216629  34.0060997  87.8862152
  31.6675205  29.2130337  68.6686859  31.5811825  28.5649395  67.9695740
  31.8260632  30.0388851  68.2114487  46.9993515  38.7432671  71.1357803
  47.3197479  39.4794998  70.6146851  46.3786049  38.2952843  70.5611343
   5.0744944  -0.0680205  12.6995621   5.2796755   0.3125217  11.8455591
   4.1185331  -0.0519350  12.7455063  23.3757858  46.0357666   1.5158136
  22.4935246  46.3153877   1.7600651  23.3661194  46.0213547   0.5587710
  33.1509933  15.7927790  77.3715668  33.9234200  15.3610620  77.7365494
  32.4797325  15.6935720  78.0466995  51.3710976  25.0821438  19.6030674
  52.3101768  24.9181004  19.5167217  51.2620964  25.3804302  20.5060501
  79.0278854  12.3592434  64.1014862  78.1186447  12.4242430  64.3935394
  79.4639435  13.1085052  64.5073090  21.6358662  52.5783386  43.2880363
  21.9147396  52.5997849  44.2034607  20.6809292  52.5274315  43.3296967
  47.3385582  41.1630478  11.9711914  46.7786674  41.0391922  12.7376204
  47.5300865  42.1008606  11.9635277   7.9935708  13.0551891  59.3324890
   8.8303642  13.4938946  59.4859352   7.3431201  13.7556124  59.3830109
  13.2987442  60.4090157  54.4925156  14.0597591  60.9000587  54.1827278
  13.2592993  59.6424637  53.9206123  29.1898689  54.5199852   6.2926302
  29.8629589  54.8228455   6.9021044  29.2379074  55.1328087   5.5588927
  85.0349426  61.5384407  66.5808411  84.2415466  61.3889427  66.0666275
  85.1689606  62.4855156  66.5445633  83.0378265  22.4289417  65.1825256
  83.3184586  21.6480865  65.6597443  82.1790543  22.6383629  65.5497818
  72.6683197  15.2443190  75.0236816  73.0231247  14.9283047  74.1927338
  73.2040329  14.8158817  75.6912766   7.4460459  49.7263565   9.4699545
   7.5207329  48.9117241   8.9729338   7.9263458  49.5573006  10.2804871
  10.3532887   7.1450047  81.5069962  10.0183306   7.8888321  81.0062408
   9.5691900   6.7021852  81.8315430  37.4774094  24.1513939  78.4168472
  38.1129303  23.9788780  79.1115265  37.8812943  23.7903881  77.6276855
   8.8354435  60.3059731  67.7425690   8.7575665  59.3519859  67.7510681
   8.1238241  60.6094055  68.3062744  26.7433586  64.8629532  75.9883881
  27.1193352  64.9262009  75.1103973  27.3706188  65.3172836  76.5508499
  29.5231571  12.4005499  67.7936020  29.4907608  12.3207674  66.8402786
  30.4130554  12.1354322  68.0260315  43.7941704  24.0689926  69.7651672
  44.7332191  24.2528801  69.7405624  43.4836960  24.2902660  68.8871689
  30.8603859   0.7357847  44.9395790  29.9103832   0.6666353  45.0341454
  31.0952682   0.0187748  44.3505478  39.5723839  62.5839882  74.3634796
  40.4593391  62.3566093  74.0844879  39.6937943  63.2980995  74.9892044
  49.5274200   3.3204482   5.1483674  50.0925522   3.5930858   4.4255075
  50.1339607   3.0681348   5.8445554  13.3547478  70.6863861  22.1371174
  14.1747437  71.0539856  22.4668293  12.9118814  70.3513260  22.9167538
   2.5294673  68.8185501  82.2858887   1.9138905  68.8054733  81.5529938
   3.2549560  68.2638168  81.9992371   0.9981753  62.9272804  66.8825531
   1.6321623  63.5174446  66.4751205   0.5231125  62.5411530  66.1467133
  86.4147491  46.6919250  29.9766083  85.9274521  47.2702599  29.3898335
  87.2717133  46.5960083  29.5611076  48.7900658   0.7817051  44.7593880
  49.4179497   1.2711710  44.2279587  48.4934158   1.4093578  45.4183884
   5.9014711   6.4039888  67.4939041   6.6103473   6.8409576  67.9659042
   6.0192237   5.4748421  67.6915207  73.6143417  26.1022587  12.9442263
  73.6084824  26.6389351  12.1516504  73.6946945  25.2036495  12.6244173
  38.8761978  56.4392624  61.4504471  38.0314598  56.5321083  61.8909302
  38.6971550  56.6680336  60.5383949  69.7089005  66.8873062  70.9357452
  70.6336594  66.9684219  70.7023392  69.6000519  65.9646301  71.1660690
   3.5194821  12.5039244   9.2173014   3.7547879  12.6854830  10.1271915
   4.3007278  12.7385759   8.7164774  58.9574966  68.0789642  27.5464382
  59.8559456  68.1518784  27.8684788  58.7329674  67.1566772  27.6697655
  79.1176682  33.8175011  75.7159195  78.7840805  33.2378807  75.0310898
  79.5094299  33.2271385  76.3595276   2.9403062   3.8355074  28.4238358
   3.7684715   3.4160550  28.1905251   2.7370856   4.3969688  27.6757088
  28.6785088  29.9860783  57.0042038  29.5445614  29.7172318  57.3106461
  28.6490116  29.7023449  56.0904999  66.6470947  53.8117485  70.5463943
  65.7861023  53.9497147  70.1515732  66.5743561  54.1961403  71.4199982
  46.7017174   2.4515584  85.4530258  46.2638931   3.0567632  84.8544693
  46.9128418   1.6905558  84.9121628  37.8424988  11.6559792  78.3550034
  38.0248642  10.8041048  78.7515945  38.4940453  12.2430897  78.7384262
  70.6952667  54.9084587  76.0370483  70.8547440  54.2674713  76.7298279
  71.2430878  54.6154099  75.3088684  47.6342545  57.7743797  46.7931709
  47.2473564  58.4581757  47.3399467  47.8474770  58.2167435  45.9715347
  72.7110443  59.3240128  53.0319786  73.2180710  59.7953148  53.6930618
  72.1082382  58.7780571  53.5367393  53.8052330  68.4584808  23.6381149
  53.9337387  68.0368958  22.7884197  54.5885582  68.2312851  24.1391258
  20.0332699  35.0182114  51.4591713  20.5099716  35.8472023  51.4172134
  19.1249275  35.2544785  51.2712173  42.4002380  41.6073036  46.9256363
  41.4880905  41.8974953  46.9228363  42.3998375  40.8108902  46.3946381
  63.7235107   3.5668390  49.0097198  63.6261063   4.3117776  49.6028557
  63.1223335   2.9063308  49.3540230   9.4835205  62.2253609   0.2196043
   9.7987404  63.0890388  -0.0467241  10.2291775  61.8259010   0.6675556
  17.7343121  21.6329288  65.5836639  16.9687195  21.1840210  65.9422455
  18.1276093  22.0742493  66.3365173  56.1525612  46.9847946  49.0811958
  57.0101051  47.4100533  49.0781746  56.3098602  46.1313591  49.4850960
   9.8845882  57.9630699  70.3154907  10.3212128  57.1169052  70.2175140
   8.9690065  57.7866173  70.0991440  14.5798874  17.6487942  70.4965286
  14.8907318  18.3211079  71.1028290  15.3786306  17.2574348  70.1428604
  19.3875675   8.5847912  71.2644043  19.5153084   8.3999586  70.3339462
  18.5301380   9.0079422  71.3090286  15.1551571  66.2937241  26.6123371
  15.3247690  65.5084610  27.1327534  15.6393137  66.1512299  25.7989998
  68.7503586  13.3448896  85.1958237  68.3267288  13.8461828  85.8925858
  69.0231094  14.0045004  84.5580597  59.2071114  35.1360474  16.1040707
  58.8969383  34.5511932  16.7954254  59.4279175  34.5526733  15.3780184
  81.5691452  71.2419891  51.1083755  82.3115692  70.8834686  51.5946846
  81.8975830  72.0622787  50.7402802  30.1852036  19.2799988   4.0839348
  30.2125759  19.5043335   5.0140729  30.3320961  20.1112576   3.6326454
   1.3678513  42.0355072  87.3205109   1.8691469  41.3251572  86.9200974
   1.9280031  42.8060799  87.2273254   0.2379993   8.9166403  47.4591980
   1.1825862   8.8558111  47.3167610  -0.1476976   8.6509886  46.6243896
  73.8686829  58.3579941  25.4014816  74.4064407  59.1376648  25.5399036
  73.4163055  58.2279854  26.2349625  31.6392937  66.4249344  59.6892815
  31.7445869  66.0271835  58.8250237  32.5040627  66.3525543  60.0932159
  29.3735619   7.2837172  35.3181610  29.1397209   8.2101994  35.3745651
  28.7550983   6.9186950  34.6853142  76.7625961  27.7013111   2.1016653
  77.3963547  27.8515377   1.4002292  77.0913010  26.9278393   2.5598443
   2.0581405  10.4836035  15.8843842   1.6695331  10.4120998  16.7562237
   1.3234124  10.7046165  15.3120556  32.4897957  40.4662094   3.7843308
  31.8202229  40.7054214   4.4251761  32.6533890  41.2732201   3.2962742
  34.8016663  62.5350113  75.9860229  35.3327217  62.5628281  75.1901321
  34.5350723  61.6190147  76.0641785  21.4448833  71.3523178  23.7237263
  22.3242016  71.6438522  23.4828110  21.1673832  70.7993469  22.9933510
  74.3205872  23.8150902  52.8917542  74.2721405  23.5030499  51.9881439
  74.0782013  23.0551605  53.4208908  11.3580523  60.6772614  50.0308228
  11.7533073  61.4203835  50.4866486  10.5495796  61.0279617  49.6571732
  81.2473831  47.5966225  25.9150963  81.3351974  47.6570244  26.8663445
  81.3028336  48.5026855  25.6114349  55.4988937  48.0201530  60.6801491
  55.0297050  47.6071968  59.9551926  56.0659103  48.6673317  60.2607651
  44.8298683  60.9953651  10.4584532  44.9321213  60.5897408  11.3194084
  43.8829956  61.0391846  10.3252649  65.0011978   5.7096348  81.8651199
  64.1935043   6.0633769  81.4926605  65.5365524   5.4831777  81.1046295
  44.7049141  68.7194366  27.9350624  45.1480637  68.5663376  28.7695770
  43.9058876  68.1950912  27.9884529  85.8923874   7.1995974  78.9079132
  86.2649841   6.6256919  79.5772705  86.4215775   7.9958997  78.9535751
  19.6874199  32.0681610  13.6008787  19.9110851  32.9859123  13.4461632
  20.0125866  31.8878002  14.4829035   5.5059137  27.6812782  81.8920059
   4.6043067  27.6192055  81.5765915   5.7451816  28.5978394  81.7545395
  30.6797428  45.1441231  35.4357185  31.3546276  44.8986015  34.8028831
  29.8781395  45.2115822  34.9169540  69.5966568   4.9999623  66.3502121
  68.7702560   5.1771598  66.7995453  70.2705917   5.2882051  66.9658051
  41.5547981  62.4990120  40.0036049  40.9288940  62.9554672  39.4413567
  42.3956528  62.9146767  39.8127594  31.3354549  42.1971550   9.2718010
  30.4384270  42.4419937   9.4990110  31.4917870  41.3855362   9.7545710
  13.6364584  47.6876106   1.5442246  13.3608513  47.1042442   2.2513001
  14.5862713  47.5776749   1.4995064  69.2791443  11.2139988  68.0593262
  68.5052948  10.6574507  68.1467056  68.9681931  11.9834032  67.5822983
  41.3739548  51.0600929  38.1587181  41.2895470  51.0811348  39.1119576
  40.7624321  50.3788605  37.8791008  72.7035980  23.2227612  22.4338608
  73.3499298  23.4999008  21.7844925  72.2717667  24.0334778  22.7031021
  11.8354931   4.0294523  36.3716698  11.9918480   3.1226759  36.1079597
  11.5128994   4.4573221  35.5785141   2.5041475  52.9865990  40.3120346
   2.8544321  52.2829094  40.8582497   1.5574855  52.8450432  40.3170319
  19.2534752  65.9363937  41.0276108  19.2466984  64.9826889  40.9461517
  19.3466053  66.0959015  41.9668198  83.1990509  16.2997189  84.0835648
  83.0483856  17.2445240  84.0540009  82.6885681  15.9527655  83.3519516
  23.9691753  52.3956184   0.0066889  24.1088524  52.9839134   0.7487342
  24.6593418  51.7375641   0.0895303  45.3736343  44.5880966   7.5329976
  45.6686478  44.7142220   8.4348249  44.6201935  44.0023880   7.6071644
  24.8553638  55.8285866  52.6493988  24.0703468  55.3867455  52.3257370
  24.6798630  56.7595482  52.5125122  69.2862244  26.7005997  75.3162003
  69.8158264  26.1011829  74.7904129  69.6421661  26.6212578  76.2012100
  48.6650658  19.4135303  82.0315018  48.9279938  19.0057602  81.2063828
  48.4861412  18.6771374  82.6162567   5.6497030  31.8665257   5.9345202
   6.0093212  32.6354256   5.4921403   5.0349193  31.4926910   5.3032351
  37.2129898  62.7419701   3.2509041  36.3739052  63.1855812   3.1268911
  37.7438469  63.0206871   2.5047531  64.6480865   2.3791189  32.8331642
  64.5359192   1.8322014  33.6106796  65.4800797   2.0923615  32.4566193
  43.2835274  66.2158051  52.6875534  43.8764153  66.9631958  52.6093292
  43.5736465  65.7617111  53.4786720   6.4291739  18.5712223  12.4233046
   6.8692145  19.4190426  12.4849167   5.7106361  18.6279774  13.0531569
  53.4863853  32.9026031  72.5107651  53.4924622  33.4801865  71.7474899
  53.5812225  33.4927139  73.2584305  70.1409607  33.9669304  43.3345070
  70.0546722  33.8198471  44.2763939  70.0915985  33.0917816  42.9499168
  23.4171257  14.1947594  70.6813812  22.6662960  14.2284260  71.2741318
  23.0506649  14.3913870  69.8192444  53.4970932  19.3820190  80.6722870
  52.6252365  19.7761612  80.6448441  54.0760841  20.0563583  80.3169403
  39.4083519  29.2524910  63.9419556  40.0062637  29.3458195  64.6835938
  39.7860031  29.8063259  63.2586708  37.7695351   1.9909989  69.0026627
  38.0069847   1.5293108  68.1984863  38.5284309   2.5414569  69.1958008
  28.2316780   0.8826733  37.5876312  27.6299858   1.6061091  37.7632370
  27.6929550   0.2241769  37.1490059  37.2715454  63.8657303  69.3512726
  37.6272087  62.9832993  69.2461548  36.7198715  63.9950790  68.5798035
   8.5579042  17.9623260  69.6839218   9.0218964  18.7539310  69.4113312
   8.9112577  17.7642384  70.5511780  83.7572632   8.0691328  77.5092392
  84.4290771   7.5385571  77.9374771  83.4187698   7.5089102  76.8108139
   5.8801455  58.2050972  25.9861946   4.9976783  58.3802872  25.6594048
   6.2846599  59.0695763  26.0588341  82.7351151  57.7129021  52.6236649
  82.4489899  57.1581993  53.3493881  83.5583344  57.3207169  52.3325615
  41.1574135   6.3389335  46.0708389  41.4168358   5.9641986  45.2291107
  40.8483620   7.2190580  45.8561287  56.7137718  30.1745033  26.9017887
  56.8263855  31.1187267  27.0112896  56.0176163  30.0902843  26.2502480
  35.2119179  54.6140442  46.5396881  34.8828125  54.4577637  47.4248428
  36.0136642  54.0937958  46.4869232  28.2488976   9.9305744  35.4183540
  27.8281460  10.5370913  34.8089790  27.9798393  10.2362614  36.2846069
  51.5804176  43.2141876  32.5308266  51.2278252  43.2661629  33.4192009
  52.0930862  42.4058876  32.5235214  41.8844872  63.1074638  81.1389236
  42.3855057  62.3177109  81.3426437  42.0485420  63.6926079  81.8784714
  68.8835678  23.3797550  17.7228508  68.2024460  23.3683376  17.0504131
  68.6774597  22.6331120  18.2852364  67.8870010  24.3994446  35.8115730
  68.5434723  24.9753609  35.4196663  68.2190781  23.5156250  35.6540146
   0.9169437   4.0988641  19.9716396   1.8281561   3.8268850  20.0809612
   0.4160925   3.2848375  20.0239887  23.1020126  46.4831009  70.1092300
  22.7225208  45.6474495  69.8373718  23.8003387  46.6465530  69.4753113
  11.1488428   4.0174756  58.9671326  10.2450809   4.1525788  59.2520752
  11.6225052   3.7973256  59.7692604  61.1822128  30.3357029  78.2064896
  60.7029953  30.5932674  78.9940414  62.1036873  30.3791428  78.4618835
  46.5044212  47.9409904  26.9750595  47.2458153  47.8192139  27.5681324
  46.3726387  47.0807037  26.5765934  65.3331909  63.0763016  22.2322063
  65.6747589  63.9659576  22.1423378  64.4051743  63.1953239  22.4343262
  20.6604538   1.2945354  37.7361908  20.0256615   1.5892565  37.0831871
  20.3751221   0.4100875  37.9654694   2.9228289  32.8361320  68.5199585
   3.4760528  32.7859039  69.2994843   2.5883811  31.9465466  68.4058914
   4.6347766  66.8879700  29.9407902   4.8354282  66.2020493  30.5775661
   5.4858856  67.2663193  29.7201195  15.1610985  20.3718433  19.1087532
  15.7690563  20.6221352  19.8044357  14.5951004  21.1359215  18.9989338
  37.8551826  55.2065010  67.8949661  38.6397781  55.3878059  67.3774948
  37.9659729  55.7292252  68.6891403  54.3568954  12.6803064  86.2476959
  55.0390739  13.2147570  85.8412170  54.3054543  13.0016451  87.1478806
  36.6664734  51.7881203  84.9868774  36.6401215  50.9126358  84.6007843
  37.2448921  52.2869835  84.4099884  74.7508316   0.9738000  30.9366207
  75.1540146   0.6290443  31.7333755  75.4387817   0.9118751  30.2739582
   1.1134274  48.2987556  47.4026833   0.9851875  49.0605965  47.9678192
   0.3601998  48.3091240  46.8121109  48.0439110   1.6583408  12.1880083
  47.1055794   1.4876857  12.2695217  48.0976410   2.4520841  11.6557331
  40.8531570  42.8017540  64.9314499  40.6657791  41.8639336  64.9715652
  41.0154762  42.9741058  64.0039902  42.8333626  68.2989655  30.9498215
  41.9021835  68.3516312  30.7345028  43.2243843  69.0526581  30.5079060
  70.5382919  31.0271893  86.9198990  70.4986115  31.5587177  87.7149658
  70.2148743  30.1677189  87.1899872  21.7519493  34.8454475  18.3839951
  21.6165333  35.7610855  18.1400738  22.5740967  34.8472404  18.8742008
  36.5569267  46.6375885  81.8480301  36.5524826  47.5540733  81.5718536
  37.4292793  46.3209953  81.6135025  13.1063328  54.5680275  69.6808472
  13.4398880  54.5175896  70.5766296  12.1550083  54.6022110  69.7810745
   2.4000926  39.4514999  42.0479622   1.9125360  40.0651627  41.4984703
   1.7430191  39.0866241  42.6407127  20.8834248   9.8774881  21.9256783
  20.6964169  10.7706242  22.2147579  20.7115326   9.3355598  22.6957417
  63.5633507  58.3539925  27.3093090  64.0443573  58.5535164  28.1124649
  64.0026321  58.8693047  26.6327629  10.8981171   1.6607162  45.0435143
  11.4145975   1.0041344  44.5762062  11.3017282   1.7106552  45.9100227
  38.8618546  69.7967453  47.8495064  39.1134834  69.0900116  48.4440155
  39.6056938  69.8846207  47.2535057  44.0703201  41.0004272   8.5752010
  44.9807777  41.2674103   8.7017746  43.5847588  41.8235130   8.5204973
  56.2014427   6.4493747  76.1533737  55.2759552   6.5627899  76.3698120
  56.2708549   6.7336359  75.2419968  33.0075760  61.1725960  31.4056816
  32.3104401  61.7333031  31.7460365  32.7464790  60.9865570  30.5037689
  55.3430710  30.3492775  83.6541443  54.5660515  29.8530254  83.3968277
  55.4280815  31.0262547  82.9827957  77.2738800  68.1958542  75.7952347
  76.3323364  68.3674927  75.8113174  77.3450394  67.2438965  75.8655090
  10.7532368  35.9087219  85.5707321  10.3863182  36.4169006  84.8472977
  10.2094545  35.1220055  85.6108093   2.7423046  45.8224335  59.6586838
   3.0313292  45.6674538  58.7594185   3.5488725  46.0016212  60.1419754
  53.9242058  67.9107513  49.9633217  53.2483749  67.8728943  50.6401138
  53.6180420  67.3085861  49.2851677  13.7692842  36.8295364  28.0178452
  13.8384857  37.1968613  27.1366444  13.4749899  37.5614471  28.5599976
  61.5990143  50.4612808  81.8135223  62.3216591  50.1923676  81.2463303
  61.4264145  49.6953049  82.3609848   8.4940882  40.3211098  85.2722855
   9.3598156  39.9770317  85.4921875   8.6581030  40.9522667  84.5715866
   9.9486570  64.3129120  61.0772629   9.5391521  64.1435776  61.9257126
  10.8854437  64.3590469  61.2683983  16.4621658  38.1138229  74.6773987
  16.5653610  39.0240288  74.9550858  16.7534275  38.1070938  73.7656097
   9.1039581  53.7853241   8.0449905   9.6686029  53.4585419   7.3445463
   9.3977776  54.6847763   8.1895285  78.4544525  32.2673912  63.2803955
  77.6608963  32.7995834  63.3376427  78.8612061  32.5318832  62.4552727
  43.1696625  60.8407669  81.1791382  43.1745453  60.4974327  80.2856445
  43.6964111  60.2166748  81.6784210  83.3190308  70.8053589  88.0627060
  83.3752899  71.5556641  88.6544037  84.2184601  70.4846344  87.9964142
  10.6858950  14.0891447  85.3293991  10.7100887  13.8224134  86.2483673
   9.9219809  14.6624718  85.2664413  74.7852783  67.3055954  58.3958054
  74.7590942  67.7649536  59.2351685  74.4868011  67.9542847  57.7583504
  54.7777672  54.6599350  86.2170029  53.9445381  54.3682518  85.8470306
  55.2819824  53.8550110  86.3357010  82.3839111  42.4614830  14.4990568
  82.6590576  42.1630630  15.3659334  81.7182999  43.1265411  14.6747971
  34.3714447  64.5154037  87.0682831  35.2924576  64.7532806  87.1749344
  34.3862457  63.5756683  86.8868637  23.7991505  39.8921547  59.0603523
  24.1273460  40.0472374  58.1746483  24.5611649  40.0234566  59.6245537
   3.8536136  31.7084427   1.4591552   3.2834048  31.4729919   2.1910403
   4.2837453  30.8882828   1.2171715  32.3033600  53.6799126  57.9943848
  32.1615410  52.7550430  57.7925568  33.2536392  53.7653122  58.0712471
  24.9081917  23.4195480  84.2869720  25.1732044  24.0425377  84.9636459
  24.6328392  23.9672050  83.5517960  20.0798397  68.7874451   4.0417185
  20.5213642  69.0025330   4.8633165  19.7787876  67.8865891   4.1603017
  40.5725479  67.6986923  86.3993378  40.5639839  68.4982071  86.9255829
  39.6490479  67.4672165  86.3003311  73.2534256  11.5203896  74.2765045
  72.5406265  11.2316380  73.7066193  73.7785721  12.1023026  73.7271042
   2.1626370  52.7119446  69.2959671   2.6076307  52.3628464  68.5237274
   1.3760757  53.1330490  68.9492264  12.9948111  59.0957108  32.5771065
  13.4647045  58.4322891  32.0718346  12.1093950  59.0911255  32.2134438
  13.3100090  41.3231201  69.3218307  14.1368580  40.8747635  69.1442719
  12.8634052  40.7603531  69.9543381  40.0536728  24.0265083  67.9736862
  39.5262070  24.6726322  68.4432983  39.4422913  23.6180019  67.3608475
  39.2463455  59.8570480  20.8647385  40.1248512  59.5088844  20.7122860
  39.0731735  60.4116592  20.1040497  15.8046408  15.3098459  24.5106411
  15.7346201  14.6581516  23.8130569  16.6794491  15.6830883  24.4027939
  33.4004631  46.4508743  48.2318459  33.0161057  45.8948631  47.5540886
  34.2788048  46.6506805  47.9080772  62.4632225   5.9752192  22.7533569
  63.2683105   5.5643420  23.0683861  62.7493973   6.5490494  22.0426846
  54.6998253  37.2453156  76.4769058  54.9811783  37.5992470  75.6332169
  53.9684258  36.6664696  76.2619019  69.0759506  40.8902512  49.2844543
  69.0556946  39.9361992  49.2095985  69.9427338  41.1374359  48.9622574
  65.8958054  61.8799744  26.2954960  65.3672104  61.4110489  25.6497993
  65.5065842  62.7535858  26.3347435  57.8308754  18.8440495  61.1110497
  58.0409393  18.3284626  61.8896866  58.6758385  19.1779709  60.8097687
  65.8513260  45.2258263   2.2338672  65.4870148  45.0829964   1.3603067
  65.3024216  45.9122658   2.6129930  67.8433838   5.1758199  19.4674072
  68.6365967   4.8185048  19.0681839  67.1789627   4.5016704  19.3249340
  74.6069794   9.7102013  86.6752472  75.4324188  10.1154747  86.4094696
  74.8539658   9.0932579  87.3641663  75.2408676   8.8518257  28.4642639
  74.6544647   9.6025639  28.3706589  75.1585388   8.5967112  29.3831596
  56.6325722  50.1417007  77.9507217  56.8551178  49.2158508  78.0482178
  56.9104652  50.3625145  77.0617676  76.5015411  43.0763969  67.1880112
  76.1431885  42.2520599  66.8589478  76.6849594  43.5890427  66.4007492
   0.8015749  38.3225403  38.2134438   1.6823946  37.9538651  38.2802925
   0.9175917  39.2548218  38.3967934  78.2888489  21.8043079   2.1170266
  78.9025345  21.9764500   1.4028919  77.6554565  22.5201797   2.0663161
  41.0329895  68.5527115  26.0019245  41.5511818  69.2422485  25.5868969
  41.3827629  68.4924240  26.8908863  29.3526039  15.2667627  11.4107103
  29.5417976  16.0240612  10.8566895  30.2040291  15.0107708  11.7653580
  35.5713043  54.4639282  21.5659943  35.0705223  53.7256050  21.9128761
  36.4731522  54.1453056  21.5288696  85.5371780  70.5014191  40.0607910
  85.1399765  71.0908737  40.7018852  85.0294418  69.6931000  40.1318130
  -0.0167764  33.0008583  47.1395378   0.1608557  32.0605240  47.1183815
   0.5848615  33.3728256  46.4946289  85.5360565   2.4909830  86.6390915
  85.2846375   3.3991473  86.8071976  86.1803131   2.2911837  87.3182373
  37.0754356  65.6804199   8.8642273  36.6660309  66.3166046   8.2778101
  36.4725151  64.9369888   8.8695831  73.9782639  18.0312099  10.9063997
  73.6088562  17.1519547  10.9881382  74.2452164  18.2625008  11.7960453
  27.2212105  69.3283386  45.7134209  27.2221813  68.6359329  45.0525093
  27.6098347  70.0827103  45.2705612  49.7552223  53.4872322  34.3905907
  50.3076172  53.4267082  35.1699677  49.3497276  54.3521919  34.4510002
  15.2976494  38.4499931   4.6241660  15.1344070  38.2896118   5.5536079
  15.0229845  37.6423950   4.1899061   1.6719861  35.1480179  39.6252480
   2.5284126  35.3281441  39.2375374   1.0472769  35.3403206  38.9259720
  39.0243187  47.4154015  56.4226952  38.5617142  46.9252701  55.7429886
  39.7287483  46.8306923  56.7021942  43.4393768  49.6818199  65.2304535
  42.7513885  49.0951424  64.9162674  43.2722359  49.7658806  66.1691895
  53.8653488  18.0848103  85.5372696  54.1604767  18.6664276  84.8366623
  54.0075264  17.2032318  85.1925430   3.4322915  15.5902796  43.7709465
   2.9545968  15.3001528  44.5480347   3.9155743  14.8155565  43.4837646
  53.4733238  57.6769676  77.7399063  52.9578400  57.1210213  77.1555786
  52.9820595  57.6814156  78.5614090  75.7453232  58.8204460  14.7935419
  75.4753799  57.9831848  14.4162416  76.7009659  58.7735634  14.8214808
  21.2133007  57.2373619  37.0118637  21.4481735  56.3123131  36.9386826
  21.0816631  57.5232887  36.1078987  71.5960236  47.7137642  32.6355095
  71.6759186  48.4299965  33.2654762  71.4864349  46.9310036  33.1754265
  57.5588074  23.1773796  41.6171112  58.3684959  22.9933796  41.1408958
  56.9098091  23.3394489  40.9324493  68.7407074   1.5808527  59.5558510
  69.1813812   1.7875458  60.3800545  68.6002808   0.6346282  59.5900650
  23.3155117   6.6400971  62.1188126  23.8219662   5.9639430  62.5688705
  23.8038845   6.8086047  61.3130035  79.8061752  36.2841301  74.7686386
  79.6837463  35.3833885  75.0684967  78.9570694  36.5323677  74.4030838
  82.0618439  30.9584084  19.0546589  81.9474792  31.5684147  19.7833862
  81.9363785  30.0932674  19.4445591  43.4885025  39.6687927  24.5613918
  44.1693726  40.2828522  24.8363152  42.8600388  39.6690407  25.2833805
  70.0432663  26.1209564  32.6079330  70.8350449  25.6879787  32.9270630
  69.5768890  25.4401340  32.1229515   0.1195628  53.7613106  82.9319000
  -0.1720570  54.5719414  82.5146866   0.7406399  54.0467949  83.6019745
  82.6967392   0.8180289   3.7090828  82.5571518   1.7274362   3.9731393
  83.1917496   0.8791301   2.8920979  78.7960815  63.5404587  28.0556812
  79.2438889  62.7116356  28.2252407  79.3139420  64.1932449  28.5267620
  80.1307983  28.7451916  74.8673019  79.2012787  28.9041462  75.0315094
  80.4994583  28.5652637  75.7321396   1.7462006  21.5019627  87.1776352
   0.7985137  21.3692818  87.2003784   1.8556659  22.3894882  86.8362427
  40.7164268  71.2037048  52.9656105  39.9045601  70.9165115  52.5477295
  40.5127831  72.0720367  53.3131104  17.8943005  69.4509201  42.8856735
  17.8722973  70.2778931  43.3671951  18.4605923  68.8839340  43.4091873
  61.2105331   2.0721526  51.4778099  61.6816673   1.7545809  52.2481461
  60.3472099   1.6634076  51.5396996   3.1971052  63.7240562  87.2487335
   2.7864444  64.1894531  87.9774246   2.4845281  63.5762253  86.6269531
  36.9930649  71.2459412  41.1567307  37.7458115  70.6798172  41.3273544
  37.0816002  71.4910355  40.2356834  45.6605568  68.1843033   6.1979403
  45.2781563  68.4284058   7.0408025  45.6508904  67.2271500   6.1987562
  27.0326328  19.1631317  68.1947250  26.2495747  18.9085484  68.6828232
  27.6120319  18.4038849  68.2585449  72.6880722  23.0864239  26.6591244
  71.9215164  23.1469231  26.0890751  72.3420715  22.7677250  27.4927578
  10.8821812  27.3437634  32.8809052  11.0113010  26.4009762  32.7774200
  11.6817694  27.7350616  32.5290871  49.0808487  30.1445427   8.9309158
  49.0992393  31.0527401   9.2326946  48.9820747  30.2097301   7.9810600
  59.8041420  39.2716370  50.3032036  60.3940315  39.5961380  49.6227913
  58.9397354  39.5893555  50.0422707  59.3035316  56.1431732  71.5349884
  59.1708336  56.1055717  72.4822006  58.6509056  55.5410080  71.1776199
  47.0964012  26.5069580  58.9676018  47.1365128  27.4494305  59.1299782
  46.1666489  26.3273582  58.8278122  79.6679077  62.8408775   8.4151115
  80.5505981  62.4833679   8.5114365  79.3391495  62.4520531   7.6045775
   3.7527430  59.0479431  16.8257465   3.8336658  59.1210442  17.7767143
   4.6133757  59.3011856  16.4919643  81.3882904  68.4878540  75.1040726
  81.9725189  69.0464554  75.6167831  81.5698700  68.7227554  74.1940842
  67.3518753  50.5340004  87.5676422  67.6324005  51.1547050  88.2401428
  68.1494293  50.0605545  87.3310242  27.6964149  35.9721947  86.2393417
  27.3996048  35.0649338  86.3101654  27.7454014  36.2795219  87.1445389
  37.2751579  67.3099518  34.8173714  36.9833374  68.2214890  34.8301430
  37.1100960  67.0181580  33.9207954  54.1785126  61.3762283  18.3269310
  54.6452560  62.2075043  18.2411404  54.6806831  60.8856277  18.9775982
  36.2836609  14.1048641   3.4143867  35.9018211  14.2735977   2.5530159
  35.5294113  13.9989090   3.9941418  11.7264242  10.2585049  85.7879257
  12.1018248  10.4172726  84.9218445  10.8001337  10.4797697  85.6917038
  10.9765892  64.3768158  88.4354019  10.5748005  64.5858231  87.5921249
  11.9115191  64.3035355  88.2436523   0.1824866  60.4809837  50.0418739
   0.1063351  60.7458534  50.9585381   0.0998878  59.5275345  50.0604057
  79.7524033   9.3995981  80.8084335  80.1245804  10.0849295  80.2534256
  80.5091705   8.8934679  81.1040039  46.9356499  57.6775627  39.3015480
  47.8459892  57.8884735  39.0941124  46.8842468  57.7498169  40.2546310
  77.1544266   2.5300305  20.9258022  77.4120407   1.6507256  20.6488762
  77.0531464   2.4620860  21.8752003   2.5577266  70.6369629  62.3206215
   1.9264536  69.9361725  62.4837456   2.5013433  71.1953812  63.0960083
  50.1903877  51.3177986  78.7455750  50.2003860  50.8955078  79.6045303
  50.5103035  52.2046661  78.9109573  26.3555984  38.9839783  77.3838348
  26.6839142  39.2698517  78.2363129  26.2852592  38.0324936  77.4610672
  84.4551468  36.2688217  78.1447983  84.6751404  36.2134514  77.2148666
  85.0785904  36.9017372  78.5011292  85.2692337  34.1177521  79.3979340
  85.5982971  34.3707428  80.2604599  85.0623245  34.9474106  78.9677200
  16.1110363  42.9986305  25.8981342  16.2832947  42.3116951  26.5420895
  16.9153004  43.0498810  25.3816433  82.9337387  11.5973845  23.2493439
  83.8408585  11.7369061  22.9774933  82.4818726  11.3316011  22.4484653
  17.5968609  10.7143288  77.6800995  17.5898609  10.4581251  78.6023483
  17.2799511   9.9405756  77.2141495  68.9960175   8.6051702  76.5345917
  69.5073395   9.2995024  76.9501419  68.1575699   9.0172062  76.3261185
  27.9917278  25.8707504  76.5528030  28.4540310  26.3702927  75.8797760
  28.4118633  25.0107307  76.5437012  53.7907562   4.1494880   0.9522499
  53.9646339   3.2094538   1.0005537  52.9655380   4.2160454   0.4718154
  75.3174820  70.2475967  11.8276405  76.2636185  70.1268997  11.7470646
  75.0509109  70.6188812  10.9866180  53.6696281  27.7427654  76.1188049
  54.0241127  27.9951363  75.2662277  54.4279442  27.4250431  76.6089478
  82.0875549  33.3969345  25.2234955  82.4434814  32.5090866  25.1878586
  82.4784775  33.7803574  26.0086098  83.0529099  41.6825829  16.9158440
  82.9219971  40.7762566  17.1945248  83.9784851  41.8549614  17.0885792
  65.6905136  64.6147537  14.7706947  66.0041199  64.8026505  13.8860598
  64.8738403  65.1084442  14.8451967   9.1368055  39.2962112  68.1500015
   9.1424084  39.3659477  69.1046448   9.8924656  39.8115311  67.8677750
  40.8956223  63.2451897  77.5852585  40.3067551  62.5191002  77.3796768
  40.6026154  63.9589615  77.0187759  62.5477638   4.9822726  46.7162971
  62.3884735   4.1985292  47.2422295  62.1200180   4.8002377  45.8795624
  52.1308136  25.4504929  75.5701218  52.5272369  26.2815018  75.8318558
  52.7677917  25.0589924  74.9724426  42.2644386  12.7134113  67.5151215
  42.2268867  13.1099491  68.3855133  43.1203079  12.9699726  67.1717606
  63.9216652  14.3215628  60.6380424  64.1110382  14.0905361  59.7286491
  62.9723625  14.4419260  60.6618843  28.5292168  63.4937286  51.8951721
  28.4999218  62.7289848  52.4700966  28.5567360  64.2413559  52.4922752
  83.4181137  48.4167557   8.8671083  84.1026306  49.0030632   9.1894598
  82.9710083  48.9213219   8.1875935  46.8905678  40.0487518  59.7895203
  47.4322357  39.9024086  60.5650291  46.0199852  40.2405167  60.1381531
  12.0919800  16.6949291  70.7386322  12.9518995  17.0987034  70.6214218
  12.0245752  16.5443878  71.6815109  70.0429840  15.2479677  75.0183258
  70.9921722  15.2666245  74.8961639  69.6962662  14.9956064  74.1625595
  55.2660828  56.4943314  51.2282448  55.6233559  55.9180183  51.9038582
  55.9639282  57.1275291  51.0600090  84.9054260  19.1168747  54.3165359
  85.0045166  18.1760521  54.1707077  85.7424316  19.3905582  54.6917076
  68.4350128  59.8473282   7.5615382  67.5163727  59.9140930   7.3010087
  68.7386551  60.7541351   7.6032448   7.9447608  45.9126205  70.2525787
   7.8540039  45.3127975  70.9929886   8.2275648  46.7380066  70.6462708
  29.5271416  64.8633728  73.6636963  30.1721516  64.2049103  73.4055786
  28.6933441  64.5211258  73.3413925  42.3216743  37.3865776  55.5229225
  42.5411034  37.9820747  56.2394905  43.1461563  36.9463692  55.3163376
  85.3599854  70.7835617  60.4049644  86.0776749  71.3717728  60.1701164
  85.6281128  70.4000320  61.2399788  43.8814735  70.6951523  45.2655945
  43.9409447  69.7792282  45.5372047  43.0511284  71.0000153  45.6314049
   2.9399915  10.0917873  27.3319397   2.3254297  10.5408936  27.9123287
   2.9164319   9.1787815  27.6184673  35.0289497   2.9203508   2.2794206
  35.4753456   3.6791553   1.9036863  34.2964897   2.7551496   1.6857492
  48.8953705  49.4442368   0.6829749  49.1550293  48.6866150   1.2072055
  48.6553535  49.0761681  -0.1674066  12.8187828  52.9606400  42.7973480
  13.6775513  52.6110687  43.0351486  12.8962870  53.1743546  41.8675346
  29.4687042  45.9111519  66.5337219  29.1659794  46.3482246  65.7377548
  28.7651482  46.0527992  67.1671066  30.2893810  69.7211227  40.8250275
  29.8962479  69.2020645  40.1234169  30.5299797  69.0784988  41.4923973
   5.2813115  25.5735397  78.3670273   5.7753968  26.3895130  78.4463882
   5.8819394  24.9716339  77.9274979  38.3331909  53.5219421  20.6955700
  38.8986206  53.9703331  21.3244286  38.2225533  54.1505699  19.9822540
   6.1311564  71.6609497  60.5593681   5.4966745  70.9786377  60.7787170
   6.9709978  71.2033920  60.5201759  68.2322388  18.5667171  29.4880638
  68.0576019  19.4899025  29.3051395  67.3665009  18.1813831  29.6231709
  38.3255119  45.9152946  54.3319397  38.0523491  45.8709564  53.4156151
  38.8940582  45.1542625  54.4494705  24.2187386  60.6368217  37.0432129
  24.1881886  59.7600060  36.6604767  24.6879597  60.5212746  37.8694763
  64.0952377  21.9869556  76.2824936  64.4811630  22.7551537  75.8615875
  63.8092232  21.4338665  75.5554962  13.6458130  68.9683533  72.0394287
  14.3464136  68.8506317  72.6809311  12.9268017  68.4288101  72.3682785
  76.3992310  49.3878441  -0.2040997  77.2085724  48.8871613  -0.1015467
  75.9037781  49.2085457   0.5950352  28.8573093  56.0541229  34.1431808
  28.1424160  55.9862099  33.5102921  28.4827385  56.5427475  34.8760986
  70.5643311   8.4065742  64.6570435  71.1705856   9.1456985  64.6082535
  70.9117508   7.8578429  65.3601913  43.9837227  66.2679291  73.3442459
  44.9063530  66.5226746  73.3350067  43.6511879  66.5412903  72.4893112
  56.7398529  62.0002136  87.1310272  56.9870796  62.9103432  87.2946701
  56.8693352  61.5619164  87.9720688  46.6508331   1.1879431  29.3172855
  47.5224838   1.2781998  28.9321804  46.2172203   0.5278562  28.7764549
  57.6426926  69.8525696  31.1342793  57.8085136  70.0986404  30.2242336
  57.0892563  69.0738525  31.0747986  23.8097820  12.2167883  49.9789696
  23.2406750  11.6130209  50.4562683  24.4013786  11.6487312  49.4854546
  53.5993042  29.6273823  64.3186340  54.1068268  29.4726353  63.5219460
  53.7197075  30.5590820  64.5021286  33.3656311   0.7474475  19.3839760
  33.4876518   1.0921249  20.2685890  33.7439842   1.4155000  18.8123245
  67.7772217   5.2309804  42.2636948  66.9222565   5.6587324  42.2157364
  68.0219650   5.2877469  43.1873360  81.7919312   9.9145365  58.6963234
  82.1267853  10.7446117  59.0355568  82.5257874   9.5420876  58.2074776
  87.0003510  27.1452446  20.8054428  86.1044540  27.4713039  20.7200375
  87.1214676  26.5758762  20.0455856   8.9482079  44.1260376  68.3814774
   8.9787798  43.3880539  68.9903107   8.3960285  44.7743683  68.8185043
  26.5275249  51.7214699  35.1779251  25.7821274  51.1372757  35.0388870
  26.4727325  52.3542519  34.4618149  17.9694118  40.6132355  86.6980515
  17.0631046  40.3097916  86.7506332  18.2178173  40.7842560  87.6065063
  32.5628929   3.1477282  28.0242386  32.9991798   2.2965868  28.0622311
  32.6705170   3.5114791  28.9030647  25.3683815  65.4613800  71.8362350
  24.9937687  65.4192810  70.9563904  24.6641216  65.1615601  72.4110031
  56.7500191  42.6456032   6.7506185  56.4168358  41.7509270   6.8197074
  57.5659218  42.6366539   7.2510695  58.5541000  64.3433228  11.8774967
  59.3229408  64.7368240  12.2901373  58.7798729  64.2936249  10.9486332
   1.5730553  32.0065575  54.0703392   1.8990694  31.2525120  54.5616226
   0.8245360  31.6672478  53.5796051  79.2943192  40.3001404  23.3235931
  79.3051453  40.9804535  22.6503258  78.8036194  40.6880188  24.0481606
  19.5539227  53.8439445  45.7097855  19.3094940  53.0054932  45.3180161
  19.5534077  54.4598846  44.9770813  13.6129332  26.9320316   8.8652496
  14.4229803  27.4417038   8.8822651  12.9929810  27.4834671   8.3879557
  68.5014114  40.7250633  27.8818359  67.6422958  41.0885887  28.0963020
  68.7263031  40.1807327  28.6363945  51.9112434  45.3837280  15.4493637
  52.2287827  46.0131569  16.0968361  52.5932503  45.3660851  14.7779551
  17.9979782  17.8463821  10.7778301  17.3579617  17.2636242  10.3691692
  18.8140354  17.3461113  10.7741737  50.2738876  57.2692375  78.6313553
  49.5932198  57.9395638  78.5714722  49.9653587  56.5631981  78.0634155
   3.6152639   2.8236880   9.2346735   3.7162819   3.7749827   9.2020292
   3.2710857   2.5896585   8.3726969  16.6714020   0.8869804  56.3232574
  17.5383968   0.4940082  56.2226448  16.0617867   0.1765729  56.1234512
  84.0201416  28.9517212  40.4651947  83.7875061  29.3506660  41.3036194
  83.8460083  29.6352997  39.8181763  29.9779625  33.9276009   1.0180489
  30.1719742  34.5606422   1.7093159  30.7390060  33.3472099   1.0043041
  45.4433594  57.4457436  15.8195391  44.7030220  58.0449753  15.9146709
  46.1778870  58.0092545  15.5763264  82.9929886  43.2147865  36.4431953
  83.3581696  42.4115486  36.0721436  82.5456543  43.6359100  35.7091827
  61.1051064  43.3080406  11.0252342  60.6290398  42.6518288  11.5341349
  61.6601257  43.7519913  11.6664019  11.2327557  61.1053391  19.5086212
  10.9824572  61.8110657  20.1048832  10.4394779  60.5778275  19.4154778
  40.3651085  65.7714615  14.5854406  41.2422943  66.0005646  14.8924990
  39.9207420  66.6127472  14.4805279  26.0297756  40.7291946  63.2127762
  26.5624580  40.1286545  63.7341499  25.1709690  40.7159920  63.6352806
  73.3747940  71.7111511  77.9137268  73.1379089  70.7900543  77.8055496
  74.2602921  71.7743530  77.5557709  84.0243225  14.3908930  30.9286747
  84.0920868  15.1814394  30.3932533  84.8797684  14.3136797  31.3511314
  15.1058893  38.5665703  46.9150391  15.2945518  39.2210922  46.2425499
  14.9927692  37.7496643  46.4291382  12.3025131  38.2084694  76.0409012
  11.6152582  38.6398430  76.5486679  13.0234776  38.0963326  76.6604691
   4.5035276  62.8195076  25.7627087   4.7723727  63.6949921  26.0410671
   3.5669651  62.9023170  25.5831966  34.7906265  42.9964371  85.6394272
  35.4555931  43.6463394  85.4121017  35.2166824  42.1534538  85.4842148
  85.7163620  41.7891693  17.5306740  85.4979477  41.4487114  18.3982067
  86.3363037  41.1535492  17.1730461  43.8052216  68.3927307  33.7445526
  43.2863159  68.6766052  32.9919701  43.6665001  67.4466324  33.7879601
  58.9805756  45.3400497  71.5026474  59.8844681  45.2289314  71.2079239
  59.0254173  45.2446327  72.4540253  33.7222710  48.5670433  21.5934372
  33.9508743  48.3302994  20.6945915  34.5170708  48.3910751  22.0969868
  54.2300415  49.2270432  80.1728897  54.0367317  50.0011597  79.6441116
  55.1711349  49.2797661  80.3395996   1.0675123  19.8760662  48.9080353
   1.9921703  19.6512222  49.0114021   0.6927170  19.1353207  48.4315300
  63.6301384  56.9064789  71.7450333  62.8419838  57.3745537  71.4694443
  63.4427071  55.9877548  71.5525513   2.6556921  14.6439285   2.8062358
   2.3556848  15.1070108   3.5884006   1.8603318  14.4993229   2.2936707
  75.5889206  18.9262714  55.0185699  76.3701019  19.3551750  55.3678894
  74.9185333  19.0684795  55.6868401  20.0882587  53.9893684  73.1537399
  19.4334908  53.3529091  72.8666382  19.9990330  54.0115891  74.1065063
  61.0910263  53.9271088  71.4672318  60.7281990  53.1157494  71.1118622
  60.3400803  54.5171204  71.5319901  42.2985802  62.9660187  16.5567970
  43.1492538  62.5570259  16.3976879  42.3242607  63.7773285  16.0495033
  30.2661114   0.7459773  20.5675488  29.7935429   1.4824251  20.9555645
  29.8946609  -0.0273521  20.9920712  40.2262344  62.4124489   5.9067035
  40.3281631  61.5218925   6.2424903  40.5936699  62.9704056   6.5922008
  81.4963303  60.0980721  58.7129326  81.7155991  59.5026703  59.4296265
  82.3341293  60.4841690  58.4574814  15.1572657  17.9058151  23.0814457
  14.2702446  17.7648258  23.4124241  15.6543865  17.1524677  23.4001427
  65.1462555  71.4674759  14.7936850  65.7817307  71.9940796  15.2785463
  65.6215897  70.6685867  14.5655260  47.6063766  58.6504707  41.8841972
  48.1618347  57.9363899  41.5714912  48.0850143  59.4459419  41.6510315
  29.8826313  46.8112907  39.0535774  28.9740334  47.0771675  39.1949654
  30.1863289  46.5282021  39.9160500  23.5778580  69.7572479  16.6386528
  24.1458035  69.6965179  15.8705502  22.8706741  69.1364594  16.4633141
  85.0049896  23.8895569  14.9818316  85.1681366  24.3298569  14.1477137
  85.8529282  23.8959179  15.4258919  51.0805168   4.7831149   3.2413321
  51.7946358   4.9458685   3.8575904  51.0222130   5.5867639   2.7246299
  38.3708191  52.3361206  78.3604355  38.3367348  53.2398567  78.6740112
  39.0568199  52.3399391  77.6928864  83.9905548  20.4197636  74.7215729
  84.2575607  19.5051517  74.8133392  83.8948975  20.7327518  75.6210861
  74.2391281  27.2587929  45.1924973  75.1056519  27.3254795  44.7913437
  73.6291122  27.4270344  44.4742966  67.1400604  36.3420334  69.7476883
  67.8423996  35.8128815  69.3696060  66.5552521  35.7054100  70.1587067
  79.7182083  65.7201767  39.4390984  79.8374557  66.0020828  38.5321579
  78.8755188  66.0936813  39.6971779  28.5346813  55.7776909  71.4351883
  27.8492928  56.3630905  71.7573471  28.2682190  55.5664978  70.5404129
  71.8467941  39.7807007  16.9598866  72.4321747  40.4823608  17.2448997
  72.2387314  39.4563255  16.1490841  25.4684334  60.4056892  71.4078751
  25.9466724  59.6264191  71.1245728  25.9757423  60.7427826  72.1462784
   7.2659869  65.8068619  79.7832489   6.7468433  65.7806244  78.9794846
   8.1615505  65.6290970  79.4958496  55.8184128  46.2006187  57.8418007
  55.7689934  45.2642021  57.6496620  55.6175804  46.6269875  57.0086670
  10.2662115  38.7773819  80.6779938  10.1861191  38.0742188  81.3224869
  10.8478651  39.4156570  81.0909271  66.6535187  16.0674248  31.1996460
  65.8699188  15.6936684  30.7965202  67.0955963  15.3198862  31.6021214
  17.8586941  50.7120132   5.4548330  17.4415703  50.7561188   6.3152366
  18.3243656  49.8757248   5.4570022   2.1578271   1.9437616  78.3498154
   2.7177644   1.9004337  79.1249390   2.6086664   1.4065868  77.6983414
  72.1834106  39.6882210   6.5213881  72.0231400  38.8414268   6.1048722
  71.5639038  39.7175903   7.2504854  84.1462021  65.8322678  56.7263069
  84.7567291  65.2910767  56.2257080  84.2291489  66.7049789  56.3419685
  69.6767807  38.6736679   5.4483829  69.5310364  37.8219185   5.0366635
  69.1597290  39.2849159   4.9237227  71.4979477  42.4421501  77.0547256
  71.8892441  41.6269455  76.7407761  72.2287140  42.9258766  77.4397202
  54.9521599   8.6620007  61.9283142  54.0537796   8.9204607  62.1340752
  54.9868164   7.7286501  62.1378098   6.9143939  34.4002953  57.4801483
   7.7556505  34.5202522  57.0395470   7.1064925  34.5449486  58.4066505
  31.3225231  34.0900383  77.4529114  32.2442513  34.1397362  77.7062454
  30.8613110  33.8850403  78.2662277  78.7656479  38.9890442  66.1554413
  78.7933350  39.9026985  65.8713608  79.4821472  38.5685730  65.6799774
  24.3732243  21.7314510  60.2778397  24.8667393  21.6087456  59.4669037
  23.8908768  22.5472584  60.1435661  28.1320400  70.7676926  34.6290703
  27.9682655  70.7470551  33.6862106  27.6123352  71.5062637  34.9463272
  33.1553230  61.0107422  58.3536415  32.3357697  60.5267830  58.4553833
  33.5998573  60.9085808  59.1951790  69.0738602  61.3683319  58.4740219
  69.7290649  62.0598793  58.3807716  69.2312469  61.0052185  59.3455772
  30.8986778  44.4619064  49.9620285  30.7003441  45.2578049  49.4686279
  31.3549328  43.8995209  49.3361015  56.8663101  37.4417877  26.9616737
  56.7954254  37.2423553  27.8951797  57.4293976  36.7515297  26.6113739
  83.8815536  44.8855858  19.4881706  84.3335648  44.5406380  18.7181511
  83.7116165  45.8031654  19.2750969  82.9560013  70.0753021  14.6238537
  82.8867188  69.2667007  14.1163197  83.6501465  70.5715790  14.1901464
  78.7327499  28.1378098  70.2900085  78.0651169  27.5288868  70.6057739
  78.2599564  28.7287865  69.7039642  51.2357178   3.2161045  44.0448685
  50.5785904   3.8453677  43.7474823  51.4487152   3.4950628  44.9354019
  11.9741783   7.7916427  70.6734314  12.3690186   7.0532370  70.2096558
  11.6709223   8.3762474  69.9788055   4.6685996  24.3444805  44.8259850
   4.6662498  24.8997993  45.6056290   4.0609374  24.7741737  44.2240372
  27.9808655  60.7249641  47.8510666  28.8442955  61.1341324  47.9085464
  27.8443775  60.3315964  48.7129593  77.2213516  62.7215805  56.9275208
  78.1225967  62.9587631  56.7090378  76.8243713  63.5394249  57.2271309
  70.0595627  26.5991058  28.2156181  70.0167770  25.6448765  28.1535892
  70.9592972  26.7813969  28.4866943  75.5658112  69.2007446  14.5651131
  75.1707535  68.3649139  14.8132076  75.5284195  69.2088165  13.6086779
  73.8515701  13.7174425  55.2178497  74.1022568  14.6263227  55.0525513
  73.1765060  13.7743788  55.8940697  73.0476074  25.8404160  58.6702805
  72.5189133  25.8208466  59.4679794  73.6067963  26.6105576  58.7723846
  84.2501831  13.3465118  72.6988449  84.5270157  13.3979464  71.7839966
  83.8591385  14.2013798  72.8791809  74.7946777   7.0532265  10.2595968
  75.2572556   6.2210975  10.1605196  74.6801529   7.1525421  11.2047167
  37.0707130   3.2013903  12.1046209  37.1400566   2.7300172  12.9348202
  36.7837791   4.0805387  12.3516016  61.0344582  51.0985184   2.0885854
  60.1957092  51.3434219   2.4794197  61.3908920  51.9205704   1.7518086
  63.8369064  22.1279602  18.7972164  63.6426697  21.5935230  19.5672035
  63.1255989  22.7676239  18.7640152  46.5476646   1.3177284  54.3433876
  47.3550110   1.7502880  54.6214409  46.8009949   0.4054823  54.2024536
  56.5009384  56.7464752   0.8912529  56.1903725  57.2589569   1.6376729
  56.6735497  57.3961830   0.2098458   5.2665739  61.3270302  31.7689285
   4.7103605  62.0952034  31.8984013   5.2544198  61.1791649  30.8232975
  49.0099144  16.1631870  55.4604301  48.5360527  16.7539387  54.8750267
  49.7666550  16.6714439  55.7524033  60.6371040  17.0708866  83.6931000
  60.9725533  16.4901447  83.0101318  60.4227600  16.4865913  84.4203415
  72.1077194   9.4202728  80.7912674  71.3004837   9.2099857  81.2607117
  72.1342392   8.7939224  80.0679321  13.6292315   2.4358249  40.7787781
  13.3907948   2.9742591  40.0241470  14.5510740   2.6395566  40.9366798
  73.7858963  61.7834930  28.9946918  73.9197998  62.3084145  28.2055378
  74.6516418  61.4280663  29.1956806  40.3953323  56.6872063  68.2385559
  40.2603760  57.5755234  68.5685730  40.9705887  56.7977638  67.4815216
  11.3787918   1.0199271  31.2591228  11.1626787   0.2052592  31.7128220
  11.8562021   1.5363241  31.9084644  70.3699112  70.3108902  81.2672729
  71.1834259  69.8676529  81.0265198  69.9358139  69.7051163  81.8679581
  37.6228714  56.9368820  51.1607552  38.1174812  56.5564194  50.4349174
  37.2489243  57.7409325  50.8003387  78.0034409  16.1987495  22.5333080
  77.7140503  17.0689793  22.8075104  78.6139145  15.9228792  23.2170086
  41.6487656  41.5291634   1.9568063  42.0817680  41.9645119   2.6911163
  40.7510834  41.3880272   2.2576094  13.3389549  71.0639114  58.8169327
  13.8043680  70.6131744  58.1123352  13.8383007  71.8683472  58.9575462
  62.9661369  51.8529091   8.6898642  63.7102890  51.2511673   8.6703892
  62.4527168  51.6240501   7.9151011  86.3510284  57.0937996  76.0525436
  86.2050858  57.9778748  75.7158890  86.9014587  56.6736794  75.3916702
  37.5579834  64.4461899  51.4404564  37.9454689  64.0874023  52.2388039
  37.1153870  63.7014389  51.0334053  37.6062088   3.1469507   6.9394660
  37.6366539   2.2837126   7.3519278  37.0774918   3.0176656   6.1520801
  31.8809757  51.2937622  14.2316408  32.3818130  50.9019012  14.9470663
  32.0079994  50.6960449  13.4948721   4.8942909  61.9479523  83.7379074
   4.1702309  61.6214333  83.2037201   4.8985538  61.3800545  84.5084305
  25.5808277  40.8133659  11.4313421  26.5339336  40.7341919  11.4707813
  25.2582054  39.9446678  11.6711559   0.8495440  44.7469940  23.2941322
   0.8298739  43.8463554  22.9705677   1.3458413  44.6972046  24.1111031
  65.7669678  42.8484421   8.1386948  66.6525574  42.7209053   8.4788399
  65.6646881  43.7987747   8.0873032  15.1004791  30.1571064  82.3450241
  15.3135471  31.0370197  82.6557999  15.6667099  30.0281982  81.5841064
  48.6001892  51.4608650  15.2680998  48.4115715  51.5507660  16.2022171
  48.4484444  52.3346405  14.9079342  21.0341549  13.4985590  77.2547836
  20.7491970  13.0774498  78.0657730  20.3921318  13.2198915  76.6017990
  52.4185066  63.6826744  18.9664955  52.9763680  63.2241364  18.3381882
  52.0837097  64.4378891  18.4829712  80.4080963  34.9019508  28.6996899
  80.7696609  35.3604584  29.4581566  81.1755981  34.5926971  28.2185001
  66.8134460   6.0605192  33.9416542  67.6315689   5.6862626  34.2685204
  66.4960785   6.6071386  34.6604805   6.1349759  36.0998650  15.0411100
   6.1697626  36.2099533  15.9913216   6.6600475  36.8223953  14.6969023
   2.6750109  57.8585129  87.6360245   3.0749936  58.4174118  88.3022614
   1.8985903  58.3414650  87.3528976  56.2826958  25.3340054   6.6443038
  56.8917847  26.0474205   6.8347812  55.9550819  25.5268974   5.7658429
   2.6738491  42.7843742  12.5946140   3.2232275  42.5684204  11.8411026
   1.9299660  42.1856689  12.5280972  15.4227781  17.4437332  19.7751446
  15.4659052  18.3252258  19.4045486  15.8462715  17.5223122  20.6299610
  81.8677979   0.9164669  30.0847054  81.6659317   0.8285849  31.0162411
  82.7904892   0.6713826  30.0154171  20.6604500   8.8620033  87.3911743
  19.9939461   8.1754599  87.3653793  21.0859299   8.8150377  86.5350189
  67.0807953  43.6157417  87.7738037  67.3222961  43.0646973  88.5182877
  67.8035507  43.5122681  87.1548157  34.0568047  63.0851822  14.1568527
  34.6105080  62.4559631  13.6945438  34.2981682  63.9341354  13.7863741
  75.2436295   3.4628429  48.3544960  74.8286285   2.8601615  48.9715729
  75.3463593   2.9510233  47.5521774  48.1909752  42.4454384  51.6211777
  48.6650276  41.6700287  51.3207703  48.8710632  43.1061859  51.7520294
  47.8561516  16.2220440  80.2749329  48.7869759  16.3891029  80.1269913
  47.4162254  17.0025425  79.9380112  62.6566315  41.5373993  21.2055302
  63.1032410  40.8904457  21.7516270  62.8477783  42.3768501  21.6238766
  77.7286224  22.1395607  81.3527603  76.9382324  22.3525410  80.8566208
  77.4691696  21.4094486  81.9147644  35.9103622  68.6445618  39.1167259
  35.7382545  69.5662842  38.9242706  35.0564995  68.2195435  39.0360336
  62.0330353  42.3042412  71.8468018  61.6522179  41.8371506  72.5904617
  61.3941956  42.9863510  71.6398010  24.6592197  46.8467407  62.7731323
  25.0582695  46.3830681  62.0369263  24.5478249  47.7440491  62.4590263
  31.5455189  47.6140862   1.9838243  31.4332829  47.2995148   1.0867857
  32.4418221  47.9490433   2.0097921  70.7838593  33.5242577  35.0538788
  71.3250427  34.2370720  34.7143974  69.9441910  33.9366798  35.2566032
  65.9206390  19.6181507  13.0590343  66.0590363  18.7610569  12.6559610
  66.7869644  20.0252228  13.0596819  76.0385666   3.8032079  63.3847809
  75.2409973   4.2917366  63.1811790  76.0368729   3.0731504  62.7657127
  43.7088966  13.1513557   7.0985279  42.7552414  13.0693445   7.1055131
  44.0251198  12.2581253   6.9629760  67.1892700  51.0975685  69.6535797
  68.1149292  50.9655876  69.8584213  66.9576416  51.9096184  70.1043015
  67.4845581  52.7026443  85.7808075  67.7160568  52.2980385  84.9447784
  67.3599319  51.9647484  86.3776398  39.7794418  24.1503277  10.4494543
  40.4696617  24.1178417   9.7870550  39.6937981  23.2458057  10.7506819
  55.7764587  69.4616928  62.3493080  55.4561424  68.7900314  62.9513855
  55.5532379  70.2900467  62.7738533  66.5998306   9.0890150  80.8542938
  66.0981140   8.5183411  81.4364014  66.0595551   9.8740339  80.7643890
  60.4394073  29.7158108  87.9723206  60.8951225  29.1674633  87.3336716
  59.8681107  30.2737789  87.4445648  62.7552605  40.6003189  18.5170803
  62.1050797  39.9024429  18.4366684  62.8114357  40.7681007  19.4577866
  70.7166595  15.7253847  70.5155945  70.4816132  16.5675411  70.9051590
  70.0793762  15.6005831  69.8123703  30.1467628  68.4003754  46.6512260
  29.4129944  69.0040207  46.7671318  30.9222889  68.9613495  46.6613235
  57.3184776  24.6342983  24.3299618  57.1794701  25.0527020  25.1795788
  57.2698288  23.6962414  24.5141182  14.4475727  58.3346443  43.9316444
  14.1905098  57.8475571  43.1487656  14.0764637  59.2075806  43.8032227
  30.6567726  13.5880404  71.1010284  31.3437634  14.2452431  71.2122040
  31.0048943  12.8035908  71.5249176  -0.0547538  57.8207397  64.5594406
   0.7011482  58.2617722  64.9471664  -0.5207206  57.4435349  65.3056412
  13.1373510  45.5660553  77.6777649  12.3506889  45.0302048  77.5764694
  13.3610086  45.4902000  78.6053772  86.0223770  56.3836250  73.1486130
  85.2807846  56.9270401  72.8822021  86.7937393  56.9015579  72.9184341
  36.0380363  11.2901440   9.3455973  35.3664513  11.9509335   9.1765909
  35.5752068  10.5908470   9.8071222  76.6284180  29.6523666  62.5985603
  76.9570160  29.9264774  63.4547806  75.7964478  29.2189426  62.7888451
   5.6808257  65.0647354   0.6998706   5.4930425  64.1731720   0.9932596
   5.7532496  64.9934235  -0.2519174   0.8676184  12.3436069  28.3405342
  -0.0119477  11.9674711  28.3739567   1.2054560  12.2421818  29.2303715
  63.3735046   8.9745750  27.3024178  63.3452263   8.5374765  28.1535206
  63.0506859   9.8587408  27.4764004  57.0806770  10.4340878  62.8772469
  56.5104561   9.7458696  62.5345535  57.5216866  10.7866821  62.1043167
  43.4943581  10.8228016  70.8706589  43.5572510  11.2637405  71.7179184
  43.8866119  11.4378157  70.2508774  55.4568901  16.6622715  88.4787979
  55.7740936  16.0658798  89.1569824  54.5591507  16.8667679  88.7404785
  15.4187536   7.6239209  30.1842728  16.0933285   8.2484798  29.9176121
  14.6158524   8.1431332  30.2289829  40.7936935   1.3856729  26.0012493
  40.1573296   1.4465715  25.2888126  40.4372864   0.7152171  26.5840836
  81.0565262  38.1729164  60.4739456  81.6592484  37.7469139  59.8644562
  80.7978134  37.4783897  61.0797005  27.3423252  26.0049152  62.6552849
  27.4347057  26.5766239  63.4174156  28.1290798  25.4598579  62.6679764
   6.1122603  66.3792343  69.4338531   5.7955852  66.7565536  68.6131363
   5.4453335  65.7363510  69.6749649  57.1725121  52.9834518  58.9294968
  56.8252869  52.7891083  58.0589256  58.0291405  52.5566788  58.9464493
   9.7838640  17.9120026  12.7402744  10.5655699  18.3317432  13.0994196
   9.2280083  17.7489891  13.5023003  65.4582825  22.0080814  49.3415451
  65.5064087  22.8118515  49.8591042  65.2807465  22.3076096  48.4499207
  46.7364693  23.4235001  59.4787292  46.8744965  24.2487030  59.0137367
  46.8624763  22.7487030  58.8116455  77.7223206  54.4977379  51.2659874
  78.2607498  54.9024773  51.9460716  77.5693665  53.6066437  51.5802956
  19.4908619  69.1551132  23.2520084  19.0732155  70.0163345  23.2622948
  19.1542912  68.7163620  24.0333214  23.2411709  16.4819717  86.1815872
  23.2942677  15.8567371  86.9044266  23.8530388  16.1443748  85.5274658
  11.8875189  61.6784821   1.4090158  12.2600031  62.2058029   2.1157115
  12.3624535  61.9574013   0.6261532  82.9607315  32.3060226  33.6079254
  83.8134842  32.0504913  33.2561493  82.5549393  32.8150558  32.9061775
  40.9012070  70.8053360  28.6307125  40.9188080  71.2480774  29.4791832
  39.9722099  70.6484756  28.4616299  17.6466217  57.1344299  61.1392746
  16.7782803  57.0138588  60.7549858  17.7805386  56.3545952  61.6779366
  41.7826271  37.1684074   1.8198277  41.0698280  36.6185951   1.4944726
  41.3841782  38.0302582   1.9409857  14.6982660  49.4950180  76.7512512
  14.9144878  50.3561745  77.1088715  15.5259666  49.1669006  76.3998566
  44.1806450  25.5816402   3.0954566  44.3579865  24.6448383   3.0106785
  43.4961128  25.7552586   2.4493117  13.4628487  65.2767181  22.7161083
  13.5949297  64.3458633  22.8958168  14.2370253  65.7036819  23.0829659
  70.3847046  46.1242752  60.2001266  70.3420563  46.4347954  61.1045570
  70.3225555  46.9193344  59.6707420  34.3772316  58.4161949  38.9328156
  34.3379517  57.4916992  38.6878624  35.3127403  58.6166954  38.9620094
  76.1288147  19.5657120  42.6044197  75.2883148  19.7110596  43.0387840
  76.5204620  20.4369545  42.5429192  63.5521927   8.3674688  39.6414337
  63.8698921   9.0712996  39.0758171  64.1806335   7.6565909  39.5151634
  19.4370937  17.2779236  59.7163658  18.9599972  17.4741344  58.9100685
  18.7539539  17.0769863  60.3560333   2.7311218  32.6026192  41.2993584
   1.8783289  32.9966354  41.1157112   3.3368959  33.3433380  41.3239594
  76.0045471  38.8286133   2.6495008  76.1170959  38.8886032   1.7008350
  76.3052750  39.6749725   2.9803643   9.6629639  60.1810455  22.0898800
   9.5155792  60.8792496  22.7278633   9.1149931  60.4200821  21.3423367
  67.2507706  53.2628250  13.0976763  66.7838745  53.7706184  13.7612953
  67.1624069  52.3541603  13.3853416  50.2687607  66.8610687  53.0866394
  49.3520126  67.0575714  52.8937874  50.3196945  65.9056091  53.0597687
  38.7246590   5.7340403  38.2196770  38.1167946   5.3504467  38.8518105
  38.3152542   6.5609736  37.9651146  66.6599350  46.9291420  23.0961781
  67.2912750  46.2799530  23.4063377  67.1983414  47.6332283  22.7347736
  78.2229843  41.3236542  64.0488663  78.2740173  42.0724411  63.4547729
  77.3270035  41.3452263  64.3849945  50.1741104  69.0503235  68.7814102
  50.5112915  69.1810837  67.8951569  49.2295380  69.1822968  68.7002029
  20.2301636  61.7793465  46.1769104  19.8592548  62.5413666  46.6218681
  19.5591717  61.1020584  46.2622414  65.2337723  62.1148911  17.6644039
  65.6407547  62.9679832  17.5133038  64.4489212  62.1235390  17.1165314
  23.9591427  61.6925507  16.5304012  24.1930771  62.1765022  15.7383814
  23.0120621  61.5699768  16.4652328  75.2466812   5.9177837  37.7936821
  74.6279144   5.2028685  37.6444969  75.9289169   5.7853374  37.1354675
  66.2327271  44.5849113  84.4855194  66.3797531  45.2710381  83.8344879
  66.2869644  45.0376930  85.3271103  77.0798874  62.3826714  51.4253044
  77.1914291  62.0975075  50.5184021  77.9389572  62.2490311  51.8257790
  15.6733503  29.5129128  73.8012695  16.5417633  29.4031143  73.4139252
  15.3414078  30.3251266  73.4187088   2.9034748  23.3014584  69.8616180
   3.2941084  23.4974918  69.0100250   2.4533672  22.4666615  69.7322006
  54.0710068  17.9202404  58.3290253  54.6043892  18.6456013  58.6539726
  54.6966133  17.2115898  58.1784782  86.4011459  26.7132778  47.7857323
  85.8902435  25.9180431  47.9367790  85.7643509  27.3484802  47.4582558
  67.8176041  30.6074715  13.0575190  68.3661346  30.8048077  13.8167315
  67.0520782  30.1646576  13.4237394  55.9042931  17.0793896  29.0700531
  56.5732002  16.5104599  29.4509888  56.0530434  17.9315853  29.4797707
   7.5142083  32.6890602  59.9923019   8.4521236  32.8188133  60.1326942
   7.1050596  33.4648323  60.3757172  10.0892067  15.3487310  59.1119957
   9.6778927  16.1721745  58.8493271  10.5654802  15.5640106  59.9138985
  54.9908676  41.1622276  84.2989731  54.7425003  41.4963913  83.4370651
  54.1616211  40.9144516  84.7078629  18.6194382  34.6651764  70.3168106
  18.7173443  34.0685844  69.5746994  18.4970474  34.0899429  71.0720291
  58.8850060  54.6937485  35.3760872  58.6893196  55.2164001  36.1537590
  59.7851105  54.3959732  35.5079041  14.5355396  68.7760391   4.3220372
  13.7221584  68.7385330   4.8252630  14.8580570  67.8748093   4.3205900
  50.0451088  12.3038664  16.0642166  49.7069588  11.5436478  16.5374527
  49.4680672  13.0226917  16.3221798  41.3709564  14.5301685  72.1891174
  41.8716736  15.0836411  72.7884369  41.0440865  13.8173323  72.7379837
  74.4794846  27.6564064  62.8576202  75.3097458  27.1865158  62.9357376
  73.8191223  26.9665890  62.7920494  22.5613422  39.8668518  74.0202942
  22.5759983  40.2425346  73.1400146  23.4843159  39.7667465  74.2533798
  70.1964417  67.3259964  67.8000107  70.6586075  67.8086395  68.4853516
  70.5897141  66.4534378  67.8147812  33.3329086  23.3711720   2.6896520
  32.5471840  23.9098091   2.7831340  33.5538788  23.1125965   3.5843821
  49.8507652  22.8218670  35.4576759  49.7129097  23.5045452  34.8010330
  50.4334259  23.2235947  36.1021538  56.4410172  35.9254646  23.2222061
  56.7750931  35.9117317  22.3253021  56.7708244  35.1163330  23.6130562
  14.4141216  36.5169525  60.3768311  14.8714962  37.2331047  60.8174744
  13.4913721  36.7701035  60.4029007  75.7478333  29.9659214  41.2790031
  76.4690170  29.4622841  41.6564560  76.1759109  30.6788445  40.8049583
  46.0450478  24.0797253  64.6775970  45.8135757  24.0024605  63.7520256
  45.9821320  25.0167274  64.8628082  59.6377335   6.8047848   1.1888688
  60.4148636   7.2913404   1.4637551  58.9043884   7.2947125   1.5609022
  80.1682129   0.5354896  45.8580933  80.5210495   0.9391276  46.6510696
  80.6778107   0.9215627  45.1457138  60.4874535  51.7500648  64.2956390
  60.1049156  52.5999527  64.5137863  60.6728935  51.3461761  65.1434174
  80.3908463  70.3967896  63.8764381  80.6808014  70.2103653  62.9834671
  80.8863068  69.7856522  64.4216461  85.1659317  33.3410606  23.5813980
  84.6265182  32.5898972  23.3343697  84.6105499  34.1015358  23.4097500
  20.5283718  58.2666588  58.0998344  20.8077183  58.3438034  59.0121078
  20.3884430  57.3285866  57.9707031   4.2800899  56.2340279  14.5024834
   5.1738400  56.3344536  14.1748285   3.9388556  57.1273155  14.5451860
  54.3194962  48.5435066  32.5389442  54.1640129  48.6796265  33.4735718
  54.9169350  47.7965698  32.5018196  30.4086857  61.0442390  36.6202850
  29.7080250  61.0138359  37.2717323  31.1707191  60.6803589  37.0709839
   4.3487635  41.2763176  40.6098289   3.8813944  40.7363091  41.2471581
   5.2403541  41.3344803  40.9532166  43.4982834  47.8626785  24.3076725
  43.6567383  46.9750061  23.9864788  42.8505020  48.2241936  23.7027626
   9.3192673  50.4858627  66.8581924   9.0574703  50.6558838  67.7630615
  10.2601900  50.6610718  66.8441391  77.4607849  24.6916008  77.7753143
  78.2113647  24.1421814  78.0011520  76.9329605  24.7158794  78.5734634
  43.8984146  34.7424011  70.8942032  43.5997162  35.6478767  70.8098068
  43.0927238  34.2270622  70.9331894  73.8655701  56.9508095  40.5769157
  73.6746826  57.7635727  41.0451202  74.6903458  57.1239090  40.1230278
  82.3995438  27.6292915  24.5116596  82.2148972  27.6642532  23.5730877
  82.6809769  26.7276802  24.6669731  34.0307541  67.6897659  85.7875519
  34.5238876  67.0438156  85.2817841  34.6944542  68.3006973  86.1077118
  63.1736069  16.3150940  27.5569534  62.5690651  17.0540619  27.4884739
  63.8525124  16.6162148  28.1608105  22.6858482  35.2115021  84.7948990
  23.0882702  36.0791473  84.8333664  22.6349564  35.0123177  83.8600388
  49.4808159  18.5899448  23.1317234  49.2954330  19.5114002  23.3127804
  50.4362221  18.5390472  23.1027603  85.5973206  66.8885880  32.9957809
  86.5189362  67.1394882  32.9333420  85.3759460  66.5702057  32.1206474
  58.3267059  69.0512085  65.6548080  57.4291611  69.2813873  65.8949432
  58.5600891  68.3412552  66.2529068  51.8783455   2.8481228  77.2911835
  51.9913788   2.8605530  76.3407593  51.6182709   1.9485780  77.4897079
  24.0071430   1.6325403  57.4450951  24.2734394   2.4893284  57.7786102
  23.1470757   1.4799045  57.8365250  39.3476753  65.7651825  18.4306908
  39.3486977  66.7191162  18.3517284  40.2513466  65.5086594  18.2468319
  44.7399864  53.4187889  57.3664284  45.4020462  53.0945320  57.9769707
  44.6475716  54.3463936  57.5837860  69.8787689   7.9103498  53.9752045
  69.8424606   7.5216970  54.8491936  70.0541229   7.1719956  53.3918381
  14.6219444   5.6125913   2.7155924  14.9084768   6.3903909   3.1942980
  14.0936604   5.9559474   1.9949991  29.3121777  18.4417191  71.2079315
  29.8266163  18.0345287  71.9049149  28.7196617  17.7504444  70.9124756
  40.3506889  28.5598049  72.3447647  41.1562996  28.9406834  72.6942673
  40.4573021  28.6043072  71.3945618  25.9559593  31.5128765   3.3469071
  25.0498810  31.4608917   3.6511316  26.0190372  30.8424549   2.6666226
   4.0025663   1.6222422  18.3818951   3.7604542   2.5045614  18.1006012
   4.8674183   1.7262272  18.7786942  77.7693100  17.1368217   3.6194932
  77.2971497  16.3042622   3.6312010  78.6713257  16.9037285   3.8392153
  54.5873756  60.8878250  10.9776945  54.6602440  61.3067284  10.1201143
  53.6910591  60.5530319  11.0053291  60.4088898  47.2464218   4.8873811
  59.7868500  46.7371941   5.4069815  61.0216522  47.6038589   5.5300260
  55.6164856  18.2402782  53.1245728  54.6986198  18.3877869  52.8965492
  55.7519455  17.3039589  52.9790154  77.2183380  56.0600700   7.5427847
  77.3861694  55.6043968   8.3676643  77.2677002  56.9890862   7.7680116
  85.2355881  19.9451313   3.8851802  85.7204895  19.1996841   4.2393122
  85.7377625  20.2138672   3.1158705  82.3873978  69.7911606  85.8333969
  82.4516830  69.5608063  86.7602386  82.7829819  70.6608200  85.7747421
  76.7326279  25.8621941  62.4816437  76.9285431  25.5515270  61.5977097
  77.5704575  26.1852531  62.8131638  67.1724930  29.0264893   8.1098661
  67.5544281  29.3108234   7.2795005  67.4400558  29.6968365   8.7385740
  57.7815552  24.5277901  74.6936417  58.2394600  25.3617802  74.7985916
  58.2482491  23.9239483  75.2714005  19.8172970   7.0184636   9.3988581
  20.0950031   6.6102071  10.2188807  19.1670399   6.4151459   9.0391273
  48.4040337   3.1419580  46.2064705  49.3301392   3.2246959  46.4338760
  47.9546242   3.7281930  46.8152313  66.2318192  61.6141739  35.0661774
  65.6230850  61.2226295  34.4397812  66.9293900  61.9825363  34.5240211
  63.1795616  56.0379562  55.9682961  64.1130676  56.2383423  56.0364151
  62.9142723  55.8255348  56.8631325   9.6281872  13.3716812  80.7426682
   9.5455370  14.2894955  80.4837875   8.9919910  13.2640276  81.4496994
  44.0118446  30.6352043  80.8210449  44.0921936  29.7108402  81.0562592
  44.6624832  31.0783463  81.3655853  86.1762772  71.4031219  80.5156860
  87.0760269  71.0814667  80.5723724  85.6383820  70.6588135  80.7857132
  17.5761509  47.0771599  48.4468231  17.0834312  46.3356743  48.7984772
  17.0120335  47.8347549  48.6019058  14.6081982  45.1220474  57.1757622
  15.4973173  44.9221840  57.4686050  14.2091007  45.5787315  57.9163017
  75.8624802  10.3149986  47.9596214  75.6873322  11.0434656  47.3638916
  75.1357269  10.3347282  48.5822563  44.4651909  60.3188896  16.8146381
  43.6893768  59.9059067  16.4354439  44.4024620  60.1318474  17.7512875
  17.1820450  45.5859833  36.8873405  17.3738766  46.4641190  37.2164421
  17.9934540  45.3065491  36.4633560  19.7654495   3.1792848  34.0933151
  19.7835236   3.0920763  33.1402664  20.6111164   3.5695295  34.3141975
  26.2945366  15.2425900  26.5213051  26.6835842  15.5080557  27.3546124
  25.8927002  14.3933210  26.7043400  14.1300230  65.1789932  33.8854752
  13.3295946  64.9990082  33.3923721  14.6660805  65.7019806  33.2893562
  13.5655346   9.9800014  52.5409966  12.8155775   9.6242476  52.0643044
  13.1774359  10.4872074  53.2539864  25.3011799  29.5273170  87.2357483
  25.2352142  30.1059227  87.9954224  26.1537552  29.1028004  87.3313293
  -0.0574190  37.9757729   8.1258345   0.0208224  37.0642815   8.4074278
   0.5014625  38.4624367   8.7316751  41.0747147  43.6899071  67.3979492
  40.3428726  43.3118362  67.8854980  40.8800354  43.4918747  66.4819183
  78.9139938  18.2678490  17.3055897  78.8843307  18.9800644  17.9444180
  78.2938766  17.6199913  17.6402016   6.7659435  37.8736877  33.4566002
   6.0979018  37.2326393  33.2136841   7.5911112  37.4774704  33.1767044
  49.1443443  13.5302515  55.8739624  49.0644188  13.3102131  54.9458313
  49.2063866  14.4853172  55.8892059   3.5616455  48.9929008  10.5927591
   2.6952384  49.1112595  10.2034492   3.7806115  49.8512993  10.9553070
  64.4702530  34.9017372  38.7952995  64.1967850  34.0048981  38.9879837
  64.8749542  35.2083054  39.6067581  77.1401367  35.0637016  80.3887634
  77.2713547  35.1302071  81.3345871  78.0113983  34.8779449  80.0385666
  40.6017914   1.4051213  81.4863358  41.5531807   1.4600601  81.5761795
  40.3086243   2.3163104  81.4818192   1.7375313  35.2646484  42.2954941
   1.8837429  35.4053001  41.3600426   2.6038446  35.3624306  42.6906815
  77.7392883  25.9265213  45.7600441  78.2460327  26.4922295  46.3426437
  78.3262787  25.1959076  45.5654068  58.5206947  49.3769951  89.2480469
  57.7853928  49.5302544  88.6546860  58.9557610  50.2269897  89.3148270
  43.2575874  57.4424629  77.0689545  42.9697723  57.5207977  76.1594238
  42.8857307  56.6123962  77.3672028  54.8630486   4.6756692  41.0880394
  54.5426292   4.0444846  41.7323761  55.8038826   4.5074840  41.0353432
  62.0194664   7.4053345  19.3640938  61.2260895   7.8196955  19.7033386
  62.6974602   8.0747032  19.4563103  67.4325867   4.4260020  31.9178715
  67.3112793   5.1514702  32.5304184  66.5474930   4.2096214  31.6245861
  29.7600002  58.8226433  62.0789719  29.8065014  59.4979744  62.7557259
  29.1322060  59.1643791  61.4423256  67.9386292  12.9648046  49.8207779
  67.3564835  13.0675392  50.5736275  68.4019699  12.1437902  49.9865685
  51.7502670  28.5206871  35.6079407  52.1401443  27.6483574  35.5507812
  50.8307953  28.3587246  35.8190498  47.0341682  55.6849556  21.5435505
  47.7682838  55.0774422  21.4527931  46.7956238  55.6357841  22.4692459
  55.8572197  14.3187075  42.9650650  55.3392296  15.1130104  42.8346748
  55.3054924  13.7601709  43.5126648   7.3242397  40.7920532  89.1419373
   8.0919466  41.3636818  89.1518478   6.8612723  41.0267067  88.3376770
  81.5078506  56.7373009  18.4180145  81.0662537  57.2040100  17.7084980
  81.9463806  56.0042839  17.9860344  27.0914364  51.2944984  60.3958397
  27.8515491  51.1089401  59.8444519  26.5145607  51.8184662  59.8400497
  73.9926682  54.6554375  24.7322350  73.9176941  55.4969940  24.2823486
  74.0877686  54.0147324  24.0274792  36.7907257   1.1125236  57.7981949
  36.2751732   1.3836279  58.5577583  36.2895241   0.3939174  57.4126625
  59.9799843  18.7104588  50.1040344  60.0034523  17.9713287  49.4962769
  59.4142189  19.3537579  49.6770554  75.6950607   4.9173479  73.4923553
  75.5385971   4.0939188  73.0300674  75.4176788   5.5947514  72.8755798
  30.7335873   3.0636680   8.2113876  29.9243355   2.7716784   8.6310129
  30.4455299   3.4789903   7.3985152  29.9053669  23.5822048   6.4838424
  29.9872360  24.0484562   7.3157916  30.5821857  22.9063282   6.5204525
  72.0289536  66.9124298   6.3114219  71.4000168  67.1478500   5.6293297
  72.4102249  66.0873642   6.0112109  82.3335876   3.0302744  44.0905647
  82.8414307   2.9027834  44.8918610  82.9834290   3.0031433  43.3882790
  61.9804916  71.0120163  80.5374222  62.6922150  70.7108307  81.1022034
  61.2433128  71.1475601  81.1327591  42.3814430  22.2985821  81.3239670
  42.8944054  22.0478745  82.0922394  42.6270714  21.6610870  80.6535187
  82.5247269   2.2368267  32.9755745  83.2019653   2.3897219  33.6345062
  82.3593979   3.1003814  32.5971909  68.5090637  67.1240463  46.0909309
  69.3678589  67.2712708  45.6946716  68.4167862  66.1716232  46.1156387
  47.5617180   4.1425161  72.6344986  48.0939255   4.4620109  71.9058609
  47.9125099   4.5928779  73.4028397  51.9922523  40.2483521  75.8536835
  51.0515594  40.4198647  75.8974457  52.3428955  40.6294060  76.6587219
  60.3039169  67.1113052  71.4950638  60.0838203  67.7928543  70.8600235
  59.4587822  66.8240509  71.8407059  83.7019043  30.8946648  38.5367584
  83.9660034  30.7005405  37.6374245  83.6347504  31.8490582  38.5659523
  14.2809458   5.4926987  67.1826706  14.3763618   6.4394393  67.0786972
  15.1401682   5.1969862  67.4835434  79.0248184  65.8217850  71.8242340
  79.5464172  65.0925980  71.4888992  78.9220428  66.4075851  71.0742264
  68.2014160  50.8039703  40.2971077  68.2330551  50.5952797  41.2307434
  67.4713516  50.2846107  39.9602013  68.0595398  15.4738264  68.7622223
  67.8244934  14.6368446  69.1627808  68.0050049  16.1060257  69.4788742
  30.2311020   6.7793016  82.0682678  30.6225395   6.3465056  82.8270111
  30.4064903   7.7100797  82.2065506  80.9498062  37.4642944  52.0712013
  80.9860535  36.7879448  51.3948402  80.3057480  38.0935326  51.7464218
  81.4028702  49.6549568  39.8306389  81.2754822  49.9942055  38.9446831
  80.7364655  48.9742889  39.9245911  77.3071976  56.8590927  81.9800568
  77.8437347  56.4544411  82.6616745  77.9195023  57.4030495  81.4846573
  50.0141792   5.9358921  72.7934418  49.9466362   6.6662068  72.1783676
  49.6040306   6.2595205  73.5954819  72.6482086  60.3629456  48.6743965
  72.0880203  60.7667198  48.0115356  73.4151611  60.0606384  48.1879539
  69.2069778  14.2582293  37.8996964  68.9465942  14.4299421  36.9947395
  70.1289291  14.5129957  37.9361000  22.2391262  27.6992893   4.2528605
  22.1704483  27.3070602   5.1233039  21.8097725  28.5504303   4.3391323
  40.1239738  43.0378380  35.4222832  40.4155006  43.6540756  36.0942154
  39.7678337  43.5917511  34.7276039  20.4905281  65.4483948  81.7661667
  19.7701340  65.8741379  81.3014069  21.2797661  65.8558731  81.4093781
  12.9259787  63.9825783  61.5447769  13.6408529  64.2874908  62.1035385
  13.0972481  63.0484619  61.4250946  84.4372406  23.3768177  59.5656471
  84.3843231  22.8051834  60.3315887  84.7762756  22.8139076  58.8696404
   7.2995205  34.8003349  72.3689117   6.8015413  33.9983635  72.5273056
   6.8531704  35.4665794  72.8915253  72.9488297  45.5178642  78.7801743
  72.1583176  45.0617332  78.4916306  72.7437057  45.8152618  79.6665802
  20.0800056  70.0109940  11.2098589  19.1337814  70.1147156  11.3105259
  20.4372902  70.8792648  11.3961229  75.2038193  18.2761993  27.2946129
  75.7372742  18.7371140  27.9420795  74.3201141  18.6207886  27.4233131
  82.5150757  39.1164474  17.5238419  81.6386108  38.8302155  17.7809544
  82.8643112  38.3874779  17.0111332  81.7065506  33.5499802  20.8786831
  81.9667816  33.8719482  20.0156364  80.9522629  34.0885773  21.1178169
  32.2421875  49.6320686  51.1961479  32.2011223  49.3501549  50.2823257
  32.5821571  48.8709145  51.6665688  42.9236145   1.3888693  29.4845371
  43.2185593   2.2916527  29.3652859  42.0452309   1.3717034  29.1045685
   4.6709290  67.3630905   3.4208081   5.5243874  67.5042191   3.0110240
   4.8739567  67.1658859   4.3352060  61.1173897  15.6460600  45.4127045
  61.5692711  16.4033051  45.0403938  61.6981201  14.9072495  45.2306557
  39.2107353  26.1261635  76.9178162  39.0625877  25.3363857  76.3976898
  39.2155609  26.8374100  76.2772446  63.6539001  68.7714615  82.0566711
  62.7100792  68.6189499  82.1033096  63.9948921  68.4153290  82.8771133
   7.4253397  31.2570057  52.2362022   6.8361783  31.0559177  51.5090981
   7.7784381  32.1215820  52.0262947  73.8546448  16.3244190  86.5361023
  73.5219269  16.2430420  87.4299240  73.6689987  17.2314529  86.2930832
  61.2730637  69.7709579  27.8723011  62.0162849  69.2455597  28.1686287
  61.6662445  70.5825806  27.5515156  23.9469910  43.1315613  56.9336281
  23.3154507  43.4128380  57.5956459  24.7987385  43.3742981  57.2967186
  58.3597603  38.1524620  59.9015961  59.0651016  37.7169914  59.4229622
  58.7117233  39.0172729  60.1124458  20.0517197  68.9753571   8.2501841
  19.2929554  68.6069260   7.7976713  20.3840294  68.2551422   8.7859993
  36.5345421   7.4123411   5.0888157  35.7503624   7.3276048   5.6311421
  37.1320152   6.7446728   5.4256768  12.1236401  16.2400990  24.7197323
  11.3282719  16.6773148  25.0238113  11.8070374  15.4988823  24.2034054
  83.3751221  68.8290863  39.6030121  82.5736771  69.3016739  39.8279076
  83.4317245  68.8936310  38.6496696  43.6926765  64.4329910  24.4141865
  44.4961662  64.9472809  24.3358307  43.5647926  64.0544815  23.5443554
  47.6684952  45.6337395  71.6340561  47.3236961  44.7472992  71.7416000
  47.5036545  45.8450089  70.7151337  13.0057173  66.3510513  46.0141716
  13.1417627  65.6108246  46.6055984  13.7420950  66.3086777  45.4041023
   1.4577004  17.6768742  59.9926605   0.6999500  17.1153088  60.1560326
   1.9906582  17.1843834  59.3684502  51.2914238  35.6191025   2.5852084
  52.0432358  35.9631844   2.1029029  50.5297356  35.9462204   2.1066084
  80.2265930   7.7256985  44.3681793  80.4826965   7.4279504  43.4952583
  80.9766235   7.5128193  44.9234810  70.8559875  61.9415779  53.5272369
  70.2371902  61.4039040  53.0330391  71.6711121  61.8884888  53.0282593
  68.1474609  54.3385124  61.4536552  68.2886429  55.2484703  61.1923599
  67.2174606  54.2946854  61.6759262   6.8438578   6.5133300  56.1182137
   6.9279799   6.1043510  56.9795456   7.0150204   5.8041158  55.4985771
  24.1411362  65.7814560  53.9479752  23.6403008  65.1129074  54.4153595
  23.8891010  66.6050873  54.3655052  58.7875061  46.9034119  52.6067314
  59.5041695  47.1495247  53.1915894  58.8596344  47.5110435  51.8706551
   0.3133814  61.5591660  24.8529835  -0.0731208  60.6834679  24.8526096
   0.7610606  61.6230202  25.6966305   1.4767058  14.0012894  80.7413712
   1.0805033  13.2958765  81.2528839   1.8550035  14.5884266  81.3958893
  82.7124023  43.7557106  41.8790474  83.0326996  43.9417953  40.9964333
  81.7737427  43.9383621  41.8366737  71.2754822  57.3470764  85.5086746
  70.3669052  57.6135063  85.3681870  71.3291245  56.4697151  85.1297379
  10.8073387   8.4752560  11.3870497  10.4414997   8.7805653  12.2172184
  10.3339329   7.6645212  11.2004290  24.4839745  43.3462181  89.3357697
  24.4969196  43.9889946  88.6266174  23.8848801  42.6649094  89.0305862
  42.4478302  13.9341631  69.9092712  42.0274200  14.0617647  70.7596817
  42.8185463  14.7901325  69.6945114   0.5364099  69.4853745   0.7236747
  -0.0345808  69.8243027   0.0342310   0.3606803  68.5445786   0.7392542
  74.9880066   6.6375461  76.7160034  74.5150604   5.8054152  76.7267532
  75.8319397   6.4386425  77.1215210  86.3800964  47.3570633   7.8490634
  87.2084732  46.9529037   7.5908227  85.7866821  46.6190338   7.9883499
   4.2475524   4.2400169  17.6098404   4.5709748   4.9908738  18.1076794
   4.9110804   4.0962596  16.9350853  47.7797585  34.3186722  59.1076698
  47.5470657  34.9984398  58.4752121  48.2310295  34.7884369  59.8090324
  59.7978630  34.2433167  11.4975090  60.5755501  34.3674278  10.9534225
  60.1435051  34.0598412  12.3710651  47.4865150   5.5290456  31.1356430
  47.3672333   6.4786887  31.1491165  47.0007324   5.2157850  31.8986073
  73.7456131  37.2370567   9.6986580  73.9065475  38.1345024   9.9900751
  74.6126709  36.8986702   9.4751940  47.6103516  65.2366180  23.1358738
  48.3270149  65.2702255  22.5022335  47.1102562  64.4581146  22.8907795
   7.5693746  49.4832764  69.6087494   7.9473681  48.8796577  70.2482758
   8.2838917  50.0828896  69.3938904  65.4583435  56.3573914  12.8545380
  65.4335556  56.4711838  11.9044495  64.5519485  56.1676140  13.0967617
  63.1527786  49.5260658  58.8419075  64.0624542  49.5305786  59.1397247
  62.6434860  49.7366829  59.6245270  61.1974564  19.5231152  54.9412537
  61.7555847  18.7532730  55.0511093  61.1139526  19.8861942  55.8229752
  29.0877228  10.9956789  88.6176834  28.9039688  11.2931128  87.7266235
  28.2358780  11.0061378  89.0541306  47.0982437  36.7129631  60.6892128
  47.1599121  36.9297256  59.7589188  48.0057640  36.5877953  60.9666443
  38.2320709  68.1737061   2.4323726  38.5553017  68.7580872   3.1181176
  38.0141335  68.7559738   1.7045698  64.2088852  65.9753342  28.6555862
  63.2893219  65.7327805  28.5469589  64.6331940  65.1742401  28.9629211
  79.4129791  14.6534290  74.3388443  79.2221451  14.7208242  75.2744064
  79.4403229  13.7121458  74.1671753  28.1987572  33.2607231   5.8503919
  28.8220921  32.5591774   5.6619296  27.7602615  33.4223175   5.0150228
  23.5943642  68.4979477  54.8285522  23.8566093  68.9936371  55.6042824
  23.9907990  68.9708405  54.0968132  11.0399256  32.0377655  83.9752197
  11.8618116  32.2398796  84.4223022  11.2843504  31.9467564  83.0542374
  33.7752304  51.2376060  38.9951744  33.0112839  50.8527641  39.4247246
  33.4080238  51.8334045  38.3421745  77.2034607  39.4458847  88.2921219
  77.7852325  39.2860413  87.5490036  77.7912445  39.5281143  89.0431137
  13.4576521  19.3490410  59.9007988  14.2085485  19.0203228  59.4065018
  13.7690554  19.3988304  60.8045578  38.2891502  26.8777294  63.3341293
  37.3931198  27.1237812  63.1042938  38.6599007  27.6662464  63.7303848
  87.0589981  14.1779671  11.0264664  86.1107559  14.3077841  11.0412798
  87.1858063  13.4002390  10.4830608   6.3793106  57.4156303  18.3924541
   5.7185845  56.8498154  17.9930458   7.1714935  57.2584229  17.8786793
  83.0368881  34.6796646  82.7803650  82.9807281  34.3672752  83.6834106
  82.9602280  33.8879700  82.2478485  70.0079575   1.1882645  24.1922684
  69.7808304   0.6382604  23.4425087  70.3526230   0.5762717  24.8425770
  50.6349907  32.2386398  70.7639847  50.9920807  32.9447899  71.3025665
  50.8828201  31.4371395  71.2248611  65.2650452  63.6057892  29.6740093
  66.1521072  63.9424477  29.8005066  65.0863419  63.0982208  30.4656353
  81.9267044  19.9038696   3.0580184  81.8546753  19.7402172   2.1176665
  82.8572006  19.7884941   3.2506247  86.0724792  59.6897049  80.5436020
  85.1448059  59.5215721  80.3781357  86.4896622  59.5940285  79.6874237
  44.8993149  37.7149162  44.7936249  44.5113487  36.8794060  45.0536919
  45.8340759  37.5281639  44.7065735  44.7894936  14.4632807  16.1103153
  44.8941879  13.5999746  15.7103491  43.8432961  14.6072435  16.1251087
  62.4176941  56.7976418  22.7770519  62.5882797  56.0130730  22.2559109
  62.4473877  56.4937210  23.6842365  60.2199211   4.3901830  44.2708969
  60.1286125   3.4759414  44.5393333  59.3628540   4.7782831  44.4471054
  54.9328346  44.6995392  88.2815475  54.6604195  43.7822647  88.2564697
  55.8665123  44.6664963  88.4898453  82.5349426  57.5112343  20.6629391
  82.2643661  56.8089104  21.2543468  82.1438522  57.2790985  19.8206844
  11.3398218  71.3888321  26.7167130  11.9745426  70.6809158  26.6061707
  11.7369900  71.9671021  27.3679371  19.1878605  67.6237869  18.3636398
  18.8424568  67.5893326  19.2556839  18.4610519  67.3309250  17.8139000
  21.4172115  70.1998444  66.7604370  22.3513412  70.2395706  66.9655151
  21.3794117  70.2487335  65.8052368  50.4059677  44.0674782  65.5478668
  51.2805099  43.7094994  65.7003860  49.9252129  43.3543777  65.1276398
  81.8709335  15.9397335   8.4241915  81.3510895  15.8631716   9.2242756
  81.2609177  16.2895451   7.7747722  46.1067810  54.8250656  84.2133713
  46.4366837  53.9853172  83.8936462  45.4120941  55.0594635  83.5979843
  26.5186176   9.4349022  62.6802521  26.8248806   9.5295343  61.7783203
  26.2293682  10.3129759  62.9283485   9.8540983  16.7778435  74.0961533
   9.8211861  16.9567890  75.0359039  10.4727125  17.4217300  73.7512512
  19.8308544  37.1558151  17.4863091  19.3390713  36.3951111  17.1769371
  19.4237919  37.3800278  18.3231239  82.8798523  70.5103149  61.2706032
  83.8016968  70.5921631  61.0262108  82.7187805  69.5668793  61.2851791
  84.5475159  61.3399277  44.2371025  84.2596970  60.9122963  43.4305573
  85.3470764  60.8745461  44.4827690  57.9241714   1.5867827  46.1443787
  58.3268661   1.6501470  45.2783203  57.2571373   2.2732751  46.1491699
  52.7775612  11.5067024  50.8131065  52.9397240  12.4264135  50.6031876
  53.0598907  11.0295525  50.0328178  64.8752213  29.7828960  51.1927147
  64.2839127  29.9277687  51.9313622  64.9942627  30.6509819  50.8073730
  81.7434540  29.3964882  87.1599045  82.6048050  29.0774078  87.4291534
  81.2072601  28.6068382  87.0879745  11.1288080  40.9063644  47.4073944
  11.5959425  40.3201218  46.8121338  11.3925219  40.6197433  48.2817726
  86.2983551  42.7790909  27.0790539  86.8571014  42.0977516  27.4529705
  85.4134827  42.4175797  27.1294556  42.4726219  38.4486923  13.5844193
  42.9951820  38.5294418  12.7865219  42.9487190  38.9638634  14.2356949
  83.1562576  52.2293854  15.1417332  83.0896149  51.3118515  15.4061480
  83.1695175  52.2025795  14.1850004   8.7738056   2.2784815  30.9437828
   8.3606052   2.5393176  30.1207027   9.6790047   2.0792103  30.7047482
  60.0866776  32.5403671  25.7283573  60.0776443  32.1546669  26.6043625
  60.9895859  32.8331795  25.6048794  24.5205593  18.6920853  69.4134216
  23.6857052  18.6359997  68.9485550  24.5841961  19.6087074  69.6817245
  42.4234848  46.2629356  67.4039154  43.1927948  45.8685570  67.8148422
  41.8562889  45.5206032  67.1954346  82.9280014  43.1395302  11.9042730
  82.7233353  42.4495850  12.5353956  83.4882355  43.7472343  12.3870420
  45.5285416  47.8385582  33.7482529  45.7335968  47.8496246  32.8133392
  45.7273369  46.9445229  34.0264931   7.4285898  60.4598579  18.8476200
   6.7951121  60.3270454  18.1424255   8.1857405  60.8574905  18.4176865
  51.9442673  16.1619682  50.2733192  51.1776199  16.1552486  50.8464203
  52.3753357  16.9960365  50.4597092  39.3355026   0.4343348   6.3650155
  38.7675400   0.0087344   7.0072894  39.9320946   0.9683847   6.8895159
  56.0404015  63.2359734  46.7554817  55.0931740  63.2183113  46.8921738
  56.1844749  62.6627388  46.0025711   5.6974721  66.4816437  56.0222702
   5.8074999  66.0798798  55.1604652   5.2566004  67.3125000  55.8446655
  38.6052551  37.6835823   3.6023016  39.0415421  36.8320885   3.5732510
  39.2957878  38.2981644   3.8506706  56.8804207   2.6167278  58.9134483
  56.1929703   2.5978770  59.5792465  56.5598488   3.2337129  58.2555771
  51.3852539  38.0355721  22.4965286  51.5389214  37.0967560  22.3904953
  51.0529327  38.1244965  23.3897743  12.5777922  69.0480728  28.5287361
  13.1317644  69.5400848  29.1347656  12.2847576  68.2897263  29.0339718
  10.3269100  51.7972221  49.5411224   9.9795656  51.4290085  50.3535271
   9.6751652  51.5708084  48.8776512  38.8050003  16.6306992  13.9281931
  39.0377388  16.2008762  14.7511873  39.6322899  16.6996250  13.4516697
  32.1131248  63.6383858  38.2385674  32.6135941  63.3284187  38.9933395
  32.7030258  64.2468338  37.7935486  70.1283569  69.2300415  74.2842941
  69.2291641  69.1951675  74.6105804  70.6241455  68.6779480  74.8889618
  37.2211685  18.3827820  65.9144745  38.1776047  18.3966579  65.9501572
  36.9875717  17.4741154  66.1041794  63.6430244  52.7683067  79.4981918
  64.3169403  52.7455864  78.8188095  63.4589500  51.8475037  79.6838455
   9.1722975  18.7640171  61.7570038   9.6874533  17.9572792  61.7614174
   8.2767382  18.4773045  61.9358902  46.2003670  48.2108727  23.3432140
  46.7118073  47.8826485  24.0827618  45.3142433  48.3118019  23.6908150
  31.8412895  24.9350777  73.0091553  32.3551941  24.1544380  72.8024368
  32.0571289  25.1293278  73.9212418  47.9951744  57.4762917  29.4185772
  48.5102882  56.6776047  29.5325432  47.5424690  57.3523331  28.5843582
  44.7428932  57.9792328  42.6894684  45.5255928  58.3601608  43.0876007
  44.3194656  58.7130394  42.2439690  86.5829468   1.8996754  66.0573654
  86.4659424   1.5052296  66.9216309  86.8424072   2.8028703  66.2394333
   2.8875806  41.8387032  34.7845688   1.9749633  42.0913277  34.9243622
   3.3708673  42.6646347  34.8070679  41.7932854  69.8045502  14.9181337
  41.3357658  68.9927750  14.6992254  41.4241257  70.4558640  14.3216906
  81.3836975  24.2427654  51.7586861  81.0367126  23.8963737  52.5807877
  81.5982513  25.1547928  51.9546547   9.5323772  67.6266861  87.4344940
   8.8507748  68.2976456  87.3961563   9.1665249  66.8857346  86.9514084
  63.0338669  53.1515579  11.2358837  62.5164032  53.9566612  11.2525091
  62.8679390  52.7780266  10.3703356  25.0650978  69.1055450  34.4276657
  24.5970478  68.4908371  34.9927254  25.9842606  69.0068436  34.6759148
  23.7172337  11.3237743  88.6259079  23.7352219  10.8237572  87.8098907
  22.8046494  11.2828436  88.9118195  54.5526543  13.1258249  -0.1171591
  53.7443237  13.0524187   0.3902326  55.0491867  13.8163919   0.3219358
  22.5086937  53.7031364  40.7334137  22.4500408  53.2930298  41.5963173
  21.8044090  53.2980461  40.2273331  36.4973984  62.2176704  16.6196365
  35.5827446  62.4042320  16.4078884  36.9755211  62.4202118  15.8155193
  17.1973515  70.9644241  78.7355118  17.1659927  71.6527100  78.0710526
  16.4991112  71.1921387  79.3493881  19.8937111  12.3676844  85.1390610
  19.4309940  13.1806812  84.9361725  19.9090252  12.3330927  86.0955124
  73.1816483  36.8065414  39.5681725  72.7898407  36.6594849  40.4290390
  73.4140091  35.9312744  39.2580986  59.8845177  59.0196381  52.7784195
  60.5833321  58.3903008  52.9568100  60.3264351  59.7536392  52.3515892
  71.1567078  30.3514252  70.5447845  70.2665939  30.2799721  70.2000656
  71.7018127  30.4985237  69.7718353  75.5096512  14.5270557   8.9921360
  76.3549652  14.0923481   9.1048670  75.1654892  14.1725893   8.1722975
  68.0522690  62.0020561  45.2643929  67.5223846  62.1921272  44.4902306
  67.4304962  61.6446915  45.8983688   4.9471970  35.2326050  82.3376541
   4.9658661  35.9721031  81.7301788   4.2642775  35.4585800  82.9691544
   8.3932896  50.2586555  62.8881683   8.3345833  49.8081856  63.7307014
   9.3169537  50.1935425  62.6456070  14.4864664   8.2558889  71.6705322
  13.6190042   8.0121136  71.3475494  14.9978304   7.4485493  71.6162872
  46.2544556  54.7813873  27.0987015  47.0370712  54.3625374  27.4569035
  45.5654449  54.5839119  27.7331333  22.0180721  65.2802887  67.3049622
  21.5132465  66.0933762  67.2883377  22.6832428  65.3974457  66.6266937
  72.7141724   7.4861846  85.3474731  72.9956131   7.4368224  86.2610321
  71.9899139   6.8633728  85.2859879  17.3847237  68.7454681   6.9882016
  16.9104977  67.9931564   6.6341252  17.0622444  69.4914780   6.4825325
  69.4574814  32.5189667  24.5861645  69.4509811  32.2016411  25.4892120
  69.2309799  33.4463196  24.6565266  13.6227074  43.6303291  21.0961876
  13.9400578  42.9914322  20.4579639  12.6749029  43.4980965  21.1164932
  79.5533295  14.4667301   6.6096616  79.7127686  14.2598372   7.5305338
  78.7578659  14.9990902   6.6180325  60.0325966  10.6666813  14.6803398
  59.6114197  10.0041466  14.1327162  59.3652802  10.9050245  15.3238573
  63.5799751  29.9781780  37.3805809  64.5037689  29.7280178  37.3644791
  63.1876373  29.4035072  38.0378952  65.5997238   9.7561712  17.0880260
  65.9243851   9.1781826  17.7784996  64.8992996  10.2577648  17.5052090
  57.4664688   6.5162005  87.1534653  58.3228226   6.1067381  87.0300369
  57.1042366   6.0851922  87.9275742  86.9991074  10.2171144  23.0748348
  86.4620132  10.2037249  23.8670349  86.3987503   9.9626102  22.3741035
  53.2054596  65.4257355  77.4695358  52.5927505  65.2645111  78.1870499
  54.0660133  65.2324142  77.8414307  85.1820679   2.3514094  60.4818840
  84.9931564   1.7446200  61.1976700  86.1194916   2.5287876  60.5593681
  50.0331650  15.7079725  24.8284645  49.8811569  16.6498318  24.7508259
  49.2955284  15.3075743  24.3682365  42.1510201  36.3051758  63.8515282
  41.3995247  36.0881653  63.2998085  42.7748718  35.5960007  63.6962585
  12.2790642  26.5713272  72.9255142  11.6326637  25.8678551  72.9848862
  13.1233435  26.1287937  73.0126343  42.1126785  22.8244610  88.9131699
  41.4610558  22.4941959  88.2946625  42.1853180  23.7568970  88.7094116
  80.7057877  66.3785782  26.4031696  81.0318451  65.8366394  27.1216507
  81.4611359  66.4909668  25.8260632  67.8225021  60.7907486  28.1919193
  68.1658707  61.2127113  28.9794979  67.1580505  61.3974953  27.8654308
   7.8150077  70.4544220  64.4085312   7.9802675  71.3481674  64.1082916
   8.5321274  70.2689743  65.0148087  14.5795965  51.4989548  84.9737549
  14.1643295  52.2365417  84.5268250  15.4516010  51.8190613  85.2047806
   8.7328615  26.3690205  12.0649652   9.4006605  26.5105400  11.3939600
   8.0224075  25.9216652  11.6052246   6.6773248   9.0389767  55.1871986
   7.4409709   9.5896626  55.3598862   6.9374790   8.1679201  55.4868813
  40.2932777   3.4410474  51.3227196  39.3591690   3.6455948  51.2798615
  40.4577789   2.9084227  50.5445938  44.0862007   3.3713284  64.5501251
  43.7423630   2.9419878  65.3335037  44.1823845   4.2895217  64.8029175
   6.9272246  62.7480736  47.8762436   6.7482519  63.4077950  47.2061920
   6.1249480  62.2278595  47.9204941  84.5202866  39.4989128  73.8024445
  85.1754761  39.9391785  73.2610245  83.7317200  39.4846840  73.2600479
  15.0130720  41.2295990  10.2708693  15.6627302  40.5606880  10.4870462
  14.3988628  41.2130089  11.0048332  17.7845345   1.6052810  65.9835129
  18.6717663   1.8868378  66.2066193  17.6298256   1.9692479  65.1118317
  70.8542938  49.4949875  63.9354515  70.7837296  49.8967209  64.8013992
  70.8007050  50.2304344  63.3251419   0.5324677  65.1990814  41.8779259
   0.9456713  65.6627274  41.1495552  -0.0161540  65.8591690  42.3016357
  44.7439880  52.7260323   7.1580482  45.3027382  52.5431824   7.9134278
  44.6436501  51.8789635   6.7237201  47.6672974  29.0832100  75.8415222
  46.8074112  29.2590866  75.4595642  47.6806564  29.5977116  76.6485825
  70.5554199  43.6625404  21.8690052  70.8274765  44.2529564  22.5715885
  71.3081131  43.6300087  21.2785625  50.5629997  57.6568985  57.9722557
  50.4005013  56.7787819  58.3168373  50.4254417  58.2372284  58.7209396
  22.6266384  31.8034191   3.7779386  22.0207500  31.2753143   4.2977829
  22.7696819  31.2904701   2.9825425  70.6698303   1.1693116  43.3017426
  69.7398605   1.0190165  43.1320305  70.8266907   2.0642388  43.0005264
  44.1065483  35.8268204   0.9615107  43.3875237  36.2063866   1.4666523
  43.7337036  35.6714249   0.0937134  86.7911911  12.0999002  14.6291246
  86.7234421  11.6523476  13.7857170  86.4183197  12.9671383  14.4707069
  73.1424484  21.9878254  64.1463699  73.8549728  22.4813652  63.7402153
  73.3192825  22.0409260  65.0855942  41.9701614  36.3875961   5.4946051
  41.3082695  35.7002754   5.4189701  42.3318596  36.4699402   4.6122074
  86.3493347  57.4615440  33.3823586  86.6631699  57.7371445  34.2436256
  86.8849106  56.6985054  33.1651802  86.1000748  66.0402298  62.0217781
  86.9838486  65.6726151  62.0164528  85.8981247  66.1917572  61.0984764
  20.0606499  17.1604710  84.5901337  20.1434441  16.5075150  85.2851334
  20.7396297  17.8061218  84.7859650  86.0567474  39.7182693  53.0994873
  86.5323257  38.9677391  53.4555283  85.1453934  39.5643311  53.3484039
  68.9269867  22.7564220  60.9356422  69.3392105  23.0262814  60.1149826
  69.4755173  22.0398903  61.2549133  11.8384314  57.2421837  19.0563545
  11.9737434  57.8832283  19.7542000  11.1200056  56.6935349  19.3711243
  85.4856186  55.8464394  47.5676765  85.0960541  54.9721184  47.5619011
  84.7601852  56.4332924  47.3541832  11.0487623  10.3000231  27.4508171
  10.3359375  10.0877342  28.0533504  11.8236856  10.3627605  28.0091972
  13.6405525  41.0195999  28.0358944  14.5203810  40.8553009  27.6965714
  13.1081371  41.1750603  27.2557678  42.0074196  69.8969574  17.5316048
  41.2410011  70.3784866  17.8429928  41.9863319  70.0023575  16.5804577
   5.9822159  63.6341362  28.5282879   6.5221887  63.5291023  27.7449436
   5.0885019  63.7120247  28.1944618  26.4223118  47.7073708  78.6382141
  25.6384926  48.2321243  78.4754486  26.2730865  46.8966713  78.1516647
  14.7190762  55.2462578  47.5815887  15.5487108  54.9331398  47.2211761
  14.0617476  54.9736938  46.9413834  12.9581022   5.3292203  61.8474503
  13.2432795   4.4591150  62.1264153  12.0033150   5.2993298  61.9084435
  83.6271133   3.5400722  29.5782433  84.0997009   2.9538631  30.1692200
  83.8959045   3.2643890  28.7018986  55.7994423  19.5843258  30.4490471
  55.8476257  19.1552105  31.3033142  54.8848724  19.8550014  30.3682289
  46.4769821  56.6249504  72.7517776  47.0836563  57.3345070  72.5403366
  46.5603104  56.0127411  72.0206909  48.5368309  44.7877502  44.4508171
  47.8094749  44.4814529  43.9091797  48.9815445  43.9872742  44.7295647
  25.6972561  26.9687481  78.2711716  26.0957279  27.8380947  78.3122559
  26.2165279  26.4978218  77.6193924  72.3285446  13.4072437  66.0847397
  71.8513107  13.2494907  66.8993530  71.6449356  13.5603018  65.4324493
  71.8137283   6.6454530  20.1443939  72.6737823   6.9170823  20.4649391
  71.2365799   6.7337565  20.9029026  49.2728500  19.1796360  65.5157700
  49.6963425  18.3472729  65.7256699  49.2129784  19.1837044  64.5604553
  15.2914848   5.8937964  60.6644058  14.3699732   5.9722424  60.9111748
  15.7462053   6.5114655  61.2370720  72.8447723   9.5289192   0.5549231
  72.2352753  10.1099672   0.0998027  73.3590012   9.1258469  -0.1445964
  65.5737991   4.0136018  29.6173840  65.0735245   4.2330723  28.8313866
  65.7130432   4.8534694  30.0549507  65.0872345  19.3487816  49.6509476
  65.4365997  20.2168980  49.4495659  65.0282135  19.3300228  50.6061401
  38.5817146   2.3432481  87.9916534  39.0797882   2.7930169  88.6741943
  38.0428505   1.7102184  88.4661331  47.2636757  44.3908081  34.9594002
  47.7391891  43.5950165  34.7210083  47.0837746  44.2913513  35.8942680
  23.4506245  14.5405130   4.6982293  22.7964058  14.2620010   4.0574017
  23.1392956  14.1823177   5.5294957  21.7427597  39.4248962  85.0512161
  20.8341808  39.1735611  84.8852463  22.2581940  38.6834526  84.7336960
  23.4929619  68.7942352  78.5483704  24.2129059  69.3390427  78.8663177
  23.8917236  68.2360840  77.8807678  18.8789368  52.4759521  43.4673653
  18.3353405  51.7223892  43.6973228  18.2655888  53.1084785  43.0932693
  31.9631577   7.7103677  72.3217087  32.0467682   7.3356447  71.4448776
  32.8137512   8.1153173  72.4912186  51.7048187  69.8177795  74.6738739
  51.0854034  69.4337082  74.0533524  52.1388245  69.0652695  75.0758667
  73.0250702  39.4434471  47.6626892  73.8429108  39.1581612  47.2552757
  72.4114838  38.7282867  47.4944878  22.4433708  38.8324585  10.2724934
  21.7427883  38.6052361   9.6611118  22.9174271  39.5428505   9.8402424
  72.9691467   8.3174629  60.8471718  73.2349625   7.7482038  60.1250114
  73.2486725   9.1924191  60.5778236  71.3179169  24.1406708   8.3757219
  70.6315765  24.7964592   8.2528286  71.2477646  23.8902798   9.2969246
  86.8326874   0.3103152  75.3973618  86.3158722   1.0851389  75.1765060
  87.0312958   0.4122179  76.3281708   5.3559918  47.8320312  36.5032578
   6.1177940  47.3013687  36.2702637   5.6162295  48.7292442  36.2946396
  67.9757614  30.9249840  41.5859680  68.7260437  31.1474400  42.1371689
  67.8973541  29.9739227  41.6605949  30.4907589  31.7167206   3.1856048
  30.8440018  31.4698887   2.3308976  31.2637024  31.8713417   3.7286358
  72.0577850  66.6531219  28.9230537  72.1153107  67.6019363  29.0356426
  72.3086624  66.5044708  28.0113544  42.2159004   6.8338113   3.8763456
  41.3089638   6.5295944   3.9102671  42.4108849   6.9019156   2.9416933
  71.7423553  61.3188133  84.8459015  71.6228714  61.8288345  84.0447540
  71.0865631  61.6657295  85.4507294  80.2563858  37.9574699   5.7005258
  79.6356430  38.5242462   5.2426233  80.7555771  37.5349998   5.0015597
  77.3835983  69.2726440  73.1547241  77.7363510  68.7429352  72.4397430
  77.8452148  68.9617157  73.9334869  85.4931107  26.6185684  73.9394226
  85.3745346  26.0082626  74.6672287  86.2262955  26.2575207  73.4411087
  72.1606216  11.5770931  45.6558037  72.1931763  10.9222832  46.3532257
  71.9029922  12.3857841  46.0983849   3.7628770  68.8127441  18.4579449
   4.2179661  69.4014587  17.8558273   4.0227227  69.1131744  19.3288364
  77.5887604  43.1779823  45.5593300  77.5260696  43.3666267  44.6230011
  78.3944244  42.6687241  45.6476364  58.3130379  57.4818802  51.0309830
  58.5747337  56.6680832  51.4616547  58.4054794  58.1518135  51.7083893
   8.0284958  37.1794739  28.0251637   7.8430362  38.1177711  28.0630188
   8.9840603  37.1244049  28.0153790  73.9529037  40.9517746   4.6968808
  73.3276367  40.4250908   5.1947565  73.4142075  41.4325485   4.0684719
  62.3545227  61.2340088  57.7674561  61.7855797  61.6280251  57.1061821
  62.9906158  61.9185829  57.9747734  53.4938202   5.4669318  61.9359398
  53.3574486   5.5000453  62.8827972  54.1149559   4.7498937  61.8083458
  47.3488998   9.1706829  10.5709915  46.6931076   9.6509571  11.0764656
  48.1689301   9.3165989  11.0426836  38.1257629  14.3451633   5.6647544
  38.1735497  13.4051943   5.8391309  37.5341988  14.4200830   4.9159746
  22.4216099  48.6144028  74.1740265  21.9657726  47.8043175  73.9455414
  23.1862144  48.6295280  73.5983658   2.3192828  36.2605438  83.7709656
   1.7371777  35.7497063  83.2084427   1.8161448  36.3990440  84.5733948
  19.5062866  42.7062340  85.5062485  18.9348125  41.9552879  85.6666565
  19.2339783  43.0358200  84.6498260  33.7248535   6.3999262  36.2069817
  33.8243217   7.2969804  36.5257797  32.9484177   6.0697861  36.6590729
  75.5495834  40.6719666  84.8234406  75.4569168  41.1676521  84.0098419
  75.7408981  41.3346176  85.4871597  48.6777267  60.3658981   9.9365110
  48.6811752  60.4588089  10.8891850  49.6036072  60.3430405   9.6947393
  73.1531143  40.5844116  75.9549789  72.6426697  39.9382973  75.4669113
  73.9999619  40.6068306  75.5093613  46.5958099   1.4205008  48.4660110
  46.5769920   1.0283302  47.5930367  47.0241699   2.2670426  48.3390999
   8.8976421  59.5815887  15.2226429   9.6112843  58.9483719  15.2999964
   8.9469776  59.8886642  14.3173780  48.8296127  68.9955063  49.4588432
  48.0237617  69.3954849  49.1319542  48.8655510  69.2485962  50.3812752
  21.6654472  68.1225128  87.3149414  22.5724602  68.0998306  87.0099106
  21.5746479  67.3373795  87.8549042  61.0913925  54.0912666   4.1893878
  61.7753868  54.7454796   4.3321838  60.2774658  54.5432777   4.4117403
  18.1883259  15.0242729  83.5462570  18.8190632  15.5990267  83.9799194
  18.2464314  15.2601919  82.6204071  31.6429996  64.4701614  87.0631714
  31.4894695  63.8169899  87.7458420  32.5625038  64.3546295  86.8236008
  12.7698927   5.3411212  50.9307785  12.4983387   4.7947583  51.6683273
  11.9727869   5.4596267  50.4142418   9.9553671  31.7842255  55.5549774
  10.8553944  32.0898094  55.6681137   9.9213438  30.9565983  56.0346756
  76.5815201  15.0582933  15.9042568  76.3362122  15.1209488  14.9811487
  75.9384155  14.4588575  16.2828312  43.4609299  63.1559868   0.2049927
  42.7082863  63.3874969  -0.3392178  43.9285851  63.9816513   0.3307422
  69.2739944  13.1555109  59.6568794  68.9784851  12.4042692  59.1425476
  69.1200867  13.9102659  59.0886459  45.1852531  52.7572670  17.4498920
  44.5559959  52.6734962  16.7334785  44.8973923  53.5324020  17.9321098
  60.0606651   1.4244429  79.2166443  60.2314415   0.5902220  78.7794495
  60.2633095   1.2582631  80.1372681  30.6185379  67.9888840  18.7746582
  29.7851124  68.4163208  18.5773315  31.1564255  68.6798248  19.1613255
  78.7183151  52.7364845  22.1111736  79.3758316  52.7787323  22.8055153
  78.7542725  53.5975075  21.6945477  82.5422745  49.4960060  12.0473852
  82.0891953  48.8938103  12.6375637  81.9134140  49.6614456  11.3449612
  63.6833954  70.3218307  18.0357323  62.9634552  70.5496979  18.6239395
  63.3472099  70.5134888  17.1602440  52.8306503  54.0706215  59.2726021
  53.3718376  53.3909569  59.6743507  53.2157135  54.8931885  59.5748253
  45.5748291  65.5308228   6.2339344  45.8674202  65.2216797   7.0912867
  45.3793526  64.7314606   5.7450089  51.0486259  45.1740799  10.1523294
  50.7341614  45.7160339  10.8759527  50.2609253  44.7521706   9.8091831
  65.8486710  61.0402565  47.0573997  66.2869797  60.3800583  46.5205040
  65.0263596  61.2140884  46.5993385  36.7534332   2.4264975  34.7982903
  37.3157578   1.9922513  35.4397354  36.0512886   2.8154771  35.3197479
  65.7839279  17.4435654  28.4196644  65.2852325  18.2407970  28.5984268
  66.2309036  17.6211643  27.5920773  61.6762199  19.4776726  81.6211700
  61.2774544  19.4570522  82.4911118  61.0562134  19.9721470  81.0851517
  41.4298744  48.8323097  20.4438915  41.4181328  49.7527428  20.7063675
  40.5078011  48.5758324  20.4285870  28.6948700  58.1904449  69.2606964
  28.5685558  58.7247200  68.4765854  28.4602776  57.3037987  68.9867325
  12.4746885   2.1427679  50.1972580  12.4499168   2.8607063  50.8298569
  13.3874931   2.1068280  49.9113770  48.2794418  42.0047798  34.1874504
  48.0763474  41.8866386  33.2595367  48.0292854  41.1755180  34.5948524
  13.7552500  61.9438744  40.2857437  13.5635729  62.6787148  40.8684120
  14.7096472  61.8716049  40.2973862  19.4194241  51.3295250   8.2191505
  18.5122280  51.0898209   8.4082747  19.9376411  50.8088684   8.8328276
  62.5335236  24.8070660  49.9958801  61.8166504  25.1714478  50.5150642
  62.2024498  23.9627247  49.6897545  26.5751038  50.5520020   2.9476457
  27.3592720  50.0631828   2.6979058  26.7828274  50.9141808   3.8089867
  37.0213089  42.3384018  88.8555222  36.9542198  43.1676979  89.3288040
  36.1167526  42.0369072  88.7711868   1.0521368  18.5778503  31.0053062
   1.0304163  18.2830143  30.0949039   0.7005236  19.4676914  30.9773426
  77.1636200  36.8631325  10.8450050  77.7930832  36.2774086  10.4243679
  76.7732315  36.3349495  11.5413189  53.4668579  28.3601074  85.9504166
  53.1402893  27.9248734  86.7379227  54.3569870  28.6293144  86.1772079
  43.5963402  27.0358372  76.0498047  43.0312653  26.7360401  75.3377380
  43.0021362  27.4746933  76.6585464  39.0801773  68.3361282  14.4230204
  38.8078499  68.3187103  13.5055418  38.3330994  68.7134628  14.8874846
   1.0569831  18.6394939   5.3189797   0.6338155  18.9157600   6.1318989
   1.9361002  19.0151062   5.3669348  -0.2044812  67.1937180  68.2749405
   0.7463117  67.1996307  68.1645355  -0.4234547  68.0943604  68.5139389
   3.0165732  23.7076244  51.2470932   2.9007866  23.7609291  50.2984161
   2.1730115  23.9815350  51.6071053  29.6817951  36.6918716  79.3941116
  29.7173367  35.7353821  79.4039154  29.8545532  36.9472656  80.3002930
  80.4952393  28.7794590   2.4013803  81.0188141  29.4340782   1.9392346
  79.8487320  28.4913845   1.7569661  72.0968781  48.9659119  43.6492996
  72.0290527  49.5351906  42.8827782  71.3642807  49.2271538  44.2072296
  53.4762383  38.1384010  69.0020294  53.9328270  38.6416016  69.6762238
  52.6722832  37.8412933  69.4281921  34.1697006  24.2088203  69.7943192
  34.5020752  25.1039906  69.8609009  33.7408752  24.1755333  68.9392014
   1.8275144  17.7854214  10.5730333   2.0547822  16.9392986  10.9585962
   2.5407352  18.3674564  10.8352995  72.4738998  32.8450546  14.8337574
  72.5787125  33.1406555  15.7381172  72.6009521  31.8972359  14.8753319
  19.7309036  66.7370377  77.9479599  19.4308014  66.9039688  78.8414383
  19.6656799  67.5860901  77.5108261  73.1541595  57.5603790  28.1730480
  73.2255707  56.6657944  27.8401051  72.2129364  57.7330856  28.1957092
  37.0009880  57.2547493  13.1129589  36.3758316  57.9556694  13.2976866
  36.6761856  56.5061188  13.6132460  29.5476837  18.1507931  86.5315552
  28.6062794  18.2594299  86.6664200  29.9223194  18.1948109  87.4113007
  26.7440052  64.6583939  29.6428471  26.6725063  64.0898590  28.8761082
  26.5574913  64.0837784  30.3853207  42.2509422  40.0733109  81.8903427
  42.9939804  39.5707245  82.2243042  41.9188499  40.5457535  82.6537247
  13.6651392   5.7280202  84.9332581  13.8556309   4.7899728  84.9297943
  13.5634336   5.9551830  84.0089874  61.1073685  32.9438667  71.2841492
  61.8938446  33.2812195  70.8553391  61.3998032  32.1486816  71.7295532
  36.0344620  58.0531120  28.9282627  35.1867027  58.0469513  28.4838562
  36.6720886  58.1815529  28.2260075  23.4346790  10.2826977  80.5714951
  23.4672508   9.9016485  79.6940155  23.1934891  11.1975965  80.4265137
  25.9670963  57.9426308  73.9844513  25.1421795  58.1911125  74.4015884
  25.7727032  57.9480133  73.0472183  31.6524601  71.3434601  30.9649277
  32.1280365  70.8969193  30.2644577  31.1380253  72.0139847  30.5155010
   4.3490052  25.7340870  46.9791107   3.4398017  25.9775867  47.1531487
   4.8567634  26.2287712  47.6223068  69.3900528  65.3466797  64.0793762
  68.4919510  65.2963409  63.7520981  69.5039978  64.5453949  64.5904388
  68.5073166  58.2083435  27.3128929  69.3189926  58.0597725  27.7980213
  68.2461548  59.0982323  27.5498028  62.0762177  17.5690994  70.4904709
  61.1844215  17.7053242  70.1705093  62.5040550  18.4176502  70.3758011
  11.3050518  64.3286285  82.4551620  10.4042006  64.3829041  82.7741470
  11.2197266  64.0537643  81.5422516  55.3093758  34.7418556  87.6212692
  55.8400612  34.9473763  88.3909302  54.8852425  33.9114647  87.8375854
  61.7551308  18.9264736  37.2005882  62.6946564  18.8920765  37.3804169
  61.3850517  18.2149715  37.7231178  61.4288521   4.5568810  20.2846775
  61.2340584   5.4240942  19.9293919  62.3778839   4.5568156  20.4094772
  42.8189545  35.0559807  22.5887890  43.3208237  35.8692932  22.5351105
  43.2519417  34.5524063  23.2781124  72.6340866  62.3784752  24.5953274
  71.9911957  61.9155006  24.0581284  72.2507248  63.2444267  24.7345810
  58.7606049  33.7204285  28.5876102  59.6062584  33.2722015  28.5736542
  58.5539589  33.8130875  29.5176334   0.3428901  36.3495483  59.1557007
   0.2423446  35.6855545  58.4736214   1.0107237  36.9443092  58.8143883
  78.1097336  64.5494003  32.4324684  77.6996765  63.8859482  31.8775711
  78.8793488  64.1133575  32.7982483  78.5799866   9.8070107  77.0289993
  77.7343750   9.9100981  77.4655151  78.6727066   8.8622160  76.9065323
   8.9475775  29.7259464  57.1440849   8.0053205  29.8851814  57.1991081
   9.2768974  29.9326534  58.0187569  82.9387283  53.3735771  40.9686203
  82.7687988  53.0737724  41.8616333  83.5400085  52.7221451  40.6076050
  29.5733528  16.6908092  63.5977287  28.6247272  16.7806339  63.6886826
  29.9339581  17.2500839  64.2857742   7.0071096  57.7806816  56.7574081
   6.9173899  57.0809822  56.1104126   6.1792049  58.2587204  56.7095871
  39.6260910  71.2686539  18.1321888  39.5281143  71.7406693  18.9591312
  38.8288422  71.4733963  17.6436176   8.9036980  59.2360497  58.1335373
   8.9909191  60.0582161  57.6511841   8.4198046  58.6608429  57.5409012
  57.9683571  22.3844700  53.6904335  58.2188148  21.5252342  54.0298767
  57.7918472  22.9085026  54.4717598  82.2736588  19.2182808  13.1903505
  81.5536118  18.6488304  12.9192476  82.6391602  18.7901497  13.9645205
  12.1036005  52.7713699  73.2264709  12.3349257  53.3959351  73.9139633
  12.8391924  52.1594009  73.2014465  63.4887695  33.5718307  69.8628922
  63.2469063  33.5329819  68.9375687  64.2333221  34.1727448  69.8908081
  68.9730225  31.0078850  37.2354584  69.0569611  30.1115208  36.9103203
  68.5519257  30.9142704  38.0899467  51.9272614  39.8061066  13.0226326
  51.4119682  39.8754807  12.2189579  51.4431267  40.3270836  13.6632814
  70.3139267   6.0940480  60.7174683  70.0038376   5.1909933  60.6498909
  69.7729568   6.4822202  61.4051476  32.5002747  16.5412903  86.9966812
  32.0426407  16.8208580  87.7895508  33.3949738  16.3633823  87.2866669
  32.4976349  70.0472870  84.9471436  32.9899292  69.2276611  84.9928131
  31.7080936  69.8252792  84.4536133  16.6930580  17.2352829   7.2922230
  16.9210224  18.1456814   7.1039739  15.7785244  17.1563511   7.0208740
  46.7567711  52.3412857  79.0016022  46.7142715  51.5758286  78.4284592
  46.6989822  53.0891991  78.4070282   9.1560650   1.8307300  54.1320839
   8.8773680   2.1548061  53.2756157  10.0949736   2.0142617  54.1636887
  37.5505714  37.5469589  85.2759476  38.3120232  37.8750648  84.7976456
  36.9355965  38.2804604  85.2793961   5.8254018  41.9762688  35.0475769
   4.8897119  41.8747787  35.2219810   6.2319078  41.9766006  35.9141731
  18.5642147   3.3713119  87.5333099  19.0569210   2.6858206  87.9844971
  18.6066952   4.1242790  88.1227722   1.6566067  46.2173882  42.7686386
   2.0937803  45.7448730  42.0602303   2.2957230  46.8720589  43.0500069
  54.6480293  21.9702988   1.7853951  54.0842476  22.7423153   1.7367142
  55.0576363  21.9180088   0.9218448  72.5522232  22.0906391   6.9564781
  72.0790329  22.7731056   7.4324660  72.0140915  21.9208622   6.1832862
   6.4247212  27.7512512  84.9009476   7.3296838  27.7794800  84.5903320
   5.9017329  27.9961472  84.1375656  26.8129234   5.3610015  58.6334801
  26.8793869   4.4120693  58.5269814  27.5766773   5.7078424  58.1723824
  40.8793488  37.2359962  11.6337900  41.1685753  37.0538330  12.5278797
  41.1695480  36.4764252  11.1287413  60.7065773  32.9341812   3.4093764
  59.9694328  33.4361000   3.0616269  61.2463646  33.5830078   3.8609102
  84.1579819  47.2357826  22.6719723  84.8176498  46.8750420  22.0795727
  84.1761322  48.1781845  22.5053120  26.4934444  49.1209259  71.4126129
  26.8033867  49.9197311  71.8393173  26.5056267  48.4595947  72.1045151
  40.0107880  35.7414818  88.6694107  40.2313156  34.8192215  88.7999191
  40.1034508  35.8788147  87.7266541  74.9937057  26.7536926  29.8501091
  74.3858337  26.3856678  29.2087955  75.3157349  25.9954205  30.3375053
  28.0380821  38.0997925  59.8686562  27.6406631  38.2779121  59.0162697
  27.3043385  37.8387566  60.4251747   7.7533488  25.0958061  18.1184711
   7.5333171  24.4899902  17.4107952   8.5714083  25.5056057  17.8372669
  46.9939194  38.8653641  46.9218636  46.4718971  38.1023102  47.1698074
  47.2329102  38.7056351  46.0088425   0.1214968  22.3376102  65.2018661
   0.4881382  22.7312050  64.4101028   0.8714207  21.9321709  65.6371460
   1.9583697  13.0986376  20.1832905   2.8494544  13.4294949  20.2961311
   1.5518631  13.2073126  21.0430431  51.1785240  23.6531010  27.2435760
  51.3436546  23.5868435  28.1840935  50.2624893  23.9233437  27.1796856
  29.1698265  66.7148514  32.8406029  28.2857208  66.8653107  32.5060120
  29.0399399  66.4580078  33.7535095  35.9849014  32.6081047  59.2817688
  35.6708870  33.4543190  58.9631081  36.7979660  32.4573479  58.7996635
  44.6068077   3.8073456  40.1069260  44.0611801   3.6228070  39.3424225
  45.3781204   4.2477226  39.7500267  51.8966522  21.5653057  25.4228306
  52.1682510  21.8797588  24.5605164  51.5344124  22.3379974  25.8563747
  59.0699425  39.1641312  26.5320091  58.8282585  40.0556030  26.7832108
  58.2787247  38.6485023  26.6879768  31.1880550  53.0000763  61.4369888
  30.6805420  53.5080948  60.8040771  31.1878433  52.1099701  61.0849304
  47.4191780  11.0133572  23.4481010  46.7899284  11.1951504  22.7500839
  47.1015701  10.2060604  23.8526115  85.3310089  35.0260353   6.4232278
  85.9850235  35.6404991   6.0901599  84.4911423  35.4120865   6.1746044
  19.0614109  63.1209221  52.9657898  19.7782784  63.7460747  52.8584595
  19.1204185  62.5544472  52.1964645  38.1554794   5.7215095  67.2828598
  37.4149513   5.1774154  67.5508423  37.9291763   6.6005363  67.5867157
  77.6286850  64.3925247  41.2728119  77.9841080  64.5452118  42.1483612
  77.3447800  65.2569427  40.9754677  75.1195526  32.1023712  76.7543182
  75.8310623  31.5845737  77.1309814  75.2081604  32.9637032  77.1623459
  35.5035477  27.2988472   9.5242796  36.4140778  27.2440948   9.8144026
  35.5606995  27.4046001   8.5746574  62.9503975  63.0856743  19.9971924
  62.5380974  63.9495049  20.0032635  63.8899345  63.2686996  19.9991684
  21.3047619  22.7878036  74.2770767  21.9216022  23.0782280  74.9489365
  20.4534760  23.1022434  74.5814972  50.3299904  33.8820953  79.1716461
  49.5780716  34.1649551  78.6512299  51.0908737  34.1170273  78.6405182
  65.3325653  55.2780838  58.5620079  65.7893448  55.6708260  57.8181458
  65.4101334  55.9276352  59.2607918   4.6388569  14.7860365  82.0685425
   4.5001454  13.8454828  81.9574203   4.5465012  14.9321756  83.0100021
  80.4655151  55.5065918  65.0584412  80.0262756  56.3368759  65.2426376
  79.7534180  54.8726387  64.9732971  47.8416290  46.0789604   6.8188043
  46.8896713  46.1760368   6.8429818  48.0960655  46.4253693   5.9635286
  66.2166824  68.3123703   4.1499338  67.0050812  68.7017822   3.7717428
  65.7221603  67.9921646   3.3955185  56.0713730  42.7882729  27.7614899
  56.9247589  42.9946175  27.3801994  55.6028442  42.3281174  27.0650959
  64.2772675  32.4241295  61.1549759  64.5198135  32.5262680  60.2346649
  63.6910820  33.1600227  61.3312683  34.9944382  26.4626522  75.8660889
  34.4228821  27.1801853  76.1394043  34.9707909  25.8456821  76.5975342
  44.8095360  17.8032570  74.4231796  44.8893166  18.3020706  75.2362289
  43.9151497  17.9708366  74.1261597  34.6340599  64.9559097  30.7636013
  34.5072136  64.9406128  31.7122345  34.1120720  65.7002792  30.4641342
  49.5712280  51.2909966  12.5845766  49.6904945  51.0936356  13.5135841
  48.8979187  51.9711723  12.5687370  55.4310150  53.2473488  89.3882828
  55.8374901  52.9540367  88.5728226  54.4977303  53.3047791  89.1835632
  75.7781143  71.0277481  32.8450356  76.0253906  70.1844635  32.4656334
  76.0882721  70.9836273  33.7495155  39.5710716  64.8243561  62.6038055
  40.0076561  64.0613556  62.9825554  38.8836021  64.4560089  62.0488853
   0.5981837  38.0166397  46.2534904   1.5012109  37.8105469  46.0120392
   0.3750485  37.3685646  46.9216537  47.7120667  51.2551537  20.5196686
  46.9950562  51.2467422  21.1537495  48.1460800  50.4102058  20.6376705
  62.4731369   2.0727987  66.8037109  62.7774124   2.5515265  67.5747299
  61.6821632   1.6215913  67.0986710  46.2087669  10.3843555  29.7924957
  45.7190437  11.1281528  30.1434498  47.0380173  10.7610340  29.4980717
  36.0653038  39.5059624  13.5123301  35.6948166  39.4149513  12.6344423
  36.9914818  39.6959724  13.3629141  52.7550735  64.6022034  49.2762489
  52.5487671  64.3427277  48.3782845  52.0789337  65.2409134  49.5023422
  28.7129612  49.3916550   7.9090509  29.3675480  48.8535995   7.4638014
  28.8589153  50.2751541   7.5708828  71.1301270   3.7670801  42.9128799
  70.3887939   4.0387282  43.4540520  71.5767059   4.5840969  42.6908798
  26.0068569  62.9958038  20.2772980  25.7388134  63.2403488  21.1630650
  26.1406193  62.0489731  20.3203526  63.8339081  38.9784966  32.2888412
  63.1441345  38.9691391  31.6252460  63.3808174  38.7790909  33.1080971
  23.6954803  40.6153641   4.7507954  24.4740410  40.7512512   5.2908025
  23.7745953  41.2619743   4.0494637  58.9231720  45.8791389  56.1030807
  58.2774620  45.5579300  55.4737015  58.6232109  45.5419121  56.9471970
  23.4472008  18.1183586  71.9484711  23.6695690  18.2881413  71.0330658
  24.2153625  17.6701374  72.3023834  29.9744835   1.8355592  11.9363422
  29.9486237   1.0521840  11.3868999  30.9030647   2.0623901  11.9864922
  81.4458618  65.8251038  57.6713295  82.3402100  65.9062271  57.3399773
  81.4010086  66.4498825  58.3951225  10.4068966  48.5569572  46.5986938
  11.1554756  48.3293800  47.1501198  10.3780499  49.5135498  46.6168861
   8.4558773  27.3515491  62.0531006   7.6351051  26.8633251  61.9882584
   8.2412691  28.2253036  61.7264061  16.6052074   3.3622739  63.7950401
  16.6231327   3.2576485  62.8437424  15.7021589   3.6114595  63.9916153
  70.1307144   0.8678927   7.3622899  70.8129883   1.3128209   6.8595309
  70.1101227  -0.0197939   7.0047703  78.7827682  23.7377605   5.3225718
  79.6931076  24.0124435   5.2127218  78.7746735  22.8205318   5.0489726
  59.9632416  21.1629257  20.1047268  59.7509575  20.3222485  19.6992283
  60.4526253  20.9313107  20.8940868  38.8523140  32.8532295  80.5674286
  38.7055702  32.6360245  79.6468201  38.6366043  32.0495300  81.0404663
  49.5195885  32.1442451  20.0683041  49.4719582  32.3185005  21.0083027
  50.4446220  32.2581062  19.8501720  54.7765465  68.2553482  68.9926758
  54.1188889  67.9375916  69.6113358  55.5024490  68.5476685  69.5438919
  55.0092621  47.4359894  55.6443520  54.7750473  46.7313614  55.0403023
  55.0298576  48.2222137  55.0987701  27.0581684  45.4515305   8.2406435
  26.4810658  46.1829224   8.0209837  27.8468437  45.8656044   8.5910196
  38.0072441  46.7011261  35.2068024  38.2882462  46.7855034  34.2956734
  38.5497742  47.3290405  35.6838951  25.0700340  21.6267834   2.1397314
  25.2627468  22.5395775   1.9254849  25.7641182  21.3717442   2.7475441
  55.1954651  52.4919319  16.6000023  54.9629669  51.7804298  17.1966095
  54.7695351  53.2646027  16.9712105  76.9072952  28.9465790   6.3409052
  76.5907974  28.4426308   7.0906372  77.8197479  28.6760693   6.2384744
  16.2746811  57.5335999  45.8194618  15.8408327  56.8854561  46.3743668
  15.5973310  57.8136520  45.2038345  86.4096603   8.2864733   9.7999496
  85.4574738   8.3592968   9.8653545  86.6325760   7.5461407  10.3642626
  20.3186169  14.3655081   7.7354074  19.7298698  15.0122519   7.3463931
  21.0117474  14.8861389   8.1412954  64.5414276  58.6757736  43.4739380
  65.1113815  57.9312782  43.6665764  63.7762794  58.5427322  44.0334778
  48.3949928  68.5177078  40.9838295  47.9302597  68.9909592  40.2936897
  48.2225914  69.0227737  41.7784500  12.6502113  20.4609966  24.4768391
  12.0231743  20.8298588  25.0989304  13.4863329  20.8627892  24.7128372
  68.2267456  30.4375553  33.2200775  68.9804001  30.9109707  32.8677750
  68.6094437  29.7253075  33.7324028  45.4012604  28.9755516  19.3763657
  45.5667267  28.5157852  20.1994495  44.7601929  28.4292736  18.9215584
  66.7586441  53.5109177  51.0431824  65.9076996  53.9336929  51.1588783
  67.3814774  54.2360229  50.9928703  11.1690617  42.2744751  65.3624649
  11.5428352  41.9765434  64.5331497  11.1012411  41.4809341  65.8934250
   2.2064738  39.7670822  80.1224670   1.4272166  39.4899635  80.6043320
   2.3849790  40.6509361  80.4436646  45.9130936  23.6924572  -0.0910356
  45.5103226  22.9633369   0.3805474  46.2241707  24.2803001   0.5973709
  30.2614498  21.6031876  73.5415344  30.6009007  20.8531704  74.0298767
  30.3594666  21.3547363  72.6223526  42.7963638  59.7196083  78.6566086
  41.9660149  59.8813858  78.2087402  43.0590401  58.8462296  78.3660126
  41.5128670  67.7444687  55.3410492  41.6189995  66.8101501  55.5199661
  40.5783920  67.8494568  55.1622620  30.5881004  16.9149246  78.9311829
  29.6545601  17.1214809  78.9766693  31.0221100  17.6862259  79.2958221
  69.1782990  15.5699863  58.4746590  69.1334839  15.4351368  57.5280647
  69.0852966  16.5160732  58.5864792  38.6976852  63.2264252  54.0989342
  39.1600571  63.9064560  54.5888367  38.2601624  62.7030449  54.7704086
   1.9482903   5.9857235  62.2613869   1.8083750   6.7856860  62.7680588
   2.8414776   6.0671477  61.9269943  74.9282379  55.9147072  21.9798450
  75.1747971  56.0919724  21.0720901  74.3501892  56.6398659  22.2170048
   9.5139542   3.7361646  87.1232452   9.0651054   4.0848317  87.8934402
   9.0646629   4.1401687  86.3808517  74.3649139  67.4804459  68.6599503
  75.1730194  67.6341095  69.1494293  74.6514587  67.3691025  67.7534561
  31.0333157  21.5135803   2.5847120  31.9470158  21.5967674   2.3118281
  30.5664406  22.1637630   2.0598102  60.3216095  43.1763039  69.1942062
  61.0401077  43.5977516  69.6657715  60.7539062  42.5876808  68.5754318
  83.8328934   4.2080784  79.8517075  83.6234436   3.5767648  80.5400467
  84.4169159   4.8379731  80.2740707  85.8233185  10.7076941  36.1939316
  85.0399475  10.4279509  35.7203178  86.4352875   9.9781284  36.0967026
  53.7921715  12.3598118  21.9464760  54.0573387  12.2771645  22.8624935
  54.6055679  12.2604036  21.4517670  66.4369202   7.2053657  23.1183052
  66.9504318   6.7545600  22.4479961  66.8934021   8.0361261  23.2513161
  44.9721756  41.4284019   0.1936720  45.9139862  41.4297371   0.0227391
  44.8394165  42.1494408   0.8090670  84.4178391  13.2555761  37.9686852
  83.9343033  13.9207277  37.4787903  84.3126068  12.4553738  37.4540672
  52.5026779  38.6742516   6.4766769  52.7779770  39.5803719   6.3374562
  52.4870758  38.2912178   5.5995936  12.7741365  17.8370934  10.8461857
  13.2220421  17.0582409  11.1763411  12.9595451  18.5139904  11.4970818
  53.9442368  55.7462692  66.1577454  53.6485062  56.6345825  65.9585495
  53.8418846  55.2694206  65.3341141  66.0595551  17.7505798  25.5282249
  66.9790573  17.8624096  25.2868938  65.5794525  17.8846340  24.7110596
  56.7203560  40.0569649   7.7090297  57.6336250  39.8977661   7.9474120
  56.2145042  39.5765839   8.3644571  11.8586378  10.6085987  46.9983292
  11.4820547  10.7981596  46.1389771  11.9237146   9.6540155  47.0260239
  58.2580719  38.2752724  85.5066833  58.2666054  38.8806152  86.2481155
  57.3720474  38.3444824  85.1511612  66.5157394  53.6113548   7.6467080
  66.7257004  53.4015427   8.5567226  67.1456451  53.1059227   7.1329112
  57.3732414   1.3504575  62.7391586  57.7162361   0.9265372  61.9524727
  58.0614243   1.2328795  63.3939934  28.7702560  34.6773567  61.9476662
  29.2009506  34.1669044  62.6333580  27.9729252  34.1865158  61.7487411
  18.0588112   4.8882146  65.8898621  17.5271549   4.8132114  66.6822891
  17.6576347   4.2756152  65.2734070  15.3151960  34.9588356  69.5655975
  14.4990692  34.7480354  69.1120148  15.8686008  34.1891632  69.4330063
   4.2938709  27.1764984  12.4935188   3.7849696  27.9722672  12.3385868
   5.0324278  27.4651012  13.0296841  34.8888664  45.1410828  58.6898727
  34.5824699  45.2972946  59.5831528  35.0141563  44.1933327  58.6419334
  76.5008698   4.8031001  10.1600857  76.6427383   4.0437412   9.5948591
  77.2772903   4.8339877  10.7190666  67.8098831  23.2686653   2.2571754
  67.8858871  24.0720692   1.7423967  66.8956451  23.0042305   2.1548579
  14.5378170   9.3379288  86.8074570  13.7093134   9.4601927  86.3439255
  15.0713806   8.8137732  86.2101288  61.6571274  69.9476471  24.5463047
  61.7654991  70.7898712  24.9880581  62.5506821  69.6510086  24.3736820
  13.7687016  56.4700089  88.9739304  13.6921730  57.4144173  89.1098328
  14.6857128  56.2739334  89.1659622  13.4710455  64.6512833  41.0225906
  12.6662922  64.9652176  41.4349632  13.7826748  65.3958054  40.5079956
  23.9921379  58.8730240  28.3191814  24.9044838  58.9447823  28.5997276
  23.4858475  58.9557381  29.1273041  20.9756641  58.3478622  30.7981663
  21.8893394  58.4797325  31.0512257  20.8241577  57.4115677  30.9271240
  39.4134789  32.6665688   8.1545916  39.4399452  32.9525795   9.0676794
  39.3617859  31.7120438   8.2039957  14.8553801  23.9297276   1.6127651
  14.0395231  24.4103546   1.7527940  15.1463490  23.6902809   2.4926713
  56.1527786   3.4872849  44.3265610  55.2334747   3.7026222  44.1692696
  56.5378342   3.4278274  43.4522438  43.9331779  55.9438286  57.8389549
  44.1720657  56.7400398  57.3643875  44.2745476  56.0802383  58.7227478
  74.2449188  53.2386246  63.5424805  73.7042236  52.4500389  63.5874062
  74.7891312  53.2010155  64.3290176   3.0544279  66.8453445  87.3931198
   2.4204986  67.5052643  87.1122818   2.5962467  66.3452301  88.0685349
  65.6627884  10.4289246   2.4496961  66.3301773   9.7504148   2.5519297
  65.1992950  10.1899776   1.6470039  33.7861061   5.1989155  10.1468182
  33.0210457   5.6063280   9.7407017  34.3070183   5.9348164  10.4682713
  49.8984680  28.1367722  71.0289307  50.2614326  28.7669983  71.6512680
  50.5952911  28.0069027  70.3856506  32.8802223   2.7656326  54.1060829
  33.0124168   2.5818462  53.1760406  33.2424355   3.6428423  54.2307281
  16.2708111  42.8035583  65.1790924  17.0962124  42.3268280  65.0915070
  16.1973515  43.3063164  64.3678741  84.4076538  41.1942177  57.6573105
  83.8486176  41.5728951  58.3357773  85.2577209  41.0816078  58.0826759
  30.7179756   6.1843452  37.3341484  30.9243374   7.0207448  37.7513771
  30.0910511   6.4080548  36.6462860  35.2699242  13.7757854  86.0799789
  35.4461441  14.7085886  85.9572754  34.4357033  13.7492495  86.5485992
   9.3818560  56.0546265  50.1785545   9.2206430  55.6563683  51.0339127
   8.7141714  55.6744614  49.6076775  61.7149162  61.4771347  69.9616547
  61.3936501  62.1767998  70.5304184  61.0439415  60.7966881  70.0166245
  41.7417641  52.4634209   9.0249243  41.9447670  51.7899971   8.3756771
  40.9214287  52.8508568   8.7196789  86.6539001  64.5056686   4.0067182
  87.0361023  65.3518677   4.2393093  86.3572769  64.1396866   4.8399658
  81.1278229  46.9922562  53.9171066  81.1853561  46.2516785  53.3133965
  80.1894608  47.1631279  53.9978218  40.7631111  37.1460533  15.6115656
  40.9205437  37.7349892  14.8735933  40.0858383  36.5461807  15.2990189
  18.5197086  63.5203934  23.3402233  19.4128799  63.2557716  23.5603409
  18.6289463  64.2170334  22.6929302  68.9954376  37.1808128  63.3367958
  68.7068176  36.3119392  63.0575218  68.3998795  37.7849884  62.8934975
   8.0535784  24.8603020  69.6666946   7.6627307  24.1228733  69.1980057
   8.4398108  25.4032574  68.9794846  77.0883942  28.6402683  22.5772209
  77.8108826  28.9780293  22.0479259  77.5008163  28.3593407  23.3940544
  72.1205521  34.8560715  11.4200773  72.1017990  35.7236900  11.8239527
  71.2321243  34.5189667  11.5353489  76.5041275  47.2969437  63.5658798
  76.6001587  48.2473831  63.6265411  75.5706100  47.1603699  63.4042282
  59.2532692   7.4020572  29.9144955  60.0265617   7.9641728  29.8667622
  59.1322174   7.0847392  29.0195713  45.4743462  26.6324692  33.0136871
  44.8098755  27.2049198  32.6302681  45.0920219  26.3430691  33.8421211
  47.0491295  52.5132637  81.7186050  46.9889030  52.6358223  80.7712021
  47.9827652  52.5975227  81.9121475  10.8272247  23.0696526  15.6858921
  11.2938986  22.2563019  15.4937820  10.9708109  23.6163635  14.9134140
  20.8110924  52.0519028   5.6169982  20.2519894  51.9724884   6.3898692
  21.3349648  51.2507858   5.6170220  51.5561371   2.4047387  51.4177933
  51.1139603   1.9744178  50.6859894  50.8872185   2.4650037  52.0998154
  76.9701385  20.3214264  66.8637161  77.7289124  20.8168697  67.1719971
  76.8508224  19.6337986  67.5188217  74.5636597   2.7810955  40.8339424
  75.3907776   3.0784185  40.4548607  74.7084808   2.8128023  41.7795906
  40.6794243  52.2659874  43.7701302  41.0090523  52.6951714  44.5596733
  40.9432755  51.3509827  43.8669815  49.7672043  31.6654034  35.4188614
  49.5087776  32.5861092  35.4607430  50.6228256  31.6370773  35.8470383
  50.4189224  41.1913872  54.4427528  49.4911728  41.4161835  54.5133209
  50.4240456  40.2550545  54.2440414  85.8018723  31.8771610  71.0890350
  85.5138931  32.7782059  70.9426880  86.7544022  31.9387856  71.1606445
  60.6231079  23.2144794  88.7151108  60.2652130  22.5290527  88.1509018
  60.7386055  23.9666252  88.1344528  52.7368393   1.2653147  11.0551805
  51.9386406   0.8297530  11.3541708  52.4318161   1.9180988  10.4250498
  52.9364243  24.0489674  68.2401123  53.6174660  23.4056015  68.4363098
  52.3298454  23.9882679  68.9780884  84.0852280  59.3313828  35.9302521
  83.7575607  59.8917542  36.6337090  83.2966080  59.0071831  35.4952698
  55.9518967  57.2120857  40.1599350  55.5132370  56.7456055  40.8714142
  55.9599266  56.5884857  39.4337921  67.5294724  11.6821194   5.0107837
  67.7112503  12.5048389   4.5565548  68.3333282  11.4931173   5.4948611
  25.7766075  36.4971962  61.2037315  25.7491856  35.5596046  61.0129318
  24.8872299  36.8037224  61.0268745  64.9217300   9.7276649  43.2836342
  64.2810135   9.0394316  43.1046295  65.0097656  10.1948948  42.4528618
  24.5884933  53.6772575  67.3669815  24.5004158  52.7416801  67.5490952
  24.9585629  53.7157974  66.4850540   8.2599449   5.0125394  85.2114182
   7.3841972   5.1999493  84.8735199   8.6595373   5.8739400  85.3320312
  10.8458414  46.9407845  36.9560051  11.0875540  47.7992172  36.6082993
   9.9486103  47.0534821  37.2698669   1.1435899  50.6073189  82.8720703
   0.9658648  51.0781975  82.0578766   2.0212405  50.8920860  83.1267700
  78.8864746  30.9085045  41.6281929  78.4275894  30.0830326  41.4724350
  79.6746445  30.8499794  41.0882034  15.3548765   4.3724704   7.0925312
  14.5935106   4.6433382   7.6055474  15.2971277   4.8877053   6.2879009
  42.4713745  50.8590698  48.0283623  42.5936813  50.0781097  47.4885712
  43.3588943  51.1767654  48.1945343  45.4385071  39.8801231  57.0945473
  45.8223457  39.8000145  57.9677505  46.1583519  39.6776695  56.4969978
  65.1608505  51.5130882  11.6678524  64.8385468  51.1448135  12.4904861
  64.6185913  52.2886353  11.5239067  49.0109367  45.1458626  55.7748260
  49.4904366  45.9432755  55.5502205  48.4799271  45.3910866  56.5325356
  73.7747116  10.7193584  55.0615768  73.8595886  11.6697035  55.1382027
  74.6719971  10.3926497  55.1277199  62.6873245  48.1940918  27.7361927
  61.7350235  48.1384087  27.6571198  62.8876801  47.7302704  28.5491886
  16.1297150  33.1156960  87.5567322  16.1833611  33.1017532  86.6011429
  16.0752220  32.1934128  87.8070450  14.5624495  61.3596077  67.7643280
  14.8497219  60.4524612  67.6604538  15.3716145  61.8533401  67.8974228
  61.9226227  36.5589638   1.9863039  61.7620621  36.4836426   1.0456768
  62.7323494  37.0652771   2.0512774  38.8303947  68.1628571  51.9760361
  39.3158989  67.3538284  52.1372566  38.6743317  68.1643829  51.0316467
  66.6863861  20.5643787  67.5307922  65.7356873  20.6554565  67.4666901
  66.9703140  20.3807011  66.6353073  29.0147743  63.6305847   5.7956614
  28.0980644  63.3586884   5.8398094  29.3671322  63.1628380   5.0385022
  36.4190788  22.3340988  12.1905308  36.8640213  23.1815281  12.2016125
  36.8865089  21.8268166  11.5268984  29.2624207   4.2468033   6.0911598
  28.7471275   5.0159330   6.3343549  29.0511818   4.0986614   5.1693878
  23.5880795  10.3224010   4.6694307  22.8742924  10.7823372   5.1112413
  24.3773460  10.7953005   4.9333563  54.4031143   9.2763662  79.7586365
  53.7698364   9.9910822  79.8247604  54.8289719   9.4112539  78.9120636
  81.5471649  35.9875908  31.1358013  82.0679474  35.2623787  31.4808865
  82.0857162  36.7637711  31.2898674  25.9547939  48.5242958  68.7210846
  26.3308887  48.5727768  69.5999680  26.5571747  47.9625320  68.2334442
  42.6957054   8.3804512  65.0678406  41.9980621   7.8993120  65.5128479
  42.2649574   9.1626425  64.7230682  13.4947481  41.4953041  43.1639786
  13.3292408  40.7986221  42.5287819  14.0165138  42.1382599  42.6837654
  79.8307800  38.8896523  18.1626072  79.4373169  39.2425613  17.3645649
  79.1951447  39.0869980  18.8505440  10.0017452   9.7306271  13.9833241
   9.0800228   9.4794292  13.9236498  10.0096188  10.4700060  14.5911798
  12.6845284  21.5428257  21.5153198  13.1494751  21.7749233  20.7114620
  13.3487787  21.6024666  22.2019386  10.6786766  11.2537556  18.3225327
  11.4449205  11.1120663  18.8784351   9.9795332  10.7565765  18.7470856
  77.5194931   7.1363778  42.3198624  77.9800034   6.6458106  41.6390533
  77.3515320   7.9925132  41.9260941  79.9550247   5.6520939  87.0382767
  80.1315384   5.1868320  87.8559647  79.5460434   6.4727206  87.3131256
  52.2774467  65.8434906  58.7697868  51.8292770  65.8862152  57.9250679
  52.4677887  64.9135590  58.8931694  26.2536430  70.2057495  27.6411934
  25.5808926  70.5332947  28.2381458  27.0182514  70.7537384  27.8181553
  71.8259811  67.3593063  65.4519501  72.0526886  68.2817688  65.5698471
  71.0969772  67.2128983  66.0547256  19.9893093  59.2439079  23.4549084
  19.2189465  59.7772942  23.2592735  20.1145744  58.7078094  22.6718769
  60.8178215  29.5409756  83.8756866  60.4785042  29.3909378  82.9933090
  60.0362625  29.6192112  84.4227524  31.4287128  -0.1558797  80.4346390
  31.1917305   0.5423365  81.0450134  31.4765778   0.2771161  79.5823135
  70.1737518  53.8839073  39.9615135  70.7179413  53.5035934  39.2719841
  70.7632446  54.4701538  40.4358978  48.6581650  62.9147949  30.1765556
  48.7028885  62.0157700  29.8510036  47.7255173  63.1295357  30.1596470
  19.3506317  69.6081543  29.2507057  18.5955963  69.0738297  29.0044289
  18.9745827  70.3508148  29.7232265  56.6731262   0.8024364  31.1411266
  57.1699409   0.0200261  31.3803787  56.4133606   1.1865668  31.9785023
  23.9233360  56.0698853  29.0385017  23.5557976  55.4570084  28.4016914
  23.6512394  56.9325142  28.7253494  60.3932571  71.6121445   2.3607612
  61.3076668  71.3845215   2.1926064  59.8922920  70.8981476   1.9664556
  27.8433762  65.3998489  46.7865181  28.5870228  65.6536102  46.2398720
  28.2375259  65.1238937  47.6140022  54.9099083  22.2473621  74.4417953
  54.0242844  21.9116364  74.3032837  54.7973061  22.9748650  75.0535965
   5.2392020  41.5888176  61.8265648   5.2129297  42.4723396  62.1938934
   6.1311603  41.4948769  61.4921761  36.1786957  27.2017689  73.6594696
  35.6692772  27.9857922  73.4544601  35.7469254  26.8299198  74.4285812
  85.4920959  20.0790596  63.9190941  85.9173050  20.8087482  64.3696289
  86.1323624  19.7944202  63.2669640  38.4088707  14.9424706  64.5164337
  38.4510078  15.2799902  63.6217079  38.2852974  13.9991541  64.4110031
  53.1581764  57.3190002  34.0649643  53.1324539  56.6117325  34.7094383
  52.2381973  57.5153084  33.8879509  84.8467865  53.8654900  63.7702904
  84.5984192  52.9426918  63.7155800  85.4589005  53.9921608  63.0453758
  59.0884476  56.1230354  37.8304901  58.1892281  56.0519943  38.1507912
  59.6006508  56.3568802  38.6045647  43.6294403  59.6968384  64.7064972
  42.8739777  59.4491005  64.1734543  44.3291054  59.8532715  64.0722809
  29.1321068  28.9431915  83.7015762  28.5633984  28.3574200  83.2019043
  28.6458416  29.7663193  83.7488861   4.6624489  28.1541672  22.3427277
   5.1350036  28.7647057  21.7768955   3.8285394  28.5890713  22.5207291
  67.9688950  43.9726791  23.6169033  68.5237961  44.7224007  23.4018803
  68.5705109  43.2285652  23.6411724  74.7167435  55.8195534  63.2829628
  74.4026871  56.0917397  62.4206886  74.5587540  54.8758240  63.3084869
  24.1067410  38.3911324  65.5386505  23.2692299  38.2920570  65.0858841
  24.7567215  38.0723534  64.9124374  27.8034191  45.5750160  21.5351315
  28.5382442  45.6190376  20.9233093  28.2127724  45.5568810  22.4001942
   4.7425628  45.0670052  28.9989853   5.5169950  44.5761147  28.7241879
   4.8328338  45.9172897  28.5687504  48.0010071   9.5383034  14.0253735
  47.1044006   9.6621447  13.7139292  48.5358009   9.5634594  13.2319040
  26.5865765   6.3014574  14.4957590  26.4332333   5.7070699  15.2302113
  27.3857250   5.9724774  14.0842171  22.0692024  51.8091164  62.1589203
  22.1397629  51.6026344  61.2269211  21.2629490  52.3200340  62.2306747
  86.3070374  30.2286549  29.9758091  85.7550125  30.6621494  29.3249760
  85.6881104  29.8147430  30.5773392  21.6274929  24.0055695  85.1895981
  20.9855976  23.3272133  84.9797592  21.7442799  24.4864826  84.3702621
   1.2201670  50.8426208  49.1337891   1.7243888  51.5786095  49.4806480
   0.6999740  50.5372391  49.8770103  27.7759800  48.6456032  18.8397980
  28.6532497  48.3909111  19.1257362  27.5140686  49.3322105  19.4531517
  67.0821075  38.1709023  58.7103157  67.2460938  38.3649178  57.7874413
  67.1286163  37.2164764  58.7663498  19.4297180  49.5029335  76.1416092
  18.6337109  49.8802834  76.5160522  19.2255611  48.5743027  76.0311737
  65.7269135  38.4303055  23.7802963  65.7641449  37.4898605  23.6059132
  66.4387054  38.5872116  24.4007568  26.3921623  54.8515778  57.3248634
  26.4079514  53.8949203  57.3530693  25.8595009  55.0598030  56.5573082
  64.0953445  56.3958168  45.9245796  63.6463318  55.8514709  46.5713463
  64.6793213  56.9502068  46.4421272  72.5173569   0.9156643  55.1482964
  73.4721222   0.8734531  55.2019081  72.2520218   0.0301110  54.9000549
  31.6400909   8.7233067  66.3686142  31.4021873   9.5856276  66.0279694
  31.7219696   8.8532524  67.3134079  80.3329468  54.8483505  52.4328003
  80.5541458  55.3942566  53.1873131  81.1335220  54.8286972  51.9084663
  83.5714569  27.4441719  36.1136246  83.7220230  26.9905872  35.2842751
  84.4376068  27.7545986  36.3775330  70.0536880  54.1626930  10.1298838
  69.8498077  53.2278442  10.1029921  69.1996994  54.5929604  10.1723185
  75.1827698  13.5966511  69.2844772  75.9446030  14.1304560  69.5100861
  75.5497284  12.8281717  68.8474274  34.9563141  67.6701965  42.6974831
  34.8831100  67.8711014  43.6304932  35.7402916  68.1394882  42.4122238
  84.9342041  14.9957619  43.2880287  85.8907471  14.9989796  43.2527199
  84.6886444  14.1024942  43.0471840  42.3502197  58.3457718  55.9107704
  42.6491737  58.8623428  55.1624298  41.9392090  57.5744247  55.5204811
  23.5793819  51.2454109  16.4544849  23.3698502  51.6323776  15.6044340
  24.4379292  51.6056976  16.6765747  22.6048946  64.3785553  79.6479416
  22.2839451  63.5326996  79.3352966  23.3976002  64.1666336  80.1408310
  49.0232315  69.4529877  75.8150635  49.4708977  70.1011353  76.3588791
  49.5438805  68.6559906  75.9148026  44.5229797  51.8349190  50.6282349
  44.7262840  52.7604904  50.7632179  45.0835648  51.5704613  49.8988266
  31.7858467  50.3695908  40.4520912  31.0856400  50.6253471  39.8516464
  31.3292198  50.0506401  41.2305450   3.0533078  48.3336411   7.1475930
   2.9723771  48.3266716   8.1013403   2.5625494  49.1075974   6.8712263
  23.7993431  24.4394722  59.9457626  22.8453007  24.4855061  59.8831787
  24.1079426  24.6601257  59.0669518   0.8389937  44.3905373   8.0934067
   0.8760961  43.6201477   8.6602907  -0.0963390  44.5561409   7.9752564
  21.3157406  60.0233574  27.6103592  22.2708397  60.0845833  27.6266842
  21.0154057  60.8995247  27.8519516  19.1216259  63.7478485  32.0145226
  18.3758011  63.6972275  31.4166813  19.7776814  64.2552032  31.5365982
   7.4706249  32.1061935  45.8766060   8.2701807  31.9140129  45.3866997
   7.7171116  31.9866123  46.7937660  52.4980545  53.6647797  25.3754807
  52.9673157  53.2023201  24.6811066  52.5123787  54.5825806  25.1040649
  75.1700058  43.5947838  87.0298309  75.3058090  42.6911507  87.3148651
  74.7388611  44.0179062  87.7723389  80.7075577  41.3604736  68.5798111
  81.0511703  40.7699432  69.2502060  79.7803040  41.4560394  68.7972794
  54.2600098  66.9836884  54.7767525  53.8702469  67.2331238  53.9388390
  54.1090431  66.0405807  54.8398399  83.6763000  66.1155014   1.1209637
  83.3170242  65.5401154   0.4456208  84.0665894  65.5196838   1.7604295
  61.4409714  36.7378120  32.1704254  61.4047279  37.5887604  31.7336082
  62.3006439  36.3862038  31.9389858  14.3575974  38.1825294   1.0079741
  13.6918936  37.6925468   0.5252850  15.1802177  37.9643707   0.5698704
  84.8590012   6.0242691  67.2527618  85.0756912   6.0663276  66.3213577
  84.8381958   6.9385672  67.5353546   2.5066035   4.4301991  53.2458801
   2.8295135   4.5575132  54.1379280   2.7484312   5.2344222  52.7865562
  53.5375137  42.3001213  61.6630020  53.7740326  43.1920547  61.4085541
  52.5917778  42.3348312  61.8065796  24.5253811  27.8566246  72.4062881
  24.3598003  28.7370548  72.0691528  23.6733704  27.4219284  72.3695602
  84.5914154  35.7929268  14.1186123  85.2296219  35.1060219  13.9260349
  83.8858490  35.6478691  13.4882421  79.4849472  67.3055420  47.6406364
  79.6255875  67.6584549  46.7620544  79.7365036  68.0181732  48.2280998
  59.4608727  29.1039543  54.8409615  59.6870689  28.1795826  54.9439354
  59.5649643  29.2731323  53.9045982  80.1323776  15.1048269  64.8752594
  80.7086029  15.6305265  65.4300919  79.3794861  15.6714849  64.7070618
  52.8672714  15.8457851   3.4501886  52.5988426  16.0707264   4.3410187
  53.4523621  15.0959997   3.5584624  23.0153809  67.2442780  38.3778152
  23.2102547  66.7541962  39.1766129  22.1502895  67.6229630  38.5341835
  31.3782291   0.2124315   4.5494781  32.0558014   0.5354414   5.1434412
  31.0395470  -0.5739138   4.9774818  53.3270607  37.6446800   1.7290725
  53.6856499  38.0427780   0.9358742  53.3058472  38.3582993   2.3666718
  65.9404678  10.5265112  84.1302872  66.8481827  10.5966091  84.4258728
  65.9151382  11.0258198  83.3140259   6.0463490  21.7735443  87.4862137
   6.9835906  21.7021809  87.6670914   5.9373031  22.6560650  87.1319504
  20.7429314  65.6585388  13.1657505  19.8558578  65.8548584  12.8644371
  21.0934906  66.5041504  13.4455290  57.9814224  38.8252602  68.3994446
  57.4295006  38.6398621  67.6396866  57.9366684  39.7759285  68.5017242
  29.2269745  27.2876720  70.9398117  28.3951092  27.4542656  71.3830719
  29.7186298  28.1029587  71.0388718  65.1775436  33.3126831   1.2767620
  65.8143692  33.3818207   0.5654927  64.3281631  33.4223747   0.8492680
  83.0831757  21.3179188  24.6991348  82.9464569  20.4836121  25.1479912
  83.9779282  21.5693111  24.9281769  66.9980698  20.1705170  80.7817078
  66.3410416  19.9027996  81.4242630  66.7246094  19.7461281  79.9684753
  16.4774265  45.2753143  70.7966080  15.8411255  45.2488556  70.0820084
  16.6931667  46.2030983  70.8909760  35.7321777  65.6673813  37.2326164
  36.0738373  64.8487473  37.5922546  36.2071838  65.7842255  36.4098473
  29.8767719  70.8055725  11.0747290  29.0975761  70.3291397  11.3612642
  30.1220093  70.3888550  10.2486296  31.3001633  63.2492981  28.3669338
  32.2505302  63.3325043  28.4451160  30.9606705  64.0941849  28.6621456
   2.8651645  12.5151358  50.7264824   3.3509045  12.3742180  49.9138145
   1.9621283  12.6595249  50.4438019  24.9554062  59.8466034  57.4107666
  24.7846527  59.4468803  58.2635803  24.9053192  59.1189728  56.7908630
  18.1127567  43.8612289  87.9323425  18.6363678  44.5508499  88.3403702
  18.6004276  43.6254425  87.1431580  32.7642326   1.9336309  59.8736305
  33.1197243   1.9817253  60.7610664  33.3304939   2.5072615  59.3573685
  20.9408474  46.9407463   2.3039196  21.1188660  47.0989227   3.2310228
  20.2624969  47.5772667   2.0782852  61.6658134  10.4402714  31.7843685
  60.7130127  10.4639759  31.8729305  61.9736252  11.1789560  32.3095627
  78.7671204  69.2946320   4.6941633  79.1483459  70.1682968   4.7813897
  79.0712662  68.9846725   3.8411372  81.0168381  19.8684788  76.1102676
  80.3392563  20.3967552  75.6883163  81.7328186  20.4826355  76.2727737
  42.4576874   1.6696566  16.5732365  42.9817314   2.4483159  16.7611179
  42.4250603   1.1965585  17.4047089  41.4227905  39.3556633  75.4163284
  42.2315025  39.7495003  75.7435913  41.1302567  38.7842331  76.1263428
  18.3684788  32.0890045   1.9360328  19.3119564  32.0255508   1.7875205
  18.0788021  31.1812668   2.0273194  54.0885811  47.2530441  23.3402634
  53.4719086  46.8387184  23.9438190  54.0302849  46.7292061  22.5412464
  25.7701359   7.5649271  38.5451012  25.9206696   6.6463480  38.3219795
  25.9566345   7.6173806  39.4824905  52.7391701  44.0636673  28.8478222
  53.2967949  44.6162872  28.3001938  52.2625237  43.5136642  28.2261028
  74.8229675  12.0703030  36.9945793  73.9769745  11.6478691  36.8460045
  75.4411774  11.5583735  36.4730682  79.8752441  37.2447624   1.6012019
  79.7474518  37.8213425   0.8479036  79.1852264  37.4962463   2.2150919
  23.5292454  45.7390366  88.0478668  23.4452000  44.9532700  87.5077362
  23.4295673  46.4648895  87.4318771  87.0420837  63.3005676  75.2730408
  86.3696518  62.9489403  75.8565063  86.6212158  64.0456238  74.8440857
  71.9885559  51.5301399  47.3060951  72.6063004  50.8257065  47.5020256
  72.5247498  52.2143517  46.9053688   8.5348606  47.9345627  33.7577095
   9.1843424  48.3146133  33.1661263   8.2808933  48.6577721  34.3310356
  78.8739166  20.8807983  61.6020088  79.0959091  20.8735600  62.5330811
  78.5399323  20.0006809  61.4285660  20.2635689  53.3525352  14.3444862
  20.0292034  52.4724045  14.6388988  21.2204456  53.3499451  14.3197556
  76.9036865  62.4389191  10.6039429  77.6479416  62.3707352  11.2019958
  76.9493637  61.6437225  10.0730848  71.0933609  27.2343807  89.1230698
  70.4051895  27.6550484  88.6076202  71.9004440  27.4229965  88.6442490
  28.3845692  70.6767960  81.6736755  29.0749512  71.1992264  82.0819397
  28.6613789  69.7698898  81.8045425  40.5938606  52.1039772  60.1869888
  41.4314804  51.6584663  60.3140450  40.5390930  52.2461090  59.2419891
  41.6413498  59.7606087  84.9135132  41.6269341  59.6467476  83.9632187
  40.8052025  60.1796341  85.1172485  73.5810242   4.1911922  20.1824036
  72.9894562   4.8985262  19.9255791  73.0891800   3.6926563  20.8349285
  78.5579834  20.2169857  78.3255005  78.9425354  19.3614254  78.1348038
  79.2214508  20.6664906  78.8489456  54.3512802  51.6935120  75.3956223
  53.5940361  52.0143738  74.9058685  54.3948479  50.7607269  75.1852722
  79.3852692  44.5982933  76.1501923  79.7790222  43.9432373  76.7264633
  79.8433075  45.4112663  76.3635025  26.9981861  39.0352821  15.9124517
  27.9393597  39.1942711  15.9842129  26.7151451  38.8634605  16.8105583
  40.1273460  39.0180054  60.6422272  39.9275398  38.0980225  60.8152504
  40.5798035  39.0103073  59.7987518  15.8655481   6.6581435  41.1387978
  16.1012421   6.9186521  40.2483940  16.6616497   6.8042965  41.6497688
  12.0235233  38.3709831  52.8764915  11.3459797  37.7982941  52.5170555
  12.5690136  38.5984993  52.1235580  28.9959812  51.8894234   6.2779160
  28.0390530  51.8847198   6.3002138  29.2333488  52.8113785   6.3773417
  14.3761663   5.7632594  25.6059380  14.7041988   6.5107918  25.1061172
  13.7218790   5.3614960  25.0343399  44.0001411  36.9598923  29.9498959
  43.2641869  36.6026649  30.4468822  44.1107025  36.3542213  29.2169762
  12.3524055   3.8678162  87.2507553  12.7727718   3.1850083  87.7735367
  11.4146919   3.7082343  87.3577957  65.3860092  53.2293739  23.4227619
  65.2023773  53.9129715  24.0671253  64.6140518  52.6639252  23.4468555
  50.8165665  21.2738533  78.8538513  50.8802071  20.9644547  77.9502716
  51.7205086  21.4606628  79.1072769  78.6031723  67.6519470  22.4022617
  78.7851791  67.6905899  21.4633198  78.1887741  66.7987518  22.5309906
  39.2684631  61.6638031  51.9271202  39.9957542  61.0754433  52.1298866
  39.0740242  62.0991516  52.7571182  85.7280655  45.1933403  54.2928734
  85.8768311  45.7580757  53.5344734  86.4905777  45.3386650  54.8529549
  76.2968674   1.9133229  61.3644180  76.6769867   1.1538815  60.9228439
  75.3545990   1.8279948  61.2192230  38.8312378  16.6593246  68.5796509
  38.6347008  16.7634125  69.5106583  39.2551041  15.8032637  68.5185928
  13.9307690   8.1716738  21.7669773  14.5638132   7.5181656  21.4696312
  14.2431240   8.4305935  22.6339417  19.4383144  22.5443287  84.4388809
  19.0422153  21.7454357  84.7868881  18.8209953  22.8473301  83.7730408
  42.5506592  43.2864952  19.4568844  42.3827171  42.4843369  18.9623432
  42.0878372  43.1586838  20.2849483  84.9974060  42.4883270  23.0470428
  84.8445663  41.7697182  23.6606140  84.7473602  43.2747192  23.5321178
  53.8907280  10.2208147   6.7413940  53.7652626  10.4550543   7.6609716
  53.2252998   9.5541506   6.5711122  64.5786896  24.9992313  62.4460373
  64.8034515  25.1568470  63.3630295  65.2283325  24.3634491  62.1460724
  65.9388657  11.3559046  87.2599411  66.8318100  11.2197104  87.5766830
  65.8059311  10.6630774  86.6129913  48.3974724  13.4520597   7.9362717
  48.6954460  13.9092808   8.7226505  48.7768250  13.9494810   7.2117748
  11.7364502  64.5052032  38.1062546  12.1588554  65.0034485  38.8059387
  11.9297295  64.9996948  37.3097878  47.2546387   2.6519814  20.4535599
  47.5663605   2.0941372  21.1662102  46.6588974   2.0929008  19.9548092
  -0.0671769  11.1271181  72.1337738   0.0319141  12.0137510  72.4806061
   0.2757266  10.5600319  72.8244705  40.3604584  36.4501076  58.3922501
  40.8932610  37.0601006  57.8820915  40.7525101  35.5928383  58.2260666
  45.5085564  19.7418652   3.5529966  46.0034943  19.5970993   4.3594146
  46.0882950  19.4319191   2.8572464  84.7494965  49.4496613  41.7317657
  84.4986649  49.7621498  40.8624763  84.9643631  48.5260353  41.6014748
  21.8806686   4.5604272  24.5623283  21.3752193   5.3297191  24.2997589
  21.3750801   3.8176184  24.2324085  27.6638126   4.6871867  46.1560249
  28.1198196   4.1989651  46.8415413  28.0988979   5.5396247  46.1392746
  85.0074539  11.3920202  19.8211918  85.0871124  12.0170536  19.1006241
  84.8386993  11.9346924  20.5914249   2.7120161  43.1745110  60.0781479
   2.8022048  44.1070786  59.8821487   3.4302073  42.7589226  59.6009483
   2.2706192  27.3410320  62.6028252   1.4529076  26.9286213  62.8812065
   1.9955337  28.1454220  62.1629181  75.9483337  43.0926132  27.1505070
  76.3754730  43.5684662  27.8627930  75.0927734  43.5124550  27.0612106
   5.4642029  21.3228340   5.4467587   6.1673450  20.6778679   5.3703332
   4.9977965  21.0752163   6.2451215   9.1445322  62.3363686  45.6969337
   8.3693733  62.8575897  45.4879265   9.6069746  62.2499771  44.8633194
   1.9478045  63.9555511  26.8771915   2.1015534  64.7916031  27.3172035
   1.7042942  64.1965179  25.9833965  59.7805710  59.9110565  78.6484299
  58.8510551  59.6868057  78.6925354  59.9768715  60.2883911  79.5059357
  47.8014030  24.5586796  33.5419884  47.5523109  23.7742157  34.0306587
  47.0259171  25.1187267  33.5765877   4.3654175  32.3388290  48.3686371
   4.7060208  33.1945610  48.1079712   4.4586911  31.7954426  47.5861664
  66.8412094  31.5395908  35.3929062  67.4002304  31.7725544  36.1341591
  67.4511414  31.2479591  34.7152901  79.3404541  18.4238262  35.3791122
  78.9643326  19.3023739  35.4331398  80.2510910  18.5685368  35.1221657
  78.4290085   4.5384040  17.5197430  77.6624603   4.0980453  17.8867722
  79.0563812   4.5689449  18.2420349  71.5623322  45.2648506  13.2822456
  71.6661682  45.5658226  14.1849451  70.7248077  44.8014069  13.2791290
  44.3052902  70.3040466  39.5151291  45.0795822  70.8667679  39.5220795
  44.6563988  69.4136963  39.4999542  75.8672180  63.4520378  81.7105637
  75.4619141  63.7515907  82.5243378  76.1842880  64.2524261  81.2921295
  26.2950897  51.0018921  16.1937656  26.4921856  50.0699310  16.2877407
  26.6129856  51.3969841  17.0056019  44.2304916   5.8698468  65.4708786
  43.7815170   6.3610802  66.1588745  45.0375938   6.3600578  65.3143387
  58.3610001   4.3613305   0.7573307  58.9535599   5.1106720   0.6973818
  57.4934425   4.7502899   0.8681644  53.5136452  58.7490997  16.6487427
  54.1152878  58.4098930  15.9860249  54.0805244  59.1779137  17.2898350
  69.0164108  18.8953609   3.0149767  68.5366211  19.1090488   3.8152049
  69.8158340  18.4676991   3.3219960  52.3820381  26.5747967  21.8127995
  51.9621315  27.4199581  21.9728451  53.3098602  26.7312145  21.9886227
  31.0965004  30.0634060  77.9439087  30.7805614  30.0528069  78.8474045
  31.7720356  30.7414856  77.9343414  50.3534622  71.7122650  11.6395617
  49.5647049  72.2232361  11.8212271  50.0441628  70.8086319  11.5763006
   4.5590014  35.3919563  36.8126183   4.5647945  35.8829536  35.9909630
   4.2876272  36.0309753  37.4715881  39.2880630  55.8266754  32.7601166
  39.8407249  55.1551971  33.1600151  38.4892311  55.8246803  33.2874603
  65.5344315   7.4713192   5.3305078  66.0439377   8.2740889   5.4409466
  64.8904800   7.4970722   6.0382481  24.3099251  66.3922272  88.7863235
  25.1354713  66.5707169  88.3359375  23.9237022  65.6644974  88.2990112
  21.6229668  29.8760128  19.5100479  21.6616516  29.2438564  18.7923336
  21.3204327  30.6861172  19.0996399   0.6218234  38.0291862  20.1001759
   0.4772231  38.8675461  20.5388966   1.2950655  37.5968781  20.6256161
  49.4548531  19.9890385  35.2271461  49.7564621  20.8601189  35.4849854
  49.8942947  19.8203964  34.3936691  60.4043236  65.3901749  86.8825531
  59.9213409  64.9821243  86.1639099  61.0333328  64.7231369  87.1575775
  19.5572109  50.8044891  82.1074142  19.6369915  50.9730339  81.1685562
  18.8463631  50.1672211  82.1768036  63.9501572  19.4251652  23.9181557
  64.5472412  19.4799709  23.1720161  63.6051483  20.3128090  24.0145340
  53.3793678   4.5671673  30.5936222  54.1922913   4.7990904  31.0426159
  53.6341629   3.8821180  29.9755459  85.1782761  28.9738655  26.0839024
  85.3617554  29.4643974  25.2826900  84.8943634  28.1125488  25.7776966
  19.7002125  27.5610523  79.2946091  19.9719467  26.6706486  79.5172501
  19.0823765  27.4493179  78.5720978   1.3314810  69.0745087  70.7976913
   1.2106068  68.1529465  71.0264969   2.2657502  69.2339935  70.9316254
  50.8108597  38.3842278  53.8807526  50.8148079  37.6044235  54.4358368
  51.3533974  38.1458817  53.1290359  79.0754852  40.6313400  83.5222855
  78.5671616  41.2491341  82.9967728  79.0593414  39.8179474  83.0179367
  30.7150002  61.0902634  19.6994686  31.2799969  60.4952507  20.1923866
  30.4625378  61.7612572  20.3337135  46.8036423  33.5292778  67.3433609
  47.0889511  34.3782425  67.0055847  47.6048927  33.1198730  67.6698837
   6.1884546  58.6147385   2.4348054   6.7378993  59.1429901   1.8557639
   6.6327424  57.7680931   2.4799302  70.9616928  70.9586334  10.2308598
  71.5388641  70.8085403  10.9795761  71.5407639  71.2906723   9.5448189
  64.3856201  63.2101250   4.8054395  64.8991699  63.2671204   3.9996774
  65.0326614  63.2803574   5.5073209  68.5792236   7.8059931  39.7830009
  67.8995209   7.8194184  40.4568405  69.0209351   6.9656205  39.9050636
  68.8079071  35.6062965   9.4678659  68.1279144  36.2709923   9.3582125
  68.3748779  34.7818642   9.2464294  32.3774681  19.1629620  79.1262283
  33.0773354  18.5708199  78.8509369  32.3386879  19.8251343  78.4361115
  49.1019974   8.1873560  59.3600845  49.7716331   8.2895651  60.0363808
  48.5374985   7.4863772  59.6859703  74.9341888  41.6017342  70.6630554
  75.1428223  42.4638023  71.0229721  75.5505600  41.0077629  71.0914459
  83.3583374  55.4262886  87.7239075  84.0613708  55.1774445  87.1238632
  83.6880188  56.2073364  88.1683273  29.3088608  57.7010918  85.6814194
  28.9207840  58.1825676  84.9507980  28.9406338  56.8204117  85.6104279
  31.3231869  37.3143997   9.7560520  31.8548393  37.0710754  10.5139246
  31.3673744  36.5527306   9.1780062   0.5214334  65.3474121  13.1551113
  -0.3788228  65.5076828  12.8721228   0.9096172  66.2196198  13.2243404
  17.6108570  39.9780197  10.9076347  18.5630817  39.9855232  10.8104506
  17.4605331  40.2452164  11.8144102  82.5057983  27.8280544  48.1201630
  81.9109650  27.9444618  48.8610115  82.2968674  26.9582195  47.7796288
  30.4719391  70.9061356  26.9680080  31.2584648  71.0183105  26.4341297
  30.3621655  69.9577179  27.0364361  16.9303284   7.4697561   8.9594698
  16.0401402   7.7387295   8.7326374  17.4811077   7.8757725   8.2901239
  72.8185120   4.2021942  14.5802536  72.3574677   3.4151452  14.2900496
  73.5994110   3.8721688  15.0246792  70.8969269   3.6605287  38.2841721
  70.5846176   4.3461561  38.8746033  70.9883804   2.8877766  38.8415985
  71.2703629  50.0268135  27.8674145  71.8731232  50.7558670  28.0136814
  71.3371658  49.4976540  28.6622486  80.6795654  53.4213982  69.3291016
  80.8927917  52.9104652  70.1099472  80.8994370  54.3226051  69.5651474
  77.1160812  65.4059067  66.9105911  77.5609818  66.2534103  66.9048157
  76.3028870  65.5589981  66.4294281  46.3617821  61.8755302  69.5717773
  45.5286255  61.5985832  69.9530640  46.3723679  62.8260651  69.6840363
  59.3135490  10.9214582  35.1048546  59.1335945  11.6948156  34.5702858
  58.5192566  10.7996950  35.6249580  63.7748489  51.9852180   4.2740712
  62.8589134  51.9700737   4.5516691  63.7359848  52.1212616   3.3273852
  40.2695198   4.6930842  30.0995159  40.2850456   5.5554404  29.6843872
  40.4851952   4.0835657  29.3936806   3.5093994  37.7830429  78.8740158
   2.9328699  38.4626122  79.2233505   2.9602098  37.2952614  78.2602615
  73.0559006  33.6102943  71.0274582  73.1700363  33.1363869  70.2036743
  72.6083374  34.4189682  70.7785339  51.0283852  64.8168106  22.6500740
  51.3138733  64.9729385  23.5502682  51.6742630  65.2737503  22.1113052
  36.3352051  58.5240211  69.7210922  36.9093857  58.2252197  70.4262619
  36.0447350  57.7194328  69.2915649  40.3900986  32.0153389   3.3606670
  40.0991898  31.5188026   4.1255565  39.9286461  31.6135063   2.6245799
  69.4671021   5.7543597  76.5568542  69.4464645   6.6629024  76.2562637
  69.8887939   5.2755270  75.8433228   5.0837488  22.3821659  48.1726990
   4.4520969  21.9621811  47.5888634   5.2493558  23.2356548  47.7722435
  46.7842026  38.5901146  28.7128830  47.3723297  38.0350838  28.2007523
  45.9587250  38.5753937  28.2285271  32.3211594   6.7182355  69.5458298
  31.4476280   6.3690853  69.3689957  32.8951950   6.2428808  68.9451981
  83.3981934  20.9424095  45.0659142  84.1791382  20.8923168  44.5146980
  82.7942734  20.3054428  44.6840973  16.1553822   6.3378754  15.7382812
  15.8887739   6.0772123  14.8566875  16.2196846   7.2920108  15.6967764
  36.3159485  67.7276001  69.1835480  36.1335373  67.0503311  69.8348999
  37.2604675  67.8704071  69.2445679   8.9482212   6.8942404  72.0835190
   9.2897921   6.5665450  72.9154892   9.4639940   7.6808176  71.9060211
  48.6853943  65.4557648  56.6756172  49.5607948  65.1880493  56.3959160
  48.7578278  66.3994217  56.8187599  29.3327312  61.8284760  12.7754450
  29.5023499  62.4415512  13.4907084  30.1052780  61.8954926  12.2142735
  81.1332245  54.8359184  12.7535954  81.2483749  53.8858147  12.7370253
  81.7010117  55.1336403  13.4643784  43.4888420  30.8664856   5.8975983
  42.5844994  30.9609299   6.1967292  43.4701805  30.1077652   5.3143096
  44.4523048  65.0622482  49.4783478  44.9194374  64.5623016  50.1477280
  44.4411011  64.4865570  48.7136993  14.7354898   3.1786995  29.4989910
  14.6740541   3.6176276  30.3474007  15.0317945   3.8613966  28.8970261
  69.2746124  60.4306183  40.0271416  69.6995010  59.6359787  39.7042618
  69.0999680  60.9457703  39.2395172  33.8466187  51.4538841   3.0719693
  33.5066147  51.8689156   3.8646717  34.3007278  50.6722679   3.3867588
  30.0310726  56.3238106  27.5002956  29.4964123  56.7181091  26.8111668
  30.2483997  57.0527077  28.0814209  14.7790041  22.8667927  78.4285126
  14.0311832  22.8600388  79.0259628  14.4672794  22.4063225  77.6493912
  56.0423622   0.7521721  18.4803104  55.9807014  -0.0967712  18.0424461
  55.2661705   0.7903672  19.0391502  58.9455338  70.3265686  25.4701805
  59.0915794  69.6302795  26.1105595  59.7250404  70.3086853  24.9149494
  49.3453026  42.1842690   9.4038277  50.0776100  41.8750877   9.9370871
  49.2433319  43.1043320   9.6473789  83.9256439  36.5825577  88.1877975
  83.4158554  36.0829849  88.8255844  84.6827240  36.8985329  88.6809769
  80.9647980  25.9613094  89.0832291  81.8144608  25.8538227  89.5107193
  81.1670837  26.3938503  88.2536392  58.4377975  55.3427544   3.9581418
  58.1096344  55.0080490   3.1235671  57.8323250  56.0475006   4.1882854
  77.3653564  54.2463112  62.5442963  76.6295700  53.9254684  62.0228386
  77.4431763  53.6170044  63.2613373  68.0724258  26.5394764   2.8401239
  68.3327484  26.6166649   1.9222434  67.2486420  27.0236015   2.8969698
  61.3414917  28.4968128   7.3124218  61.8960533  27.9300690   7.8486075
  61.4890289  28.1970634   6.4154186  41.2908211  51.3334236  72.3404007
  40.9470863  51.3071022  71.4474335  40.5512352  51.6255684  72.8732224
  35.1351776  10.7388191  32.1567001  35.9623489  10.5192585  32.5854263
  35.3562126  10.8012676  31.2274685  81.6926422  26.1394863  20.7661114
  80.8029938  26.3477669  21.0513687  81.7272797  25.1829166  20.7688599
  70.5868988   0.6921856  46.2895737  70.8567047   1.5651526  46.5748215
  70.3304062   0.8077914  45.3746567  76.2615204  58.0224495  49.2160759
  75.4195557  58.1235580  49.6600304  76.5579453  57.1460037  49.4614487
  55.2116394  12.6603765  63.5142441  55.8380737  12.0033503  63.2107162
  54.7686844  12.9546518  62.7183647  65.2623215   6.6992216  84.8373947
  65.0338287   5.7696977  84.8344879  64.4279099   7.1505785  84.9649124
  46.7357292   7.1790619  86.4443512  46.6921844   6.4225826  87.0292206
  47.6215630   7.5221119  86.5620270  78.6732025  63.0708885  81.8277206
  78.8676910  63.4596558  80.9749222  77.7209778  62.9737091  81.8350906
   1.3979255  39.2211685  31.6588688   0.9914999  39.0422211  30.8109131
   2.1787176  38.6676102  31.6718216  52.5844879   6.1338120  40.3227196
  53.1655350   5.4010324  40.5268021  52.4951134   6.6063094  41.1503601
   3.9263303  57.8410912  63.9049683   4.0643940  57.9629593  64.8442841
   3.2811868  58.5077591  63.6692276  22.1236057  13.6457691  64.3267441
  23.0667896  13.6519814  64.4898300  21.9522381  12.7849417  63.9448547
  10.3160496   9.3465977  73.8625641  10.0558729   9.5394096  72.9618073
  11.0406017   8.7272215  73.7752228   2.8742232  47.0122375  37.2944221
   2.7062573  47.7475395  37.8837891   3.7985551  47.0985336  37.0611954
  34.6747208   3.3148675  75.9700623  33.8709793   3.7340209  76.2775421
  35.3778000   3.8756480  76.2978363  13.6583920   2.7692649  62.9838371
  13.7298813   2.0327232  63.5909843  14.1871538   2.5098586  62.2292824
   6.7273273  14.4508247  46.2477760   6.5890956  15.3822966  46.4194870
   5.8543906  14.0633650  46.3117180  77.9396896  56.1292191  26.7190819
  77.8671646  56.8181953  27.3795986  78.5410309  56.4863014  26.0655499
  57.8548279   2.7470260  19.1242962  58.0305061   2.6138582  20.0557671
  57.2608185   2.0344913  18.8883324   5.2176580  15.6069241   2.9266934
   5.7484961  15.2035809   2.2398481   4.3137808  15.4329405   2.6640778
  74.0636444  41.3747253  18.1476650  74.9330978  41.5593948  18.5028934
  74.1426926  41.5608063  17.2120609  28.1507912   0.5904657  79.2660446
  28.2382393   1.5433985  79.2436066  28.1613846   0.3708450  80.1976471
  36.6239853  53.8805428  63.6963997  35.7821617  53.9836159  64.1401749
  36.6201096  54.5538521  63.0160522  53.4701614   9.9987354  39.1196098
  53.9237213   9.8174591  39.9428062  53.0756149   9.1618710  38.8742065
  78.3539963  20.7362423  52.9003296  79.0964127  20.1389275  52.8093681
  78.5591812  21.4643955  52.3138809  61.6509247  39.2865601  30.8703957
  61.0411301  39.8558502  31.3397484  61.6759224  39.6428070  29.9823093
  85.4974594  24.0658550  83.4452133  84.6484451  24.3141708  83.0795059
  86.0132751  24.8718491  83.4218826  54.2844620   9.3905182  14.0312176
  54.4652901   9.2644148  14.9626846  54.7189102   8.6540165  13.6010399
  47.6390266  44.5257149  63.1384010  48.4857635  44.8048553  62.7900505
  47.8277473  43.7092514  63.6010056  54.3881607  36.0745811   3.7464979
  53.5747833  35.8283272   4.1869569  54.1031990  36.5352325   2.9573040
  27.3419056  59.1481705  42.4093666  28.1018982  58.8665466  42.9186096
  26.6251621  59.1742706  43.0432663   3.1747413  46.7875862  16.0662670
   2.8327630  45.9439659  15.7703114   2.9109571  46.8440857  16.9846668
  66.5702133  11.2286901  66.3790741  65.9732208  11.4160938  67.1034470
  66.2856827  11.8135462  65.6767731  36.7702980  42.5119476  31.3072338
  37.5429077  42.1352959  31.7284660  36.9214935  42.3835182  30.3708172
  11.9364605  31.7417774  81.2068939  11.8846674  31.5708694  80.2665024
  12.6665850  32.3538399  81.2992325  86.8797379   7.0091739  84.5485229
  87.1195450   6.5379205  83.7506180  86.1149368   6.5405579  84.8827591
   2.1430147  24.4847794   7.2212672   1.8806270  25.3267727   7.5933299
   2.0767272  24.6101418   6.2746301  75.1421432   2.5312409  72.4260864
  74.4924622   2.2824254  73.0835342  74.8964844   2.0335224  71.6462402
  63.9835052  26.3471336  34.6920357  63.8920021  27.2969799  34.6168594
  63.5227890  26.0008965  33.9277763  82.8404617  44.6438293  39.4219322
  83.3269119  44.7583313  38.6055450  81.9948044  45.0609779  39.2573738
  16.9506149  11.6745567   2.5380347  17.5270023  11.2530088   1.9006116
  16.1925507  11.9562292   2.0259485  42.0946388   3.2365315  59.0899124
  41.7177620   4.1043682  59.2350197  41.5543365   2.6493223  59.6185799
  79.2856369  20.9369564  68.3303604  79.4571304  20.0908165  68.7437210
  79.5106125  21.5813522  69.0014572  39.5988998  44.0551605  17.9194565
  39.9782715  43.9674110  17.0450382  40.1149368  44.7452278  18.3362808
  60.8444138  38.2319984  58.2463303  60.4479485  38.2738228  57.3760986
  61.2575073  39.0875931  58.3626976  66.4936981  32.5939598  56.3569183
  66.9662399  31.8702679  55.9455681  66.9646530  32.7533379  57.1748619
  39.5301895  57.9441490  88.3279800  38.5902023  58.0865707  88.4392014
  39.8069191  57.5246201  89.1426239   3.9349585  48.9816170  65.7100525
   4.1109691  48.0906601  66.0124512   3.8308101  48.8966942  64.7623291
  20.4510098   7.0677605  56.3505592  20.7383785   7.9730392  56.2317238
  19.5960236   7.0296407  55.9218674  28.3776970  14.4153337  76.2412720
  28.7465839  13.6196852  75.8577347  28.5603294  15.0989084  75.5966034
  84.2007828  66.0110931   6.0060244  83.4338608  66.5835342   5.9866090
  83.8484955  65.1456604   6.2137532  70.5457382  70.4358978  62.8333244
  71.4533920  70.6770477  62.6482735  70.5468903  70.1909103  63.7586441
  55.7621155  60.2691307  52.0154724  55.9131813  61.0922546  52.4800987
  56.0364037  60.4479790  51.1160202   7.8748217  44.5815582  72.6976318
   8.2821922  43.7224808  72.8083954   8.1321735  45.0711899  73.4788208
  41.8839111  60.1432648  47.0360641  42.2715149  60.0972672  46.1620636
  41.3963127  59.3244057  47.1252289  53.2550468  53.8756409  63.8998299
  53.7336807  53.0467491  63.8910866  52.4651184  53.7014923  63.3880539
  85.6489792  57.0082016   3.3749216  84.7219772  57.0309029   3.1374698
  85.9876022  56.2237206   2.9434614  62.9361076  66.8906174  60.6879578
  62.7446709  66.0677719  60.2379532  63.7354431  67.2115784  60.2704887
  36.2516022  14.8916578  81.0275345  36.1267395  15.6258612  81.6288528
  36.2724342  14.1197128  81.5931320  12.7791929  43.5343971  70.9958572
  12.8149347  42.9864464  70.2118225  13.2795210  43.0479546  71.6510468
  78.6608582  50.5757675  20.1321182  79.3849030  51.0458221  19.7185478
  78.5690613  50.9860344  20.9920521  57.6746292  12.4742546  11.6806803
  56.9512024  12.2245293  12.2555895  57.6855087  11.7990437  11.0022974
  11.3170605  47.5669289  12.8052483  11.1133356  48.4936790  12.9312019
  10.6027260  47.1031418  13.2421207  46.1972313  59.4406929  48.2444992
  46.8997955  59.8797798  48.7239151  45.3920212  59.7938271  48.6228676
  58.5911407  50.7516937  21.9273415  57.8357468  50.1779366  22.0554714
  58.2921257  51.4033203  21.2931442   9.1449156  67.4309082  40.7867699
   9.8218679  67.8580780  40.2618980   8.3521204  67.4964600  40.2544060
  24.5872250  49.1017990  61.1388893  24.1854610  49.7838020  60.6006622
  25.3563862  48.8255043  60.6406059  62.5760040  23.8078251  54.0755272
  62.8345604  23.1854057  54.7552147  61.8264999  23.3956509  53.6458931
  42.9760628  40.4943123  84.7591705  42.9566116  39.5382042  84.8005066
  42.1860771  40.7702637  85.2239304  20.1644402  45.1666794  67.6127701
  20.6746788  45.7746620  67.0777512  19.2922325  45.1746559  67.2185364
  85.6516418  35.5756493  75.8797836  85.6387177  35.9723244  75.0087433
  85.1085892  34.7920685  75.7942047  81.2232819  27.4352455  39.1674995
  81.6857529  26.6148472  39.3386650  81.7436981  28.1016655  39.6161537
  85.1002731  51.8558388  18.3549328  84.8300247  52.7272720  18.6444283
  85.5604172  52.0095711  17.5297871  66.5678635  12.0418558  81.6767273
  66.1378479  12.1921825  80.8348694  66.5792313  12.9018698  82.0968170
  49.8102226   6.7101283  75.4743271  50.1814308   6.0642929  76.0754395
  48.9227829   6.8588657  75.8007584   4.4581404  17.4901752  73.8923874
   3.9035506  17.2403965  74.6314926   4.7182112  16.6584949  73.4962845
   2.6115146  66.6045837  27.9008331   2.4756701  67.5460434  27.7939224
   3.0371294  66.5193558  28.7539577   4.0409136   2.8880701  63.0829010
   4.5965066   2.6634641  63.8292923   3.2196925   3.1835854  63.4759636
  10.5316086   7.4735122   8.4005938  11.3881502   7.6589837   8.0156679
   9.9896650   8.2219591   8.1508808  33.2252998   9.6144867  34.2239418
  33.5927391  10.1462688  33.5179482  32.6528778  10.2141504  34.7024460
  75.2529297  13.6789045  62.3466797  75.0809479  14.1445456  63.1651115
  75.5530396  12.8127928  62.6223907  20.2290592  15.1970320   3.4667716
  20.3497276  15.6023035   4.3255072  19.3188171  14.9009056   3.4674568
   1.4598188  29.1023254  49.7983475   2.0360062  29.8434448  49.9853783
   1.9218379  28.6038857  49.1243057   1.0884838  67.2656937  30.9858742
   1.9718401  67.3954086  31.3309650   1.0766531  66.3539963  30.6945057
  69.8751831  20.3421021  44.1961288  69.0595474  20.8065987  44.0084991
  69.8595047  20.2035332  45.1431160  52.0608215  48.0628471  60.3804092
  52.1127663  49.0074310  60.5263443  51.7395859  47.9764709  59.4828682
  34.7502022  46.5841866  88.8474808  35.4107437  46.0086136  89.2330093
  34.8610191  46.4769135  87.9027863  57.7176590   1.3201076  54.5468826
  56.8681641   1.7575295  54.4898682  57.7558136   0.9869509  55.4434242
   5.2452631  65.0822220  35.8021164   4.8305664  64.2893143  35.4621887
   6.1574922  65.0151978  35.5200195  84.5686111  24.4432049  23.7995129
  84.7307663  23.5103340  23.9398251  83.6160202  24.5290585  23.8372974
  37.7360764  53.9957504  31.5391979  38.3763351  54.5907097  31.9294853
  37.1317635  54.5696182  31.0683327  74.0060272  60.8559418  14.5685930
  73.3841095  60.5209846  13.9226418  74.5694122  60.1084213  14.7687187
  54.7062263  42.6309700  18.0842590  54.4056854  43.5389481  18.0457096
  54.8231544  42.3782959  17.1684437  69.8832397  42.8708115  58.6904869
  70.4086609  42.4923630  57.9855499  70.4029541  42.7255363  59.4810677
  72.1917191  66.4732895  40.4055367  73.1234970  66.6750412  40.3199615
  71.8091965  67.2645035  40.7848587  82.7703323  46.4598770  55.9747658
  82.2111816  46.9228020  55.3508453  83.1803665  45.7652702  55.4593773
  66.1162720  20.1577835  74.4789658  65.8203201  20.3198147  75.3747253
  66.8970871  20.7029743  74.3823853  76.2430954   8.0753136  67.4298096
  77.0875320   7.9029741  67.8462982  76.2504883   7.5340486  66.6403732
  29.8339520  60.1846924   8.3427448  29.8035183  60.6587753   9.1737385
  30.7620926  60.1701813   8.1091290  71.0642929  44.9543190  56.8413544
  70.3308792  44.7317238  57.4147644  71.0930328  44.2425499  56.2019844
   2.9690473  33.7302628  86.8276901   2.7769423  34.4582710  86.2366486
   3.7857523  33.9812241  87.2592468  20.3655262  64.9485321  49.7337875
  21.1267357  64.9177322  49.1542664  20.7360172  65.0481873  50.6107368
  51.8710785  15.0824919  89.2031479  51.9805946  15.6096983  88.4117584
  51.1665764  15.5164108  89.6844177  43.9040070  52.0037804  84.1638641
  43.2643166  52.2739449  83.5050430  43.5770645  52.3770905  84.9823837
  78.4925537  10.0762539  12.9483900  77.7940674   9.5587997  13.3491240
  78.6352463  10.7995205  13.5589275  48.8622780  19.2264709  62.6976318
  49.5569458  18.6831493  62.3255157  48.3641968  19.5311108  61.9391174
  10.3604422  32.4642296  71.6393890   9.9299927  31.6209946  71.7804642
  11.2958593  32.2658234  71.6825333  72.8278046  29.6721783  14.6964865
  73.4893494  28.9893246  14.5856085  72.1148148  29.4118729  14.1132851
  32.1725998  53.6882401  40.1857986  32.4581146  52.7781639  40.2662697
  31.5322227  53.6763496  39.4744530  82.1016541   1.1155289  48.1155052
  82.7285690   0.5113102  47.7178421  82.6448898   1.7605731  48.5683289
  26.5200787  66.6803741   8.7914410  27.0280342  65.8922043   8.9837847
  25.6337433  66.4721222   9.0868616  62.7241249   2.3178825  36.7819176
  62.5052872   3.2094250  36.5108185  63.6722031   2.2577693  36.6645927
  56.1237488  18.0854263  24.0905876  55.4181786  18.4335270  23.5454044
  56.3352013  17.2389202  23.6969528  51.4219704  33.9398422  18.4694080
  50.6530571  33.9884720  17.9013939  51.5205345  34.8268127  18.8155346
  56.4202194  71.4123383  25.7031994  55.9969215  70.7457504  26.2442284
  57.3286324  71.1197433  25.6296921  62.0354919  57.5674362  44.4070129
  62.8168602  57.1917267  44.8126411  61.4170532  57.6721001  45.1300697
  36.0340462  25.0857143   7.1701860  36.7070351  24.6103611   6.6829882
  36.2181168  24.8875370   8.0883780  16.5192127  50.4086342   8.0959311
  15.8882895  50.6691742   8.7669659  16.7819347  49.5226212   8.3453074
  17.1534843   3.9296544  85.2365189  17.6315708   3.6623154  86.0214996
  17.3088226   3.2234347  84.6093445   6.1434035  41.5352592   5.5381131
   5.5814891  42.2511711   5.2415476   6.1586137  40.9224281   4.8029666
  47.6622162  41.5803413  54.5280991  47.0510750  42.2600250  54.8122902
  47.7375374  41.7062569  53.5822105  47.4232483  52.8516922  67.8172836
  47.2685165  53.7795258  67.6400299  46.5475044  52.4750061  67.9033890
  49.6121521  46.5391579  21.2562218  50.4803467  46.1602135  21.1188412
  49.0826530  46.1911278  20.5387669  60.3722191  52.8011589  41.7299118
  61.2856598  53.0854797  41.7618752  60.2966995  52.3307762  40.8996887
  25.6821671  70.1758881  25.0492134  26.5600872  69.7977219  25.0989952
  25.5937405  70.6830826  25.8561649  37.2100105  52.9443893  46.7847366
  37.2517815  52.3105736  47.5008087  37.4706535  52.4472923  46.0093727
  62.7386055  24.4875393  57.9986382  62.8626938  24.9532127  57.1716042
  62.8131332  25.1664352  58.6692924  62.7197227  19.7936344  47.7293320
  62.7231750  20.3948936  48.4741173  63.6446648  19.6735592  47.5141602
  26.1301765  23.9940739  64.6233139  25.5011311  24.5960350  65.0210266
  26.6855946  24.5528107  64.0796661  18.0448608  32.3824730  71.9567947
  17.9916801  31.5034046  71.5817719  18.8144665  32.3541985  72.5252533
  67.3341064   8.7148323  42.1037178  66.5421677   8.7455502  42.6404800
  67.3104553   9.5255060  41.5953064  59.2047806  55.3475151  52.7446709
  59.8809242  54.9809875  52.1748276  59.5990295  55.3442307  53.6169014
   9.1980705  69.1302261  47.6986923   9.2703972  68.6172791  48.5036049
   9.5043678  68.5399857  47.0101967  59.7041435  68.2240219  84.5910492
  59.1612015  68.1267548  85.3733444  59.7655334  67.3394089  84.2305984
  56.4436684  66.0032120  18.4014854  56.1786957  66.8785629  18.6839542
  57.3682060  66.0954285  18.1713581  63.4030151  51.7511024  33.1185875
  63.1958656  50.8168182  33.0977440  63.5381546  51.9870033  32.2008095
  12.1248589  70.4357910  15.3962231  12.1753778  71.3906174  15.4407549
  12.4743328  70.1380234  16.2361240  68.3663788  13.3146162   1.1833581
  67.8871384  12.4877605   1.1297631  69.2735443  13.0786695   0.9894294
   0.9075841  43.2991066  66.9650574   0.4866225  44.1585732  66.9464951
   0.7372614  42.9302216  66.0983658   3.7695353  36.9187889  53.0903091
   3.1822166  36.9344864  52.3346329   4.4826584  37.5110512  52.8517494
  63.8817635  19.0546932  86.5516281  64.8296661  18.9580154  86.4601746
  63.7528076  19.2933693  87.4695740  33.4189453  66.7595520  45.7980423
  33.7076302  66.4328690  46.6501999  32.9691124  66.0161896  45.3964233
  35.3538666   0.6375013   8.1706057  35.2845688  -0.0086375   8.8734102
  35.8662872   1.3509800   8.5508757   7.3774838  34.5093613  35.1445885
   6.7140961  35.1350250  35.4356041   7.2894592  34.4928703  34.1915894
  71.9554062   3.4332392  52.5290680  72.8924942   3.3087881  52.6794205
  71.7166595   2.7375851  51.9164505  47.0582733  43.0038834  85.7471466
  47.4845772  43.4142838  86.4995193  46.1595764  42.8472824  86.0370636
  34.2096558  64.8005142  80.8667221  34.6413803  65.6105499  81.1381683
  34.3908806  64.7350922  79.9291153  41.8177872  40.9383354  15.0817690
  41.4595528  40.4452972  15.8198843  42.6788826  41.2283592  15.3828144
  56.1628151  11.7765398  29.9078293  55.7557945  11.1149702  30.4671974
  56.3018837  11.3309488  29.0721607  65.9294281  12.2687960  10.6291122
  65.1943665  12.7363739  10.2325211  66.7012863  12.6065807  10.1748314
  45.6031609  57.6336365   3.5366824  45.9306641  57.7651100   2.6469140
  46.3905220  57.6083679   4.0804229  59.5737114  29.7708302  36.6023331
  59.6800194  30.5585976  36.0690842  59.5197868  30.0955143  37.5011673
  69.6741180  43.5034180  86.7936859  70.2914276  43.2803955  87.4904099
  69.8812332  42.8932877  86.0858231  86.8277664  53.9406853  73.0626450
  86.5459137  53.4773026  72.2739258  86.3671112  54.7789307  73.0254517
  58.1657677  43.6033478  78.8586731  58.3587494  43.8067322  77.9434509
  57.6966667  44.3728371  79.1812515  61.2128029  71.1879578  45.5416298
  60.7005196  70.8863525  44.7914047  61.8262367  70.4739914  45.7153625
  17.5995922  15.9369545   2.6926644  17.3856888  16.8354664   2.4413633
  17.9141598  15.5307951   1.8850048  22.4374752   6.2675934  21.4030094
  22.1630173   6.3828092  20.4932671  21.6403198   6.0027695  21.8619690
  75.9439545  56.3859711  12.0245438  75.6809311  56.6492844  12.9064255
  75.7626801  57.1530685  11.4814682  77.1378479  30.1471729  83.9788818
  77.8881607  30.4592152  84.4847412  77.4756927  30.0419197  83.0894928
   9.4120264  56.7099380  62.6344070   9.0796261  57.5444221  62.3036842
   9.9084578  56.9437790  63.4186935   2.8295162  18.1975803  89.3996429
   3.4436121  18.7790871  88.9513474   2.2374108  17.8971004  88.7101822
  82.9828491  19.4222488   5.8382072  83.2048111  18.5850925   6.2458014
  83.7580338  19.6522331   5.3259406  30.8224297  39.7566986  66.4844589
  31.3123779  39.1452446  67.0342865  30.8732738  39.3817558  65.6052170
  76.2151184  44.9432411  81.5178757  77.0598679  44.5486031  81.3013382
  76.2357483  45.8010864  81.0937195  21.2431755  47.9077568  15.7135963
  21.8273182  47.5952492  16.4044991  20.3699799  47.6376610  15.9978685
   7.4230742  24.2242889  76.9923172   8.2287931  24.1864166  77.5076981
   7.1615191  23.3093166  76.8891449  50.5657082  53.0368004  56.2878227
  51.2455063  53.3580818  55.6954651  49.7610283  53.4509010  55.9759941
  63.0778198  71.4584274  83.4756622  63.7705498  71.0296326  82.9731750
  63.3519630  71.3666534  84.3881683  57.8731918  40.2972488  28.8570023
  57.9281273  40.3980789  29.8072910  58.0777054  41.1662636  28.5117207
  41.8545341  59.8066025   6.5512881  42.0362701  58.8676300   6.5120893
  42.5882645  60.2120628   6.0892611  53.2699203  37.1978607  83.5787735
  53.4832878  36.3370438  83.9389191  53.4050179  37.1031990  82.6358948
  55.5616646  38.2009850  84.5758972  55.6405411  39.1189728  84.3164597
  54.7643700  37.8971329  84.1420441  38.8610153  71.2274094  34.0019760
  39.0362396  71.5720367  34.8776245  38.0138702  70.7890701  34.0821953
  78.2620010  49.9588814  77.0058517  77.3843079  49.6534958  77.2352600
  78.1589890  50.9000816  76.8652878  20.9663448  66.0066376  26.6817570
  21.4851360  66.6612320  27.1492996  20.2510910  65.7948456  27.2815819
  70.6770020  65.8651962  85.6743546  70.2774277  66.7246857  85.8079834
  70.1419144  65.4553680  84.9946899  82.6783600  24.2560825  49.4292793
  82.2860794  24.2737770  50.3022270  82.1891479  23.5799332  48.9605217
  74.0478210   4.8560863  60.1442108  74.9896240   4.7005839  60.0731277
  73.8613434   5.5092630  59.4698067  19.3165073   7.6773229  65.7632370
  18.8694363   7.0539656  65.1907120  20.0540886   7.1850824  66.1236572
  28.4575996  55.4676399  68.8137436  27.8734627  55.1321869  68.1336823
  29.1021881  54.7714729  68.9405899  63.4210320  61.5949783  61.2550468
  62.7294922  61.7908401  61.8872223  63.5314140  60.6455994  61.3072777
  45.3353882  54.5304909  29.8766384  45.0330276  55.4209099  30.0554142
  45.9524269  54.3406525  30.5833607  16.9620914  46.3876038  20.0536537
  17.0229931  45.4486313  19.8779926  16.8056622  46.4452858  20.9962215
  80.8758469  61.7366066  43.5633163  81.0239029  61.3823128  44.4401207
  81.4048538  62.5338326  43.5346565  78.6569290  57.6730728  84.7554169
  79.3123169  57.1490974  84.2948227  78.9771042  58.5724335  84.6856384
  17.6745548  30.6018257  15.7363977  16.8451958  30.6889496  15.2664986
  17.6640320  31.3147469  16.3750401  48.4116936  67.8849335   1.7595450
  48.5429230  68.7921982   2.0350082  49.2625694  67.4679794   1.8951880
  45.0911598  45.5548248  86.4603729  45.4982834  45.4622040  85.5990372
  44.6992683  44.6988258  86.6333542  29.0160599  64.8126678  87.5964737
  29.3078938  64.5838089  88.4789047  29.8247452  64.8998489  87.0918350
  79.8161545  40.9042625   9.2947845  79.8406067  39.9515953   9.3845482
  80.3035278  41.0816193   8.4902706  39.7286415  58.9938431  77.1171188
  39.7437592  58.7543411  76.1904907  39.3859596  59.8875351  77.1279526
  28.4701672   3.2457614  79.1591034  28.4514294   4.1459346  79.4840240
  28.5956211   3.3346982  78.2143402  46.2291069  54.2300644  11.6936064
  46.3859978  54.4223022  10.7691278  45.7104340  53.4256020  11.6862898
  14.1821909  35.2593231   6.4538755  14.7807827  34.5228691   6.3291650
  13.4121447  34.8739433   6.8718982  48.5407486  45.0010109  78.7067642
  47.6106224  45.2000504  78.8139191  48.7361221  44.3829956  79.4111176
  84.7446823  39.1406288  38.2818146  85.6291351  38.8969460  38.0086937
  84.1824188  38.8416405  37.5671883  33.5012665  22.7406311   5.5404510
  33.5666428  23.6168175   5.9202604  32.7017288  22.3746815   5.9186673
   9.7885313   5.2758665  29.0185223  10.6208105   5.4555216  29.4558640
   9.2939520   6.0912762  29.1005535  81.6804810  12.3800621  76.7099762
  82.4386368  11.8098841  76.5821686  82.0380173  13.2669840  76.6678848
  40.0960464   2.0752473  53.9819756  40.4907684   2.6700428  53.3442879
  40.6623650   2.1385393  54.7510757  17.1777611  67.8382797  10.4152145
  16.3458843  68.1051178  10.0240488  17.8262558  67.9944153   9.7286930
  66.7956848  52.5160828  59.4045639  67.5185089  53.0389481  59.7515068
  66.1552277  53.1614914  59.1054192  39.0329056  33.3403816  11.0216398
  39.6783218  34.0190430  11.2193384  38.2208595  33.6603546  11.4146214
  18.0816441  22.5247192  70.3550491  18.9360447  22.6969433  70.7507401
  17.4562263  22.9525890  70.9398651  27.7349606  51.5262299  43.1897316
  26.9904575  51.5510406  42.5886230  27.4972324  50.8635216  43.8382187
  44.4773598  70.8282318  16.3092709  43.9210701  70.2753830  16.8580284
  43.9172935  71.5655518  16.0665512  61.3382416  18.4549999  23.3571663
  60.9273148  19.1913452  23.8101196  62.2681389  18.6801815  23.3285713
  83.8623047  12.0773783   8.1109133  83.0506287  11.5899038   8.2515516
  83.5786133  12.9131737   7.7405066  74.8785172  67.2430191  16.5100498
  74.5719223  67.7637177  17.2524147  74.2462387  66.5276108  16.4418964
  84.8755264  50.5644035  30.7363758  85.3697128  50.5637627  31.5561371
  83.9731598  50.3850288  31.0005550  64.7750931  30.1669197  76.1445923
  65.1741486  29.5343609  76.7419662  65.2079926  30.0099716  75.3054352
  83.0827103  44.2639999  49.3094063  82.8225937  44.6964378  50.1227760
  82.2582626  44.0970726  48.8526306   4.2458477  10.1531544  57.9396935
   4.4258852   9.2292023  58.1132774   4.7808061  10.3616362  57.1738052
  59.0938644   0.4535773   4.7906542  59.5414429   0.2724195   3.9641643
  58.7698784  -0.3995261   5.0795851   6.1976891  50.7369576   5.8311472
   5.6773300  50.7229996   6.6344299   7.0968232  50.8717041   6.1305342
  79.4835968  20.7156391  87.2674866  80.1333389  20.1313858  87.6582794
  79.7383041  20.7754288  86.3467331  14.7166080  28.3524437  88.7032852
  13.9664268  28.3976536  89.2960815  14.7576218  27.4335022  88.4385223
  63.3184700  42.0312271  69.0317001  63.1049652  42.3210907  69.9186172
  63.0911064  41.1014671  69.0223389  74.1215363  32.1724548  63.7716103
  73.6022949  31.3683243  63.7708549  73.8482513  32.6347656  62.9792633
   2.7327931  54.7017593  36.1156731   2.2417254  54.3050804  36.8352089
   2.9709039  55.5707932  36.4386520  45.0663719  52.6162186  24.9888458
  44.8810921  52.5384064  25.9247131  44.3205185  53.1018639  24.6365929
   4.9023685  18.5038261  10.1772203   4.6716709  19.4309578  10.1185675
   5.6181688  18.4748211  10.8120594  74.7607651  48.3466301  85.7754059
  74.7166061  49.2385139  86.1201172  73.9945831  48.2714920  85.2065887
  49.5571632   4.3928790  70.6411514  49.7242241   4.9772086  71.3806686
  49.5117760   4.9742060  69.8820496  56.8714867  64.5076675  80.6947327
  56.4680176  64.8422852  79.8938065  56.5981865  63.5912323  80.7357788
  30.1814632   0.8058262  65.4607391  30.9182167   1.4093541  65.5565491
  30.5638695  -0.0617492  65.5923004  15.1482086   0.3911726  14.9612503
  15.9709091  -0.0904095  15.0477076  14.9504690   0.6888440  15.8492384
  33.3132324  68.3944016  17.5911617  32.5896530  68.0077591  18.0842876
  33.0238419  69.2868423  17.4013443  13.5827103  69.1526184  36.7347755
  13.9705086  69.3742218  37.5813789  12.7198820  69.5667419  36.7508049
  68.0093231  31.6667976  21.8630505  68.6764832  31.8148613  22.5332813
  68.4622955  31.1736946  21.1790218  25.9727936  45.2583542  77.5279007
  26.0581722  44.5871277  76.8508530  25.8745594  44.7656136  78.3426361
  63.1059608   0.4558887   7.5147481  63.1533737  -0.3583355   7.0137262
  64.0081482   0.7747431   7.5395355  51.5454521  54.6013794   9.4043341
  51.3604507  54.2039185  10.2552357  50.7825317  55.1512222   9.2258644
   3.9330747   5.3210025  23.2688580   4.2862191   6.0839038  22.8111439
   2.9936998   5.4935045  23.3324947  71.2826157  25.6512852  73.5319672
  71.3610153  26.3168373  72.8485031  72.0650177  25.7680779  74.0708847
  73.0945740  30.2862854  77.3885117  73.4661713  29.5125771  77.8122177
  73.8556213  30.7910347  77.1016769  42.5570145  21.7272797  10.1281719
  41.8810616  21.6216335  10.7976179  43.3057861  21.2345333  10.4639950
  25.9497089  70.8944702  49.3875809  26.7293358  70.3652344  49.5558624
  25.9296227  71.5265427  50.1061287  70.9221420  39.3284073  69.6883011
  71.6908875  39.7470741  69.3010178  70.8451767  39.7248840  70.5561218
  29.8738327  34.9594650  84.3068237  29.6126614  35.5937653  84.9744186
  30.7059021  35.2934303  83.9716187  20.2136459  45.0415421  62.3041191
  19.4795456  45.4117699  62.7942810  20.8440704  45.7588463  62.2387695
  67.1759186  67.3208923  71.8850174  68.0022049  67.6481705  71.5295258
  66.5975037  67.2553558  71.1251602  70.6067352  15.0270557  24.1831360
  70.9068985  14.1864271  24.5287857  70.3989029  15.5452604  24.9606342
  53.9331245  22.4793644  70.7031174  54.4346085  21.7123299  70.9795303
  54.3507118  23.2135601  71.1534576  64.9067612  14.5117788  67.7618027
  65.1345749  14.0930786  66.9317245  65.1044617  15.4382820  67.6249161
  24.3154221  51.6355782  24.7698040  24.6391220  51.0892410  25.4860210
  23.3783875  51.7266922  24.9427090  37.6646843  27.9991684  84.0353546
  38.3658943  27.4162216  83.7443085  36.9118614  27.7559032  83.4965439
  36.6961441  15.3435593   7.8746281  36.1444244  15.5671206   7.1250553
  37.5781097  15.2712326   7.5097480  79.6448135  10.4119997  46.9648666
  80.0176544  11.1635256  47.4257698  79.7887115   9.6730185  47.5559921
  83.5414505   0.7778128  85.1299591  84.0892868   1.3307991  85.6870117
  84.0822906   0.6033137  84.3597183  48.6798248   2.5332530  66.0063553
  48.7957573   1.8069806  66.6189957  48.1321831   2.1730847  65.3087921
  56.2990952  18.9745750  37.9040184  56.6424675  18.2095318  37.4424629
  56.4250374  19.6998787  37.2922134  61.7579956  64.0168915  59.7388115
  61.5677681  63.8558617  60.6629944  62.6129303  63.6107979  59.5959625
  52.6455727  24.8589058  32.9928093  51.9033737  24.9654980  32.3978233
  52.3505096  25.2482758  33.8159523  16.9321251  50.1145401  60.3773613
  16.1050262  50.4139862  59.9999084  17.2881184  50.8865967  60.8171692
  78.0614777  14.4299736  13.3312464  77.1334000  14.6638336  13.3167849
  78.3980942  14.7333584  12.4881086   3.6983249  69.8038712  72.0090332
   3.6630828  70.7507782  72.1445236   4.6297698  69.6119766  71.9003143
  83.7935715  16.7626514  18.2615395  82.8953934  16.8133526  17.9345284
  83.9621353  17.6282253  18.6338310  66.4435349  70.0401230  59.4584160
  66.4378433  70.5422440  58.6435127  67.3539581  70.0709381  59.7523727
  53.0612946  67.6151352  13.6588097  53.5239525  67.4497452  14.4802856
  52.9765244  68.5677567  13.6192675  70.6586914   7.2451992  11.5582695
  69.8310013   7.3164320  12.0337658  71.0499039   8.1161261  11.6266203
  38.8881073  54.0284042  34.9013634  38.6855164  54.9032440  35.2327919
  39.6400909  53.7437363  35.4207039  50.3781929  50.1743774  63.8074684
  49.6670761  50.7084618  64.1614456  50.4142838  49.4110947  64.3839493
  12.8517065  48.7723541  42.8583183  12.6105556  48.6868057  43.7806854
  12.7910595  47.8823166  42.5113525  52.2283897  37.0151062  51.9404716
  51.7205505  37.0612221  51.1304092  52.8990517  37.6908684  51.8415108
  15.4249287  63.5023842   1.9117024  14.4716730  63.5043259   1.9984920
  15.6587029  62.5756950   1.8585471  44.7389336  32.8459320  68.9971313
  44.2541733  33.4411621  69.5689163  45.3970566  33.3999481  68.5774002
  37.9946976  22.9954720  75.9876099  37.6646919  23.4763317  75.2285919
  37.4593735  22.2026253  76.0201111  30.8905964   3.4163463  45.3639412
  30.2959652   3.8369257  44.7428474  30.8658638   2.4888391  45.1286736
  43.2356300  61.9861755  76.4270935  44.0373116  62.4928703  76.2974777
  42.7333870  62.4918022  77.0660934  66.7076035   9.6616383  75.3693771
  66.0841751   9.6382723  76.0953445  66.1635895   9.7754841  74.5900650
  36.0559502  55.8588371  61.1248398  35.0995941  55.8651657  61.1645508
  36.2801857  56.6447830  60.6266022  71.3383179  55.1725082  80.8648834
  71.7190018  54.9803391  80.0079193  71.7947540  55.9610405  81.1583405
   5.6554441  28.9578438  87.5558167   5.0750027  29.7025986  87.3987808
   6.0425611  28.7713642  86.7004852  51.4808998  55.1728020  46.9672050
  50.9968529  54.6166763  46.3567505  51.6281128  54.6169281  47.7324295
  12.0910769  67.7406158  74.9018250  11.7681255  67.4456100  74.0504150
  12.9407549  67.3104324  74.9978561  70.2556000  10.4252272  70.7704697
  71.2006607  10.2838984  70.7145462  70.0440521  10.9407721  69.9922028
  27.0652599  63.9118385  73.2832489  26.9743385  62.9594078  73.3122253
  26.3522758  64.2033234  72.7149811  18.1987400  69.9358368  39.7597466
  18.8569393  69.9357452  39.0647621  18.6039982  69.4433289  40.4734955
   0.4584134  38.9906120  14.3643379  -0.3349510  38.9819603  13.8288660
   0.4623903  38.1384964  14.8003597  26.8178959  54.0529861  87.5073318
  26.7358818  53.7148476  88.3990555  27.5316029  54.6889000  87.5570145
   1.7799060   1.0574387   4.3575540   0.9421076   0.6022801   4.2729602
   2.3569031   0.6147373   3.7352023  41.4361191  65.1792603  86.3553238
  42.3879890  65.1150589  86.2775116  41.2576103  66.1195755  86.3421707
  38.0846863  22.8808517  66.6259384  37.2943344  23.4137154  66.5385818
  37.8038063  21.9958630  66.3932800  31.8278217   6.8504019  74.8927460
  31.7224007   6.9244070  73.9442520  31.8965321   7.7552147  75.1974182
  41.0375519  65.2213135  21.9291744  40.1922798  64.7747726  21.8806629
  41.0417023  65.6329880  22.7933121  10.7417231  60.2673225   4.5067210
  11.3169851  61.0188637   4.3635798   9.9727478  60.6339989   4.9431372
   2.3693941  27.0139351  68.3249969   2.8980732  27.8112049  68.3580322
   1.9288859  27.0536537  67.4761124  42.9455414  70.4436111  60.8499947
  42.5177345  69.5991287  60.7083397  42.4409485  71.0597839  60.3190079
  41.6149940  27.0477409   8.9224377  40.9395523  26.3793507   9.0376043
  41.7517204  27.0894947   7.9759741  67.5385361   0.1003745  63.5075760
  67.1431503   0.9665889  63.4097290  68.4626694   0.2337175  63.2967911
   9.6755009  52.7829094  16.4333172  10.0125904  53.2979355  17.1663570
  10.3256960  52.0918617  16.3070946  68.5162048  57.0385323  11.6284781
  67.7013931  56.5415726  11.7016430  68.5139542  57.3714218  10.7310305
  55.7889595  67.5169754  31.7399597  55.3509178  67.3746490  32.5790634
  55.0750847  67.5906601  31.1065674  46.2548409  45.9711571  83.7495651
  46.3872147  45.0778847  83.4321136  47.1379089  46.3338585  83.8193817
  27.1085758  18.4475327  61.9638519  26.9652691  17.5258255  61.7490273
  26.8252201  18.5280533  62.8745995  50.9614372  65.8266983  64.4646912
  51.4954872  65.2830734  63.8854752  51.4139709  65.7949295  65.3075714
  28.8689785   9.5651836  64.8356247  28.7043877  10.4857416  65.0398712
  28.3811741   9.4083004  64.0271301  51.6663208   9.6504068  13.8256483
  51.4585342  10.5517645  14.0718431  52.6025047   9.5629072  14.0049009
  29.0570145   8.5187817  55.7957954  28.9754925   7.6958122  55.3138123
  28.2308731   8.9742012  55.6335754  11.1335573  61.7016182  68.9188995
  11.2924061  62.6165047  68.6865540  10.3288403  61.4726562  68.4538803
  29.7232132  50.9025536  38.9423409  29.2094955  51.7096748  38.9720459
  29.2716827  50.3547440  38.3002663  55.2957878  49.7773857  54.3924713
  56.1093559  49.9116859  54.8785820  55.5761452  49.4168625  53.5512466
  84.4995880  71.7173538  52.6157303  84.0352325  72.1006699  53.3598251
  84.3531265  70.7753220  52.7015076  56.0519333  21.8538570  82.3783264
  56.1138535  22.5031338  83.0789185  56.5446548  22.2369022  81.6525574
  20.6029053  29.5925293   2.1443298  21.3555088  30.0832443   1.8141489
  20.5107098  28.8582458   1.5372394  59.3272018  25.0547485  49.1155930
  59.5131683  25.0584126  50.0545464  58.6325035  25.7041531  49.0064850
  71.9007645  66.7613144  74.5851212  71.0786514  66.4539719  74.2031403
  72.4267502  67.0344696  73.8334808   8.6877537  64.0300140  49.2791214
   8.1821642  63.4151497  48.7475662   8.1163445  64.7922897  49.3721733
  78.7491989  40.0631027  28.5025692  78.7288208  40.0936623  29.4590645
  78.8646088  39.1358414  28.2949657  19.0383034   5.4862189  11.8264294
  18.1555977   5.4628682  11.4569502  19.0850163   4.7098637  12.3843918
  82.0207901  19.4727650  64.4573517  82.9449921  19.7205410  64.4309616
  81.8975677  18.9245701  63.6824150  81.6938171  30.4969463  54.2330589
  80.9297104  30.1289482  54.6768608  82.4331512  29.9905910  54.5695343
  70.9461517  28.1516171  48.8038406  70.5958099  27.2969589  48.5527306
  71.8081589  28.1883030  48.3893204   4.0582128  37.3591080  23.4178085
   3.6352303  37.5298462  24.2593346   4.8946624  36.9545708  23.6478825
   3.1026287  58.4235725  25.2188263   3.0528026  57.4839973  25.0428982
   3.1483755  58.8274231  24.3521976   8.0141487  66.2078171  24.5837822
   7.3709803  66.4563904  23.9198704   8.6804419  66.8936768  24.5404091
  62.7173347  33.3649063  66.8965530  62.6696701  33.6343994  65.9793167
  61.8066788  33.3562889  67.1912918  53.8928833  61.9805336  76.6704483
  54.5382233  62.5791550  76.2943878  53.7052116  62.3436203  77.5360031
  62.2786598   9.0413532  87.3367538  61.3885765   8.8991270  87.6588669
  62.5717926   8.1755409  87.0527191  72.7765503  30.9359436  85.2048645
  72.0532990  30.8954449  85.8305664  72.7126160  31.8105431  84.8211746
  85.0094376  42.3821373  49.8668976  85.3563919  42.6334000  49.0109062
  84.5518951  43.1630287  50.1784973  70.6211548  59.3710327   0.7452065
  71.4169617  59.4213867   0.2156896  69.9082184  59.3689308   0.1064995
   0.9650283  25.5342255  56.4241066   0.5313551  24.7708626  56.0427475
   1.2265869  26.0626621  55.6700668  73.4588013  44.1560440   6.0843282
  73.0937195  43.5850906   6.7603168  72.6934662  44.5310097   5.6485519
  70.8510818  63.3921509  10.0392323  71.6995087  63.1982117  10.4377174
  70.2122192  62.9933662  10.6300421  58.4998093  18.7601337  75.3560715
  58.4356041  19.5191631  74.7764359  58.8342133  19.1152992  76.1796417
  10.1444540   5.7776275  74.2733994  10.8641176   6.3957868  74.4006577
  10.5654907   4.9180284  74.2663574  21.0996799  47.0981674   5.1780982
  20.9585857  46.5932503   5.9789624  21.7462749  47.7600899   5.4230633
  84.1088333   9.9320574  44.0809479  84.3645325   9.7318325  44.9813690
  83.2776794  10.3991108  44.1662216   6.0766969  15.1211853  75.7032166
   5.1559019  15.3630400  75.6038513   6.4317431  15.1601238  74.8151550
  17.5163345  51.3480988  68.4885941  17.5648403  52.1372337  69.0281754
  17.2202988  51.6604042  67.6335754  44.1007881   8.8010197  61.4973335
  44.3324432   8.7676105  60.5691910  43.9841614   9.7330313  61.6816864
  51.4031715  44.1375275  21.6220417  52.3359375  44.0875816  21.8310375
  51.3767433  44.4502220  20.7177429  84.1341934  29.3605118  85.2125702
  84.0992813  28.4785614  84.8421936  84.5647964  29.2475548  86.0599518
  16.5216866  45.6450272  17.0049038  17.0765667  46.1444855  17.6039696
  16.7795391  45.9450111  16.1332664  44.4261971  25.1444302  82.9345322
  44.2347984  25.5205250  82.0753784  44.2913246  24.2037697  82.8196487
   5.4272895  34.2648163   9.9011297   4.6898608  33.9729042   9.3652029
   5.3544049  35.2192039   9.9093580   6.4933949  52.5767708  37.7814903
   5.7684011  53.1592979  38.0079308   6.6113744  52.0285072  38.5571976
  53.5571213  61.2767715  30.1625671  53.2864418  61.8187408  29.4214630
  54.4653282  61.5310135  30.3261299  45.6087875   8.4265108  25.1344166
  45.3047295   8.4045258  26.0417747  46.0298271   7.5771046  25.0022602
  53.9346085  58.4410973  20.9930477  54.2837906  58.2999458  21.8730373
  53.2637520  59.1143494  21.1067104  72.7825241  42.0262146  68.6077805
  73.2939987  42.7393723  68.9899216  73.4371643  41.3928947  68.3135529
  54.0220909  14.1927786  56.0010452  53.2190323  13.8961477  56.4292259
  54.4130936  14.8057709  56.6236115  20.4208164  12.7977505  60.4342232
  20.7386017  12.3141918  59.6717148  20.6214390  13.7129173  60.2381287
  64.4171143   4.1526022  83.9693680  63.7531700   3.5643716  83.6096497
  64.6473236   4.7284069  83.2401962  19.9237137  55.6194077  84.3391190
  19.3940372  54.8283157  84.2398758  19.4056530  56.1841278  84.9126511
  61.6816444  31.5889072  85.5922165  61.2166901  30.9529610  85.0485077
  60.9994431  31.9840946  86.1350403  21.1511974  59.1905365   0.3753138
  22.0772839  59.0211258   0.5482135  20.6856842  58.5605927   0.9254948
  35.6247444  49.3641891  37.2158394  36.0600967  49.9030724  37.8763733
  34.9108391  49.9131317  36.8914452  59.8821869  37.5192299  66.9311752
  59.3018608  38.1153793  67.4045258  59.7913475  36.6832047  67.3883820
  74.7116623  24.4117374  34.9554367  74.8008194  23.7368259  34.2825508
  75.5946884  24.7670116  35.0568008  27.6176414  29.6442909  12.5779467
  27.6548157  30.3807068  13.1883097  28.3677845  29.7757149  11.9980793
  40.2985649  50.0880661  14.7925863  40.2358856  51.0129280  15.0311985
  39.5355034  49.6823006  15.2040777  80.1571198  62.1996460  14.3819618
  80.0710373  63.0791779  14.7497168  81.0891876  62.1139908  14.1815834
  50.9576836  18.4129868  37.0777931  50.1505890  18.7335644  36.6752281
  50.7878761  18.4522419  38.0189934  77.6585312  12.1470757   3.4957058
  78.3568802  11.4983606   3.4078953  77.7655182  12.4958630   4.3806543
  50.9584351  51.0887260  58.2235184  50.8549576  51.7823143  57.5720139
  51.8767891  50.8283539  58.1523590  41.8713303  45.6395454  18.4707813
  42.2685013  44.9855156  19.0458755  41.4606972  46.2653465  19.0674229
  75.4752197  41.5821533  12.7250185  76.0431061  42.3498230  12.6585283
  76.0281296  40.8506927  12.4502678   9.5714607  20.6910095  69.4013443
  10.3008909  20.3518238  69.9201126   9.1391726  21.3203087  69.9787064
  42.7565727  44.8023987  48.3232460  42.9682198  43.8766098  48.2034683
  43.5959473  45.2158012  48.5251884  67.2067795  21.6587334  43.7262230
  67.5017242  22.2632103  44.4072876  66.2513275  21.6957664  43.7704964
  51.0165977  42.1347885  42.9012489  51.1433067  43.0645218  42.7121048
  51.8731308  41.8330116  43.2037544  11.4011335  59.2218590  29.8066902
  11.1651392  58.2997894  29.9083099  11.8353014  59.2654839  28.9547367
  34.0529785  50.5930862  48.0241890  34.9268990  50.7553139  47.6689682
  33.8489532  51.3812370  48.5275955  20.9236794  28.0563107   9.0655928
  21.3531075  28.4050465   8.2844353  21.5177383  28.2753887   9.7834587
  63.5719452  60.9490585  45.4535828  62.7763252  60.4338303  45.5868454
  63.2562408  61.8131981  45.1893387  63.3701744  28.0917263  72.5149002
  62.5982399  27.6135521  72.8177109  63.7377090  27.5403957  71.8241119
  38.9773636  15.8685045  80.0434570  39.6526871  16.4185581  80.4404602
  38.3791466  15.6668453  80.7629700  51.3620033  50.5488091  61.4584808
  51.0746994  50.5546417  62.3715248  51.0938835  51.4021072  61.1175652
  28.6062832  69.8170242  68.7193527  28.8358459  70.7031708  68.9991379
  27.8911381  69.5598373  69.3012924  65.0243759  14.3925819  74.7229309
  65.8339615  13.9419155  74.4827194  65.3044968  15.2750683  74.9657898
  44.3982162  32.8019028   4.1575780  43.8734016  32.5319786   4.9111967
  45.0720558  32.1264305   4.0806904  47.8738785  41.1253319  31.4260330
  48.5246010  41.2655602  30.7381878  47.6277466  40.2044449  31.3387527
   2.4489892   6.2746048  73.8106766   2.6774344   5.3529377  73.9314041
   1.8600428   6.4727416  74.5387650  33.8098450   0.7124090  28.3230209
  34.7439957   0.6336608  28.5163879  33.4604454  -0.1670012  28.4672031
  86.0217209  28.1465797  37.3160210  86.8299866  28.6150169  37.1074448
  85.7094040  28.5554523  38.1231842  11.8636789  13.8457222  61.8470726
  11.8655777  12.9045610  62.0215530  10.9934683  14.1378613  62.1184044
  26.9152069  48.1973076  13.5111761  26.8050175  47.2515182  13.4133253
  26.8786659  48.3462143  14.4560165  10.1323948  60.7845345  64.9202271
   9.7525673  60.7613182  65.7985306  10.5799122  61.6294746  64.8750687
  59.5768700   4.8027315  51.5004654  60.2462578   4.1970801  51.1821327
  58.8901939   4.7724719  50.8342896  76.3944931  45.1828690  15.4868507
  76.1289597  44.6799126  16.2567577  75.9556427  46.0273399  15.5893869
  46.7122192  31.3746147   3.5620382  47.6625977  31.4808426   3.6036670
  46.5716515  30.7543793   2.8466489  52.7180252  26.5642548  63.9425621
  52.2579041  27.4000950  63.8658066  52.3468628  26.0217495  63.2467461
  80.3160934  15.3873205  83.6010513  79.8081055  14.6039305  83.3901443
  80.7060547  15.6514492  82.7677460  84.7825012  66.9989090  51.1146049
  85.1534882  66.8603439  50.2431679  84.6322021  66.1166077  51.4539948
  28.4065552   4.3874359   3.2517555  28.9894581   5.1454625   3.2948060
  28.6936264   3.9083931   2.4743621  70.1528702   2.5872602  61.5013733
  70.8593750   2.8963375  60.9343147  70.1759262   3.1763496  62.2554779
  26.4043007  45.6131668  46.8346825  27.0316639  46.0273094  46.2421188
  26.8154736  45.6707573  47.6971512  77.8706055  31.2194195  19.7314816
  77.6161652  32.1313477  19.8724899  78.3883286  30.9930019  20.5040913
  28.7932854  34.8826103  65.7073746  28.8329716  34.2792549  66.4494095
  28.0525417  34.5729065  65.1862106  73.4508362  55.1994133  87.3716965
  74.3289032  54.9424858  87.6531677  73.1926498  54.5231972  86.7453537
  17.3418713  67.3914413  33.1602478  18.1624584  67.0186996  32.8378716
  17.5841560  67.8385010  33.9712143  62.2934875  44.3173943  88.3259735
  61.8897781  44.9585152  88.9109650  63.2264671  44.5305672  88.3443069
   3.7090902  50.1150093  41.8438797   3.6039069  50.6536598  42.6281128
   2.8212500  49.8291512  41.6288033   8.1979151  60.2249565  37.9543648
   8.9466429  59.7882156  37.5482903   8.5439005  61.0663757  38.2519188
  43.1941643   4.0030122  81.6446609  43.2847595   4.8565817  81.2210541
  43.6272392   3.3924124  81.0481339  56.0252647  15.4850731  85.9447708
  56.0206528  15.8027792  86.8477020  55.9619713  16.2775688  85.4116898
  17.3570671  56.2075729  66.2459030  17.4856262  57.0884781  65.8941803
  18.1588554  56.0260811  66.7362366  56.7580185  50.6811600  84.4140701
  57.3474083  51.0891838  83.7797470  55.8814507  50.8437195  84.0655899
  63.3873253   3.9448202  60.0146065  62.5348244   3.8205245  59.5974464
  63.8759003   3.1494377  59.8027267  72.8123093  18.1545982  33.4746628
  71.9854507  17.8549366  33.0968475  73.3620377  18.3571739  32.7177010
  48.8742332   4.3538284  11.4247732  47.9632339   4.5195498  11.1821909
  49.1339607   5.1283808  11.9236155  82.2364578  24.5165520  24.9061489
  81.3311081  24.3753586  25.1829624  82.7546158  24.3689270  25.6973228
  43.2958641  39.4941216   6.3685002  43.4688797  40.0584106   7.1220765
  43.7499123  38.6764793   6.5722880  15.1762123  65.0344238  66.2527542
  15.2697182  65.5819626  67.0323029  15.6588192  64.2348099  66.4624023
  81.8078995  39.3901634  78.5719452  81.9392624  40.2685204  78.2149200
  82.6661911  39.1397400  78.9137878   5.2795172  49.4297714  19.5327358
   4.4825783  49.7962837  19.1496048   4.9915972  49.0421791  20.3592377
  65.8770752  12.9421730  52.9530525  65.5620193  12.0678492  52.7238503
  65.0868912  13.4262590  53.1928482  44.4159050   3.9272780  24.9037647
  43.7250748   4.5683613  25.0710869  45.1914406   4.2947230  25.3277454
  28.3048496  43.1300049  79.1246414  28.6599236  42.6284142  78.3907776
  28.6344414  44.0184174  78.9892960  39.3702202  70.5439148  62.2256317
  40.2821274  70.5082550  62.5144005  38.8883324  70.8551407  62.9918900
  76.6477737   4.5058155  60.2374229  76.7048340   4.1888599  59.3360252
  76.8725281   3.7452700  60.7734146  32.1234055  62.1947975  16.0843067
  31.5832882  62.9702110  16.2367668  32.5737801  62.3750916  15.2591457
  51.3187485  13.2894707  69.2366638  51.9386711  12.6980162  68.8099136
  51.2246208  12.9392738  70.1225128  25.4093113  24.9912605  75.3199234
  26.2112579  25.1735039  75.8097229  24.8359051  25.7324905  75.5149002
  21.9359856   3.1064627  77.0900116  21.4460316   3.6668077  76.4881897
  21.2760620   2.5236044  77.4655228  47.3752365  36.8465233  58.0093193
  46.8167419  37.0459366  57.2579536  48.0933037  37.4764748  57.9478912
  54.4376183  22.8997250  59.0958748  53.8022118  22.9346504  59.8109093
  53.9587975  22.5010605  58.3692207  61.5751076   8.7281275   0.9984745
  61.3621216   9.6601171   1.0460581  62.1811066   8.5835228   1.7251687
   5.5198164  60.2359848  67.0834579   4.6471190  59.9463844  67.3494644
   5.4522600  61.1897278  67.0382996  53.2504082   9.4247618  48.8859062
  54.1470604   9.2906857  48.5788765  53.0417137   8.6267824  49.3716125
  32.1130829  38.1797791   2.0041261  32.3647423  39.0657806   2.2647040
  32.8632507  37.6367493   2.2461982  22.3141117  71.4844437  61.7128143
  22.4593697  71.0162964  60.8906364  21.4730492  71.9252090  61.5920982
  11.5112629  49.0471497  68.0206757  10.9617519  49.2247162  68.7840500
  11.3419361  48.1284065  67.8121643  73.1794128  48.1214752   6.9699526
  73.0232162  47.5840569   7.7464933  73.7357635  47.5788841   6.4111128
  27.9322262  50.4276009  76.5420685  27.4146805  50.6354332  77.3200073
  27.6461563  51.0641975  75.8869781   2.7474291  55.5758247  53.6155510
   1.8017209  55.6561050  53.7397385   2.8591070  54.7419891  53.1589508
  69.8713074  19.5284309  11.4735594  69.2964325  18.7632465  11.4579058
  70.5023575  19.3682976  10.7718754  73.6708984  22.2334290  17.3542805
  74.5849533  22.3874378  17.5930538  73.7000046  21.4737206  16.7727051
  58.7660370  58.8678093  82.6272354  58.4789772  57.9651947  82.4889832
  59.6487541  58.7857857  82.9882202  31.1458035  65.7302856  57.2340126
  30.4950886  66.2670746  56.7816200  30.8456631  64.8305664  57.1049461
  25.5064449  68.8530197  82.7369385  26.3080063  69.3435440  82.9189148
  25.2555084  69.1233673  81.8536606  16.3491879  52.5656319  28.7891865
  15.6555834  53.1643791  28.5123405  15.9339342  51.7032013  28.7924519
  29.4498215  29.9694538  10.2058535  28.8240929  29.8662128   9.4888878
  30.2917290  29.7162094   9.8273153  53.4924812  68.4000626  34.2197495
  52.9639206  69.0845871  33.8095322  52.9106674  67.6411438  34.2618866
  82.8369980  11.9584694  69.3897018  83.6011887  11.5945663  68.9426880
  82.6101761  11.3024750  70.0488358  47.9548874  57.8613434  86.4971466
  48.2002068  57.5839653  87.3798218  48.7007294  57.6115990  85.9516449
  10.7796583  23.6480293   0.3329434  11.2548647  24.2032681   0.9511029
  11.4402933  23.3815136  -0.3064028  49.5933952  48.8171959  38.1103477
  49.3376961  47.8949738  38.1293335  49.4509659  49.0866013  37.2029533
  60.4691010  23.0972233  58.8979797  61.2552757  23.5708122  58.6261864
  59.9919586  23.7199497  59.4464149  46.8234062  43.4617386  83.1085968
  47.2088623  43.0145988  83.8620682  46.1735039  42.8453712  82.7710190
  54.8935432  44.6231461  34.1003876  54.5037804  44.9092255  34.9265060
  54.1853638  44.7024193  33.4612999  77.2733612  62.8943825  48.2266159
  77.7673340  62.4072990  47.5670929  77.8686371  63.5897446  48.5065308
   1.6355588   4.0454741  76.2655563   1.5755390   3.4842026  77.0386047
   0.7256986   4.2124062  76.0195465  64.6028442  22.6543999   8.3428574
  64.2303543  22.9833889   9.1609344  65.3762207  22.1596642   8.6137075
  85.9087753  63.9269104  79.2077408  85.1929474  64.1226196  79.8123322
  86.5855179  63.5320816  79.7576065  32.2176323  64.0883789  44.7823296
  31.3410931  64.4274597  44.9638138  32.1743240  63.1657791  45.0336533
  72.7190933  62.8303604  21.4777546  73.3063736  62.7254906  20.7291985
  71.9725494  63.3181686  21.1299801   5.9141102  69.3386841  53.0575676
   6.5677509  68.6394272  53.0528450   6.4234347  70.1433029  52.9605331
  20.4312935  47.9526367  69.2902832  20.2954845  48.0589943  68.3487549
  21.1887989  47.3715057  69.3588715  37.0485458  20.9812050  64.9416885
  36.3534889  20.9919796  64.2836609  36.9917488  20.1107712  65.3358383
  36.9618416  15.0130701  71.8585205  37.8116760  15.3324509  71.5552063
  37.1754379  14.3169193  72.4797974  34.5294876  18.1626530  77.9174042
  35.4186172  17.8195858  78.0067596  34.1971703  17.7606049  77.1148148
  47.9782639  52.2718811  71.6110840  47.6754837  52.8026161  72.3478851
  47.7791443  51.3712349  71.8668594  81.3006439  48.9350815   1.4849769
  81.1532593  49.8755302   1.3846778  81.0356216  48.7457619   2.3850617
  79.7495346  57.2743111  25.1224384  80.4863892  56.9113846  24.6309566
  79.9650879  58.2009506  25.2278233   1.3224024  22.8767567  41.2303810
   1.9834754  22.6944942  41.8982086   0.9496275  23.7204132  41.4863396
  40.8484421  30.1673393  66.4071655  40.1928444  30.8440342  66.2383194
  41.6810951  30.5764103  66.1714096  15.2707787  39.7415352  44.4346581
  15.5882759  39.4137611  43.5932388  14.6036415  40.3878899  44.2036057
  19.2857609  59.0426598  14.4987307  18.7750740  58.8771744  13.7062368
  19.9066677  58.3153229  14.5397854  23.0445213   8.8021336  68.8040543
  23.4164276   8.0461626  69.2583923  23.7522449   9.1149035  68.2405548
  77.1374969  12.7912483  19.8424816  77.5646439  13.0506668  20.6588669
  76.2721252  13.1981144  19.8851414   7.7126341  39.3749161  79.7756958
   7.1754313  38.7238083  80.2270279   8.5967045  39.0082893  79.7910995
  21.2019730   6.3681006  53.4020309  20.9938164   6.9630585  54.1223984
  20.7514915   6.7420473  52.6447563  61.9670219  51.7962532  76.0015717
  61.2629623  51.3524208  76.4743729  61.5204773  52.2837448  75.3093338
   2.6535256  42.4108086  68.8942871   2.5786932  43.1175232  69.5355225
   1.9496648  42.5800781  68.2680588  23.2292747  69.5404510   0.6190942
  22.3468304  69.1950378   0.7540430  23.7690296  68.7650909   0.4651175
  19.3364048  22.0204010  60.0155640  18.7415409  21.5531425  59.4290161
  18.7805309  22.3112049  60.7385254  48.3766747  51.3301811  65.3798141
  47.5244751  50.9324379  65.2015228  48.3321152  51.5895119  66.3001404
  24.2192459  67.9959259  26.2285881  24.6835709  68.7894516  25.9622135
  23.7557030  68.2464981  27.0276966   7.0117850   8.7335234  77.6925049
   7.6910977   8.9493160  77.0536041   6.5975738   9.5725317  77.8943100
  44.3789139  42.8139229  86.7597198  44.5420914  41.8830299  86.6079178
  43.7104683  42.8313408  87.4446335  58.4995728  23.5546665  19.9224834
  58.9842606  22.7408390  20.0603142  58.0101280  23.4077969  19.1130981
  14.7858191  54.8426323  28.1355190  14.7331209  55.0465240  29.0692673
  13.8816223  54.8993378  27.8265781  60.3039742  25.8359661  31.4006271
  59.4441223  26.2545433  31.4416237  60.1220856  24.9033127  31.5159798
  59.4048042  54.6546783  79.4357224  59.6543541  54.0748367  80.1552582
  58.8154793  54.1272812  78.8964844  85.5890274  13.0042219  53.5407562
  85.6755600  12.0540257  53.4641266  85.9770203  13.3458033  52.7351418
  65.7549133  17.0538082  48.2610245  65.6736832  17.7331524  48.9304466
  66.1378098  17.5040512  47.5080948   4.0585413   1.7104774  45.5300713
   4.0975113   1.8823978  46.4708977   4.9487062   1.8756522  45.2193375
  66.1485748  34.6551437  47.6472549  66.5820999  34.5267715  48.4909401
  65.2225189  34.7571602  47.8668976  40.5169640   6.3408966  27.8529186
  39.8249817   6.6374617  27.2617798  41.3282394   6.4976273  27.3697052
  42.2585793  11.1577187  87.3214111  42.4543991  10.7791700  88.1784897
  43.1102676  11.4295311  86.9793854  71.8586502  54.3719673  89.2809525
  71.5203781  53.5524330  88.9201660  72.2622528  54.8139648  88.5339813
   3.2734430  57.0960617  37.1374092   3.9613111  56.8613968  37.7603073
   2.6542184  57.6164818  37.6492271  32.0969963  59.8453789  64.7117386
  32.9354172  60.2961082  64.8123398  31.5055714  60.5139923  64.3661880
  62.4431763  33.9580040  81.6471176  61.5835571  34.0937729  82.0456772
  62.2581596  33.4926910  80.8313446   2.4581687  39.3394623  75.0259552
   1.7582090  39.8343353  74.6000595   3.2625842  39.6694565  74.6256409
   1.0038815  10.1048841  74.4274521   0.9721857   9.6758652  75.2825394
   1.5075947   9.5051823  73.8771286  10.7417650  51.0155525  10.6195946
  10.3504410  50.3122940  10.1014004  11.5708561  50.6515236  10.9299517
   4.6215115  25.9440594  54.8812485   4.8844552  25.3231125  54.2018967
   4.8427954  25.5071831  55.7036858  67.0278625  17.9646149  86.4452972
  67.3256607  18.7733765  86.8617783  67.3427505  18.0294819  85.5437012
  75.5726547  31.5046139   5.7669296  74.8878555  31.4005585   5.1062760
  75.9965668  30.6474609   5.8095517  64.9223480  29.1543446  68.6310120
  64.7433853  29.6506214  69.4297104  65.0257950  29.8215885  67.9525452
   3.7851651  35.2725029  64.3386307   2.9401941  35.6486816  64.5850983
   3.6018946  34.7725334  63.5432243  69.7398605  59.7265396  50.0878830
  70.5089951  59.9495888  49.5635567  69.5300064  58.8275528  49.8348732
  47.7867050  52.1073341  18.0819225  46.9937515  52.6083527  17.8910236
  47.6426964  51.7567291  18.9608803  15.8339510  12.1248980  20.5354347
  16.4192181  12.8202057  20.2350311  15.7736187  11.5248184  19.7921333
  62.7153130  30.2432461  28.4791641  63.0606956  29.6045418  27.8554668
  62.1399078  29.7338181  29.0497971  76.2846451   3.5211172  36.5972290
  75.8270721   4.2485852  36.1757469  77.0888672   3.4171548  36.0886459
  52.8314819  51.8623734  27.3287125  52.3058434  51.1277809  27.0119915
  52.6627655  52.5655708  26.7015934  12.7956524  31.3835659  75.3947678
  13.0184546  30.6135616  74.8716202  12.1020622  31.8179283  74.8982925
  59.8387337  22.5608559  75.8372498  60.5104065  21.8978863  75.6773682
  60.0841942  23.2920456  75.2703781  69.7273712  50.4045830  33.0200691
  69.0683212  50.4029198  33.7142487  70.5513535  50.2219734  33.4716606
  63.1000175  56.5560684  74.2708282  62.7213058  57.3957596  74.5310745
  63.4071922  56.6990471  73.3755951  61.9541168  28.1950588  86.1944122
  62.6394691  28.8628502  86.2184372  61.4272881  28.4200134  85.4275513
  13.9097672  54.7626991   5.4892330  14.5382080  55.3871117   5.8517270
  14.2694607  54.5305328   4.6331067  81.6753235  10.3331118  62.8968811
  82.3558502  10.4082041  62.2279510  80.8816147  10.6530447  62.4680481
  18.6987896   5.9729648  52.0215645  19.1634140   5.8573351  51.1927185
  18.5961208   6.9206724  52.1083984  64.6954117  45.1101151  11.7676229
  64.0572205  45.3773804  11.1061697  64.8809586  45.9105644  12.2586298
  82.3125076  21.6069431  12.0576181  82.4185867  21.3045216  11.1556644
  82.3224716  20.8059254  12.5815496  27.3898869  27.2228069  72.9058838
  26.4596348  27.1382980  72.6967773  27.6916924  26.3220959  73.0236435
   8.7856760  49.2210808  29.5218220   9.3314266  48.4841499  29.2473812
   7.9808393  48.8158836  29.8447533  17.1812077  49.1180229  36.9902611
  17.4551239  48.8600235  36.1101265  16.6575489  49.9079857  36.8562050
  31.3158627  67.0712204  85.5937424  32.1028709  67.5589142  85.8366470
  31.5393143  66.1560516  85.7633514  12.3951464  70.6980438   1.0781376
  11.8785057  70.0270920   1.5243956  13.1399012  70.8527374   1.6592050
  51.1206741   1.1008153  34.4702606  51.9294586   1.4974678  34.7939377
  50.6901207   1.8010000  33.9797554  77.5560684  24.9647846   2.7125304
  77.2494049  24.6840515   3.5747252  78.5057678  25.0369701   2.8079157
   3.2762923   9.5839701  61.1653824   3.7034709  10.3500004  60.7820435
   3.5958853   9.5577888  62.0672722  12.5825996  36.9710197  88.5301514
  11.9264803  37.4472809  88.0213089  12.0766029  36.3417816  89.0442047
  42.7512512  46.3070335  56.6551361  41.9677620  45.7581177  56.6224823
  42.8147697  46.6861801  55.7785263   1.0019655  69.0212708  86.5527115
   0.7066424  68.4896240  85.8135452   1.7676270  69.4896317  86.2201004
  19.6419563  54.3388596  11.2074270  19.0151501  54.7917023  11.7715902
  19.8571358  53.5369797  11.6837816   1.9217255  15.6886292  84.1527710
   2.2883503  16.5045357  83.8120117   0.9820731  15.7596922  83.9847336
  69.8418198   7.2595921  22.3381557  70.1771622   7.2518225  23.2346592
  69.0914917   7.8531761  22.3682346  81.0689163  68.4159927  59.3862267
  80.7382584  69.1524429  58.8718948  82.0182648  68.4485703  59.2682991
  50.8214073  23.3395863  29.9906101  50.5451660  24.0212955  30.6031437
  50.2585030  22.5925541  30.1938686  46.3398819  18.2138691  57.9046745
  46.1237335  18.6594048  58.7238274  47.0529709  18.7318325  57.5312424
  42.5394592  26.6402206  15.6090736  43.1768036  26.0223713  15.2509069
  42.2023010  27.1068134  14.8443193  49.5616875   0.4698743   8.6726780
  49.8267021   0.2678266   9.5699940  48.6074562   0.5333031   8.7132893
  41.0136032   8.0995798  78.4718323  40.9417725   7.2140832  78.1155090
  40.1162529   8.3373957  78.7051468  67.9192734  21.3307762  19.4516926
  68.6679230  20.8740540  19.8353081  67.4432755  21.6838493  20.2033577
  62.0840797   0.4294545  27.0722198  62.6665154   0.9876795  26.5570641
  62.0672874   0.8358905  27.9386845  78.4392548  37.1879692  23.3162899
  78.7333679  37.1493073  24.2263641  79.1241074  37.6805305  22.8639717
  58.1604042  38.3410339  64.8853607  58.0589714  37.7734375  64.1213074
  58.7964935  37.8871269  65.4381638  29.9086895  40.5965004  62.4341545
  30.2693348  41.4190292  62.7652321  29.5301037  40.8254280  61.5853348
  34.2966080   0.8468797  84.7177505  33.7614555   0.0851523  84.4950027
  35.1359482   0.6840332  84.2873840  43.2970009  61.0901985  44.3121071
  42.4215508  60.7939568  44.5612221  43.4220238  60.7497368  43.4262848
  79.3081970  32.4404030  83.3405075  79.2085571  32.2727394  84.2776260
  80.2353134  32.2789116  83.1655579  58.4801750  51.9808655   6.7526126
  57.9913101  52.8028336   6.7927666  57.8830795  51.3677750   6.3238621
  56.1905441  66.7182617  82.9005966  55.3979645  66.6411133  82.3694611
  56.9007645  66.4712830  82.3082886  40.9116249  59.8338585  60.5203743
  41.5704765  60.5155830  60.6522560  40.8276482  59.7626686  59.5695267
  46.2230453  61.3241768  28.1515083  45.6931496  61.7066841  27.4521294
  46.7862396  62.0405922  28.4444237  84.4921570  14.9884605  10.2235193
  84.1934738  14.1646423   9.8383675  83.7640457  15.2723303  10.7762365
  69.1868515  54.5401154  15.6429586  69.7045364  54.5674286  14.8382883
  69.6532974  53.9232674  16.2070141  26.8973179  62.6703606  15.8159332
  26.1569977  62.6813202  15.2092714  27.0856361  61.7411003  15.9472418
   1.5610220  48.4921150  40.7408981   0.8490866  48.8441582  40.2066269
   1.2422906  47.6376762  41.0317192  62.6883354  57.2515793  48.6788902
  62.6535530  56.4151306  48.2147980  62.8239899  57.0114555  49.5954971
  72.8012695  27.4476166  84.7271957  72.2684402  26.7478752  84.3494568
  73.6203537  27.4184704  84.2327423  13.4704733  37.2398109  64.9194031
  13.4799366  37.9078636  64.2339478  14.3876925  36.9842072  65.0174103
  60.7670021   6.1873431  87.7491302  60.3718910   6.5719490  88.5315628
  61.1219215   5.3497839  88.0470505  56.7561302  70.5606461  70.6760101
  57.3015327  71.2765045  70.3499527  55.9022522  70.9631348  70.8345184
  79.8466949  63.6547546  89.5398254  80.6723480  63.8615799  89.1019363
  79.1993484  63.6380692  88.8349075  61.3082123  59.1126747  29.7346153
  61.0277061  58.2317696  29.9827156  61.0768509  59.6583023  30.4862785
  74.4599915  43.5523262   9.6052980  75.1398239  43.0549011   9.1507330
  73.6375504  43.2004738   9.2646627   3.7458913  63.3360062  38.1878967
   4.2901230  64.0504761  37.8568726   3.9855902  62.5825653  37.6483574
  54.6010475   9.1188049   1.8496259  54.4204025   8.8969574   0.9361805
  55.2517166   9.8192167   1.8018241  82.7819824  36.0858231  41.4727058
  83.6414413  36.2597427  41.0888901  82.2702255  36.8714638  41.2800713
   7.8038764   1.9306017  11.1585321   7.5001626   2.6759315  11.6766768
   7.0432625   1.6763209  10.6360006  71.0655289  34.4681625  81.5925369
  71.4008560  34.5847816  82.4814682  70.8710403  33.5329704  81.5306854
  73.1613998  48.2745781  17.1810856  72.8717194  48.6630287  18.0065651
  73.2980881  49.0223846  16.5994205  64.3376389   1.8810418  64.8091049
  65.0409851   2.4540117  65.1144638  63.6990700   1.8847570  65.5221558
  59.5300560  51.0066833  43.5492935  60.1344948  50.3213806  43.2642593
  59.6826286  51.7291336  42.9401779  57.1142387  14.0339012  40.6312866
  56.7935371  14.2318153  41.5111809  57.8142319  14.6696749  40.4828568
  59.3641624  28.4716015  72.5113220  58.8425674  29.2512856  72.3209000
  59.7660217  28.2417793  71.6735153  72.8908920  21.2338772  83.6679993
  72.7102737  20.5652676  83.0072632  73.4036102  20.7783852  84.3357391
  70.9615250  21.2037716   4.8551931  70.9011154  21.8039894   4.1120100
  70.1947250  20.6374207   4.7686000  66.9157791   5.0633860   5.4168329
  66.6580505   5.9635553   5.2180872  66.1754074   4.7047577   5.9061794
  23.8675308  65.0336761  69.4923248  23.3191872  65.0669479  68.7084579
  24.3547516  64.2139587  69.4091797  23.5877991  67.1651840  50.6943436
  24.4828205  66.8443222  50.5838280  23.0558052  66.5823441  50.1525726
  57.6351738  11.0816422  37.4379311  56.8015556  10.6390686  37.2784271
  57.3883705  11.9575090  37.7348785  44.1735115  46.4871941   2.7889681
  44.9840508  46.5349579   2.2820415  44.2526817  45.6763229   3.2914124
   2.5297203  69.8827286  36.7130394   3.3325610  69.8686066  37.2340775
   1.8506221  70.1622162  37.3269958  45.5447044  30.3782768  84.2303696
  45.5561104  31.0444145  83.5430832  46.1221123  29.6879234  83.9044113
  65.8670044  37.1940727  52.7854195  65.1764679  36.6454659  53.1574783
  66.6623383  36.6682281  52.8699913  47.6488571  14.1761618  16.7293758
  47.9576302  15.0689173  16.5748444  46.7468605  14.1758757  16.4090157
  58.0870361   1.7312931  74.7282791  57.3298683   1.7274623  75.3138657
  58.5861397   0.9533140  74.9770279  30.1087437   4.8675532  89.0561066
  30.6291046   5.6364846  88.8233032  30.2743778   4.2433867  88.3495560
  83.5505753  13.4732828  14.2519741  84.3644409  13.8094540  13.8766832
  83.7008438  13.4827938  15.1972580  27.4017010  69.3223114  10.2804785
  27.8028927  69.4931259   9.4283638  27.2016716  68.3863297  10.2677221
  67.0390778  25.3882141  48.5180855  67.7536545  25.5810432  49.1250763
  67.1713943  25.9968586  47.7912598  74.5114822  35.6563263  32.4763451
  73.5804749  35.4812737  32.6135216  74.6674347  36.4876747  32.9244194
  72.1498260  14.3831663   8.2515612  71.8432312  14.2247562   7.3587365
  72.8335342  15.0462093   8.1559153  42.0520325  33.8243484   2.2707107
  41.4765434  33.2323036   2.7549882  42.8756485  33.8097801   2.7582304
  75.9014282  23.4321594  85.5904617  75.5944061  24.2926311  85.8760529
  76.4013748  23.0970745  86.3347778   1.1559621  63.7489319  80.9311981
   1.3125846  63.8498230  81.8700867   2.0294631  63.7614670  80.5399551
  70.1137848  44.1974831  36.1178780  69.2936707  43.7181053  36.0002441
  70.7678833  43.5173225  36.2783928  68.8320618  63.2625694  24.7563038
  68.8635101  62.3061829  24.7802029  69.3139954  63.5376205  25.5362530
   0.2650522  46.2476463  60.7471886  -0.0742383  45.3575058  60.6535378
   1.1798010  46.1854553  60.4722328  48.6074448  62.2608414  46.7717018
  49.2467384  61.6976242  46.3354416  47.7624245  61.8496590  46.5897675
  27.2104416  66.1719437  61.3048553  26.5735664  66.4142609  60.6326180
  27.7007427  66.9769592  61.4715614  64.0354843  62.2012329  71.3391724
  63.2146263  61.8520164  70.9920883  63.8093681  63.0765038  71.6538239
  10.9318657   1.4245721  20.6872540  11.1569948   1.5144944  19.7612610
  10.5157223   2.2561095  20.9144135  55.7607460  51.3784485  37.7430840
  56.5951843  51.3626366  37.2743607  55.9878769  51.1493378  38.6442795
   6.8320289  11.0808535  79.1076660   7.4779882  11.3501511  78.4546356
   7.2776070  11.1959896  79.9469757  42.6351395  22.7292786   5.6797924
  42.9135780  22.1678867   4.9562306  42.0373344  22.1831703   6.1903067
  45.8428535  68.2125168  17.9724426  45.9327812  68.3644104  18.9132252
  45.5617981  67.3001556  17.9029179  71.9076080  11.0266695   8.1400137
  71.6507950  10.8512106   7.2347555  72.0202484  10.1595278   8.5293846
  31.2434216  50.8302422   1.6747458  30.5677681  51.3652573   2.0912571
  32.0622864  51.1264381   2.0721855  63.7561913  40.3615494  54.9718246
  64.6922379  40.5571785  55.0138702  63.7058067  39.4103699  55.0664482
  14.3008528   8.1253452  56.0165520  14.0846338   7.1938252  56.0583992
  14.1616459   8.4438353  56.9084129  76.3241425  66.3326187  37.7396889
  76.3611069  67.1182175  37.1940689  75.4171677  66.2943192  38.0432701
  55.8691292  70.4471283  59.2897377  55.6362534  69.6292191  59.7290840
  56.3536873  70.1715012  58.5116234  80.6199951   4.7064633  34.6197929
  81.1811752   5.0176115  33.9095154  81.2271652   4.3335247  35.2589226
  76.6394882  55.8864403  46.5743065  77.4690094  55.5588760  46.9218941
  76.2130432  55.1135750  46.2040901  49.6872139   0.8105232  53.3879089
  49.2754631   1.6619830  53.2405624  49.2774124   0.4815460  54.1879501
   4.9995937   6.7928824  15.5771694   5.7038760   6.2923846  15.9891415
   5.0683742   6.5813994  14.6461620  40.7867966  52.9565468   4.1877160
  40.7933464  53.6699791   4.8258390  39.9346237  53.0276985   3.7576377
  53.2093468   5.0020108  73.8544693  52.5050507   4.3984370  74.0908966
  53.2018585   5.0156918  72.8973923  76.7843246  18.0085869  75.7580032
  76.8107071  18.8114033  76.2785950  75.8959808  17.9827728  75.4024506
  65.0370636  17.3403645  62.7031631  65.2989960  17.9459324  62.0096855
  64.1143265  17.1578007  62.5258064  50.3061485  50.7500610  23.3375492
  50.9508972  50.2667618  23.8542233  49.8862114  50.0832787  22.7941437
  11.5368395  42.9293861  62.6633759  11.2382641  42.3962440  61.9265976
  10.7839794  43.4784813  62.8823013  33.4722061  56.1822472   5.4073744
  33.2289162  55.5781059   4.7059064  32.9210815  56.9514160   5.2628965
   0.5321864  41.3151093  74.3974152   0.1187636  41.3313942  73.5342560
  -0.0141990  41.8879395  74.9355240  28.1460934  21.7643108   0.9165253
  29.0059452  22.1843548   0.9377176  28.1075592  21.2564983   1.7270027
   1.8985325  -0.1891119  19.2831726   2.8038287   0.0629416  19.4652157
   1.6359055   0.3717317  18.5533009  37.2495575  59.4278793  31.7539062
  36.5167389  58.8127785  31.7245522  36.8414574  60.2904129  31.6782379
  52.0545731  22.2986679  74.2203751  51.8636703  22.3687210  73.2850266
  51.4554367  22.9199085  74.6342926  45.1030998  43.0016594   2.5081744
  44.3191795  43.5387192   2.6233845  45.1890755  42.5233650   3.3328407
  32.8216019  68.7953262   1.3544511  33.5859604  68.2718811   1.1136488
  32.3190689  68.8725815   0.5434483  31.5944901  64.4538727  81.0554962
  31.6632156  63.7861786  81.7379150  32.5015602  64.6582336  80.8281403
  36.8038559  58.2043991  88.6350098  36.0158272  58.7088242  88.8369827
  36.6872902  57.9322701  87.7247391   0.5681074   0.1829932  59.0881577
   0.9200543   1.0619410  58.9473877   1.2475483  -0.4032422  58.7551117
  13.3864975  52.3157539  16.1270180  13.6485395  53.1554642  15.7495832
  14.0856247  52.1023331  16.7450008  48.6326447  58.0336113  71.8418655
  49.1671753  58.7517357  72.1807022  49.2524872  57.3169022  71.7063980
  53.4726028  61.6697884  85.0508575  54.2166367  61.1665077  85.3815384
  52.7739487  61.5092163  85.6851578  20.7797775   8.7072611   1.1553928
  21.1410446   8.6682644   0.2698434  21.3706284   9.2923174   1.6295619
  51.6258507  59.5325470  36.6501198  51.0738335  59.6617966  35.8788872
  52.5057907  59.7695770  36.3572845  86.4451294  10.3674994  56.6263733
  87.1081467   9.7695341  56.9714394  86.4716644  10.2336082  55.6789551
  84.8757401  66.0326996  30.5199833  84.3848724  65.2118912  30.4805450
  85.6324921  65.8867264  29.9523106  31.7886238  46.7524376  53.6061172
  31.6795292  47.7019348  53.6588974  32.6895485  46.6311607  53.3063545
  63.0207062  45.4293289  16.5438557  62.6265640  45.6802559  17.3792706
  63.1267662  44.4799652  16.6046181  75.5905533   1.1971980  52.3053551
  76.4090118   1.6677078  52.1473274  75.0419769   1.4106841  51.5505562
  28.0798492  58.7598381  56.9367485  27.4491348  58.0777817  56.7060318
  28.8641434  58.5409241  56.4335670   5.1569095  39.5105705  52.1640930
   5.2787852  40.1556740  51.4675179   4.3494363  39.7802505  52.6016922
  57.9060173  34.6693840  60.6770058  57.0359955  34.2826042  60.5785332
  58.1585197  34.9203606  59.7884750  44.5400581   3.2546372  17.7898102
  45.0735626   2.5083258  18.0629845  44.4389915   3.7800922  18.5834827
  23.9783955   6.8057094  17.4045429  23.8711452   6.8207679  16.4534893
  23.1073418   6.5944314  17.7404861  67.2965546  52.6344299  25.6724186
  67.5732040  53.4712143  26.0459003  66.6136398  52.8670158  25.0433197
  48.0423393  57.7855530   5.6967187  47.8733101  58.7063179   5.8963542
  48.6620674  57.8084183   4.9675779  19.1810303  22.2303963  67.7086334
  20.0926018  21.9833107  67.8642578  18.7745724  22.2042923  68.5748596
  25.5798912   1.2242676  51.1101494  25.8894329   1.7971187  50.4085388
  25.9773884   1.5817397  51.9041519  46.2537041  29.4105282   5.8325133
  45.3745537  29.7858295   5.7827735  46.2353554  28.6754551   5.2196817
   8.1671896  46.9375992  37.4840012   7.9745607  46.6673279  36.5861816
   8.0499935  46.1424561  38.0038567   9.5153265  11.7035189  69.2579651
   8.9836607  12.1653099  68.6096497   9.9940281  12.3965673  69.7126694
  81.6651230  64.9786072  31.4237823  81.4494629  64.4340286  32.1808510
  82.2057190  65.6828766  31.7815495  75.6766586  12.9374123  53.2245598
  75.3610229  13.0680819  52.3303947  75.0954971  13.4731855  53.7644005
  50.3943901  47.9077034  18.5341530  50.2375069  48.4429665  19.3120441
  50.1674232  48.4790802  17.8004990  80.0917358  15.0918503  60.8307114
  79.5392685  14.4039993  60.4593964  80.2759628  15.6747828  60.0941772
  44.7028313   8.4886436  70.7332306  44.0991592   9.2274904  70.8101349
  44.8136902   8.3670759  69.7902756  54.0981941  54.2617531  28.9378109
  53.6629066  53.6081009  28.3905525  54.9487495  54.3960686  28.5197792
  67.4350510  66.8438339  13.8965464  67.7860260  65.9533463  13.9052849
  68.1049728  67.3696136  14.3335686   5.9945836  46.0931320  46.8630867
   6.1342058  45.1979561  47.1719513   6.5620618  46.6289558  47.4172478
  81.9280014  57.2714424  29.4427223  82.1824036  56.3585701  29.3079109
  82.4430466  57.7608490  28.8012867  39.7476311  55.3147469  18.5797195
  39.3245468  56.1157417  18.8889732  39.5118980  55.2616043  17.6535244
  17.3337002  19.5466251  81.3548050  17.4982834  20.3403568  80.8457565
  16.5857143  19.1351948  80.9218216  58.8818207   5.3311625  31.5233936
  59.7738876   5.2668204  31.8644314  58.9267540   6.0238457  30.8643017
   2.1502013  44.3606071  37.8325081   2.2220931  45.3131294  37.7711296
   2.9709930  44.0342064  37.4637375  86.4146347  40.9894104   7.7737093
  85.9569016  41.2249603   6.9667230  85.9024734  40.2672157   8.1375113
  67.5404282  25.9258728  79.2196274  67.3596725  26.3371658  80.0648499
  66.6773911  25.6938992  78.8767090   8.1424704  45.7130699   8.2800827
   7.5161648  46.4310036   8.1876688   8.0273647  45.4092178   9.1804485
  48.0689774  38.4469795  31.2763405  48.5780106  37.6363983  31.2682228
  47.3816719  38.3047180  30.6254902  14.6037283   2.0116723  58.1738853
  15.3373985   1.8082380  57.5937347  13.9133139   2.3210034  57.5874748
  13.1859131  57.4257164  34.7035255  12.4961653  56.8631554  34.3513832
  13.2331524  58.1591759  34.0903053  66.2130890  64.3545151  84.7778931
  65.8177414  63.5018463  84.9592590  67.0660858  64.1467667  84.3964920
  72.2117615  43.0127373   8.3206682  71.7165833  42.7587547   7.5418735
  71.5663528  43.4346428   8.8878279  55.8030930  34.3255539  63.6657372
  55.5840874  34.5320206  64.5743866  56.7299271  34.0876961  63.6908607
  26.9776001  17.2335300  83.7893906  26.2694721  16.7130585  83.4100571
  26.6969261  18.1411476  83.6724167  80.5158081  66.3163376  41.9219475
  81.2578049  66.8394547  41.6185951  80.2444839  65.8164749  41.1520462
  53.9305573  64.2306213  10.3363438  54.5482063  64.1966324  11.0668163
  53.6804886  63.3180885  10.1914797   1.5949247  26.4788265  45.5163612
   1.6427116  25.9982300  44.6899376   1.1412196  25.8839779  46.1134682
  13.2400904   0.2794108  38.4001312  14.0018740   0.0098341  38.9132080
  12.6709061   0.7210112  39.0304070  63.1819382  55.9840508  14.4353533
  63.8141937  56.3571014  15.0496159  62.3445969  56.0284882  14.8970041
  60.1888199  32.6045685  31.0947704  60.9894447  32.6044121  31.6194000
  60.4963951  32.6149597  30.1883926  85.4344940  24.1594944  88.9381256
  85.6250610  24.4850807  88.0584030  85.7438431  23.2536907  88.9305038
  65.4613571  38.3323822  13.7654343  65.1746979  37.5121498  13.3638382
  64.6654968  38.7035561  14.1463003  65.5432968  43.6093864  24.4204769
  66.4586029  43.7375069  24.1714058  65.2504501  44.4736862  24.7093716
  61.7788162  20.2347889  52.3158264  61.5486488  20.2600670  53.2445984
  61.1990013  20.8778687  51.9077911  48.4761505   3.1161251  52.4348221
  47.5315704   3.2669642  52.4701881  48.6631851   2.9854331  51.5052147
  14.6397648  57.2869339  60.2701454  13.9624548  56.6585617  60.0198822
  14.4705639  58.0527267  59.7213593  40.2798462  22.4044590  70.8635025
  39.3698540  22.2025280  71.0811539  40.2933121  23.3545647  70.7479553
  47.3300819  50.2383728  29.5920734  47.3358917  50.6334572  30.4639149
  48.2522621  50.0682144  29.4000759  55.1629562  46.2537804  82.1321793
  54.5621719  46.9985237  82.1576614  55.9987373  46.6098518  82.4337082
  85.3339691  56.3361778  60.8302650  84.4408493  56.0833893  61.0640945
  85.4276047  57.2262611  61.1696968   2.7247677  33.7496986  62.4832382
   2.2019131  32.9596100  62.6196671   2.0829504  34.4591370  62.4515762
   5.4662948  52.6041336  43.1826172   4.6062031  52.6017113  43.6026993
   5.8340273  51.7438316  43.3848190   4.2665963  27.8666859  27.1036186
   4.1422491  28.0054798  28.0425034   4.9108047  28.5265923  26.8472004
  23.2381382  10.8040810  75.4091263  23.8305225  10.1918793  74.9726334
  23.7622280  11.5948610  75.5365219  69.3368378  47.9798889  74.9811020
  69.3358536  48.9369545  74.9651260  69.4070129  47.7559052  75.9090729
  77.0512695  22.1847286  42.0715179  76.4041443  22.1668205  41.3664398
  77.8342514  22.5599213  41.6685181  63.0871239  13.6221199  69.5020599
  63.4347229  14.0930471  68.7446671  63.8118935  13.6055536  70.1270905
  56.1542244  12.5262747   9.2234392  56.9203568  12.1842098   8.7627192
  56.4375343  13.3758240   9.5614214  70.7897720  33.6162033  75.1867752
  70.0047073  33.0686188  75.1937408  71.0919952  33.5900497  74.2789154
   2.6109726   6.8513126   7.3825521   2.0497062   7.6130934   7.5271282
   2.0038073   6.1447310   7.1627231  74.8549728  32.2790794  37.4268723
  75.1131516  31.7701054  36.6584167  75.5280228  32.0856857  38.0794296
  73.8642273  61.9849129  33.7978325  73.8027954  61.0311012  33.8497849
  74.4135666  62.1481285  33.0311356  18.1768551  47.9964752  15.2739258
  18.5207233  48.5892792  15.9421854  17.3002949  48.3313293  15.0848646
  50.1289520  25.2633934  32.0585594  49.3212166  25.0017529  32.5005302
  49.9891090  26.1818123  31.8279476  33.1814880   8.2496758  85.8621979
  32.3581047   7.7727079  85.7584229  33.6093788   8.1773062  85.0090256
  12.2116985  66.5640564   3.9306195  12.3385134  66.1076202   4.7623720
  13.0901823  66.6274109   3.5558071  56.3673210  40.9258499  23.1382027
  56.3093338  40.0136337  23.4223347  56.0916710  40.9092293  22.2217026
  81.7181015  54.1044960  35.6415215  81.8882675  54.4799042  34.7776108
  81.8760147  54.8252983  36.2512245  83.0967026  33.4827766  49.3992271
  83.7748108  33.7970390  48.8011971  82.8001328  32.6585999  49.0132027
  47.0518074  51.9137802  56.0639305  46.3568192  51.5847473  55.4938774
  46.9216270  52.8619919  56.0775108  18.9754696  24.5738792  75.5141754
  18.5672359  25.4110641  75.7348557  19.2460651  24.2098026  76.3570633
  42.8788567  46.5087280  32.3226395  43.8294258  46.5763626  32.2327766
  42.5332031  47.1441193  31.6957169  16.3549709  40.8117676  74.7230453
  17.1974983  40.9982147  75.1373138  15.7048817  41.0565376  75.3816071
  22.8531742   5.0804958  14.9761934  23.5690670   4.5595298  14.6124277
  22.4107418   4.4881101  15.5841103  59.7567101   1.8023324  13.7820616
  60.6493721   1.4827532  13.9134150  59.2718086   1.0376643  13.4716005
  81.0361633  43.8549423  81.1819992  81.5822525  44.6397934  81.1369629
  81.6295929  43.1672592  81.4839401  84.9821930  39.6416702   9.9138517
  85.4833374  39.3145485  10.6608973  84.1153183  39.2489662  10.0165300
  45.5130806  14.8463116  79.1419449  45.7186050  15.0697556  80.0497208
  46.3376389  14.5178385  78.7835617  29.1183968  49.0197716   2.7876248
  29.8960476  48.4699593   2.6917286  29.4491234  49.9157257   2.7234337
  36.5292625  58.3611984  22.1409512  36.9288177  59.0778122  22.6339512
  35.6794281  58.2265854  22.5603428  42.9312210   1.8141142  33.1457787
  43.2914085   1.9204355  32.2653275  42.1462288   2.3618276  33.1511688
  31.9053440  42.1176643  81.3475494  32.3153610  42.1706696  80.4842377
  32.3531685  42.7855453  81.8667984  26.8165741   7.1435261  64.0546112
  26.7301807   7.9154224  63.4952011  26.8497944   6.4074378  63.4436302
  78.8469086  22.9921532  51.4277954  78.3404922  23.3616962  52.1511307
  79.6214218  23.5513630  51.3673973  60.6758575  10.2128658   6.3504128
  61.1134033  10.1726570   7.2008061  60.4220772   9.3080044   6.1686101
  45.4349251  69.2296371  77.9875488  44.4899406  69.2559814  77.8374023
  45.5312843  69.3600235  78.9309158   6.2471819  33.4551964  76.4503174
   7.1393962  33.8015518  76.4353867   5.8041348  33.9638481  77.1294479
  80.0216751   4.2498112  48.2615700  79.9970474   5.0357704  47.7157707
  80.7293320   4.4132624  48.8850555  75.0576324  11.6699543  45.8736763
  75.4133530  11.1998291  45.1195679  74.1451797  11.8411598  45.6405487
  64.0075989  32.2284546  39.9144058  63.3652763  32.0814514  39.2201157
  63.9667778  31.4362526  40.4501152  58.3159599  54.2975616  32.7388954
  58.4090271  54.2952919  33.6915588  57.5237198  53.7861557  32.5744209
  33.6655197  62.1758957  39.9139938  34.4644241  62.6662369  40.1077766
  33.7572250  61.3627014  40.4105148  55.2622643  63.0244141  73.3413696
  55.7871552  62.2257233  73.2883530  55.5481873  63.4455566  74.1519928
   5.1106453  63.6235542  54.0392036   4.9993682  63.7171059  53.0931053
   5.0996351  62.6782684  54.1893501  74.6720734  19.7251282  49.9380264
  75.0388336  19.8660507  49.0651817  74.6697540  18.7740593  50.0461578
  55.4462204  13.7670546  83.0137405  56.1516609  13.1615953  83.2417908
  55.6539764  14.5686293  83.4938889   8.6241503  63.7321053  71.7900620
   7.8618803  64.1916885  72.1421356   8.8153172  64.1811447  70.9666214
  14.9462662  21.9900990   3.6317396  15.5726786  21.3894672   4.0355716
  14.1309395  21.4907188   3.5859933  85.2362747   8.5518484  13.1190739
  85.6752701   7.9027653  12.5693436  84.3898697   8.1562729  13.3272705
  80.3172073  18.2966385  24.4718666  79.4477768  18.3608513  24.0766430
  80.4045563  19.0968533  24.9898033  63.9261742  10.0614042  80.2688065
  63.7100029  10.9208460  80.6305542  64.0802994   9.5104141  81.0362015
   4.5082231   5.6120586  82.2001266   4.3909178   6.2107620  81.4625473
   4.7603641   4.7814746  81.7966614  79.5363312  21.4120808  47.1062241
  78.7687607  21.7536411  47.5649300  79.2266235  20.6100845  46.6853714
  80.0206985  48.2049446   7.7454352  80.2930984  47.7108040   6.9722252
  79.1500931  47.8651619   7.9523749   1.6285316  29.5578270   5.7870927
   2.2691393  28.9190903   6.0999331   1.2277679  29.1411648   5.0241947
  27.0881119  45.9755058  64.9044342  26.6484241  46.7396317  64.5315781
  26.6334782  45.2261505  64.5197144   7.2696266  42.7170639  19.5008888
   7.9639468  43.1758003  19.0279064   7.5711865  42.6973190  20.4091320
  12.5999565  67.4914703  67.1638107  13.1611147  67.1761246  67.8722534
  13.1945086  67.6137466  66.4236832   4.2136841  25.7157898  70.3628922
   3.7933898  26.4775162  69.9636917   3.6118276  24.9919262  70.1896210
  52.8207016  39.5564728  50.2627907  52.2210426  39.2565422  49.5796471
  52.3663864  40.2915726  50.6744423  51.0150642   1.7642485   6.7961512
  50.5916100   1.1332283   7.3781595  51.2693443   2.4865966   7.3704219
   7.8438525  46.4111633  87.2538528   7.5912724  45.6945801  86.6716690
   8.3853054  45.9952126  87.9247131  65.0046692  18.1492214   5.0800867
  65.6489716  17.4911575   5.3409572  64.7277374  17.8793564   4.2044635
  80.8418884  28.2156410  42.2487831  81.4574280  28.9220886  42.4444237
  80.6896820  27.7900620  43.0925560  82.1255112  25.1409740  75.7160492
  82.9180145  24.6472645  75.5052795  81.6194000  25.1397762  74.9035873
  79.1487503  57.2419167  46.9742508  78.7421341  57.7473564  46.2703896
  79.6409149  56.5560112  46.5230980  20.0627098  14.3846703  69.6242752
  19.8428268  14.4215727  70.5551453  19.7926388  13.5086126  69.3489227
  64.2183533   6.0220714  53.2403717  63.8843575   5.2192831  53.6406326
  65.1559296   5.8631344  53.1311798   1.0677364  30.3661652  64.8444824
   0.1636181  30.0556602  64.8933640   1.1113092  30.8475780  64.0183029
  68.0226059  68.6947556  54.5537300  68.4221725  68.0205917  54.0041122
  68.2820053  69.5209961  54.1459694  75.2639084  67.3983002  34.6755791
  74.9933319  67.3224640  33.7605553  74.8589325  66.6465836  35.1081810
  67.7305298  52.1671295  55.7924309  68.6818542  52.2076263  55.8902435
  67.5948410  51.7598000  54.9369164  10.8397369  18.5893707  77.4255524
   9.9729719  18.2580719  77.1906204  10.7020950  19.5213490  77.5949707
  48.9931984  46.1916008  33.5184364  49.7567711  45.9157677  34.0254936
  48.3223915  45.5397873  33.7218742  33.5050049  54.6851921  68.0358887
  33.5465279  53.9061890  68.5905609  32.6489563  54.6313438  67.6110153
  77.2845612  15.8507605  37.8168068  76.6921387  16.5994301  37.7477798
  77.1172714  15.4925280  38.6885376  44.9819260  39.2438393  73.0498962
  45.5668144  39.1529198  72.2976532  44.2178497  39.7056808  72.7047653
  71.0496597  51.0714340   8.5287809  71.0136642  51.8049889   7.9149151
  70.5521698  50.3753395   8.0996027   9.0587349   6.5744319  15.9805241
   9.8388386   6.6242328  16.5329628   8.7680893   7.4823356  15.8941059
   8.7861767   1.3273059   7.7128506   9.2791529   1.0771513   6.9314232
   7.9748874   0.8225175   7.6560178  57.4816360  59.7467995  54.1909561
  58.2120934  59.2752724  53.7905502  56.8018646  59.7521935  53.5170784
  54.7566910   0.8096253   4.8133583  55.2624474   1.6167868   4.9078822
  53.9108353   1.0085757   5.2148318  50.5003395  26.3321228  15.3560982
  51.1301384  25.6453686  15.1371145  50.8241386  26.7008381  16.1779480
   1.6657227   2.5200694   1.4471093   2.0823660   3.2926700   1.8288530
   1.8102021   1.8270710   2.0914001  46.2116203  67.3587646  56.9020576
  45.4658051  67.8480988  56.5548592  46.6410675  66.9953156  56.1276436
   2.2987540  52.4790955   9.0522699   2.5972116  53.3472900   8.7813644
   1.5574614  52.6510429   9.6329174  61.8472519   9.4281120  83.2443314
  62.3849716   9.9101086  83.8726349  61.9861679   8.5075369  83.4667664
  64.7981186   1.4090923  87.9509964  64.4603500   0.6314347  87.5067139
  64.5184326   1.3057303  88.8605728   8.0784693  53.5018730  34.2401352
   7.2278485  53.8550568  33.9794884   8.2942057  52.8677177  33.5563698
  41.8205719  44.8142624  87.1882095  40.9519272  45.2007790  87.0773697
  41.7845039  44.3852196  88.0431061  15.2444849  19.0905476  79.2046967
  14.5879469  19.7801304  79.3030014  14.7369604  18.3025818  79.0103760
  49.1633949   2.2957947  79.4885101  48.9335938   1.9046322  80.3313675
  50.0230827   1.9296080  79.2809525  64.7770538   4.7548175  27.1040936
  63.9256859   4.4595017  26.7812901  65.0514069   5.4247313  26.4778538
  52.0895996   9.9332533  54.6569519  51.4464684   9.5928440  55.2788315
  52.8040695  10.2580080  55.2049522  41.1208496  68.7947998  37.4060364
  40.8372688  68.4375610  36.5644913  40.3504219  69.2510681  37.7443962
  79.9389877  10.0901051  66.0311127  79.8208847   9.1480579  66.1528931
  79.9406509  10.2105064  65.0815201  15.7193394  63.4925385   6.9360228
  15.9178057  63.5521965   7.8705196  16.1568356  62.6910286   6.6489468
  39.3648872  41.4699860  82.9615936  39.4241867  42.2077789  83.5685272
  39.1329193  41.8680916  82.1225815  87.0238419  10.4113188  12.5106039
  86.6889572  10.4022760  11.6139412  86.5303726   9.7235842  12.9575224
  81.1820679  14.2562914  51.3111839  81.4937973  14.3841543  52.2071190
  81.7356796  13.5576677  50.9623718   5.5419221  64.4430237  15.6283493
   5.1364484  63.5887184  15.4800940   6.4808602  64.2818985  15.5352631
  74.4891586  36.8078995  73.1340027  73.7596741  36.6039886  72.5487595
  74.1171112  36.7395668  74.0132828  13.3333054  53.5941925  45.5571747
  12.9678049  53.5382881  44.6742744  13.9987812  52.9067268  45.5848808
   7.9099002  49.9450493  21.3216476   7.9057178  50.2749519  22.2201900
   8.6139164  49.2966652  21.3078346  83.3037567  55.5202713  14.4666262
  83.3593140  54.8676682  15.1646614  84.1662445  55.9353180  14.4575739
  56.1318207  13.3099346   5.2398405  56.6502686  12.6604834   5.7148695
  55.3055763  13.3552799   5.7209816   6.9715686   0.5561000   2.7197642
   7.3856530   1.2822437   2.2534153   7.4121475  -0.2253195   2.3858392
  33.3159256  47.8710785  80.0731735  33.9048538  47.1214676  80.1596603
  33.8654289  48.6308365  80.2656403  75.8232574  44.7067528  29.6284065
  75.7434006  45.6102524  29.3225555  75.0580444  44.5748444  30.1881218
  26.3442974  58.2683754  54.3088150  27.1628666  57.9852867  53.9013367
  25.7403946  58.3872108  53.5757294  12.9902983  52.8479156  40.0590134
  12.3617554  53.2944298  39.4917488  13.8429728  53.0373306  39.6674767
  44.5046730  33.9853325  85.5478973  45.2011757  33.4274864  85.8941879
  43.9943390  33.4071465  84.9808884  12.6959286  34.3332787  68.4960175
  11.9266596  34.7148438  68.0730896  12.5456944  33.3886604  68.4591293
  78.6069870  61.6584129  41.7225075  79.3020248  61.8050880  42.3641014
  77.9992371  62.3855286  41.8573265  53.1879578  19.9183807  16.8583889
  52.7265358  20.6643600  17.2415848  52.5281143  19.2264748  16.8125191
  63.0170670  17.1106682  19.3935127  63.4989815  16.3148861  19.6187325
  63.2547302  17.2849445  18.4828129  86.5108643  66.5044708  27.8150578
  86.4319687  67.4528275  27.9181652  87.4423599  66.3261414  27.9444771
  47.2380562  67.1200562   9.5302820  46.4207573  67.2686310  10.0058651
  47.0464706  66.3842010   8.9488649  73.1305008  54.6062660  73.8294144
  73.5954819  55.3079414  73.3737030  73.7966385  53.9354095  73.9792480
  75.1926956  46.9471550  66.7689667  75.4401169  47.8596039  66.6191406
  74.4616394  46.9952812  67.3849792   9.1808500  63.4401817  54.2566147
   8.2697926  63.2027855  54.0838470   9.4449263  63.9498863  53.4906502
  63.5546913  64.3127670  66.3972702  63.5552406  63.6002808  67.0364838
  62.8776245  64.0680695  65.7664490  64.7160110  52.7323494  56.1291084
  65.5790558  52.3277092  56.2165718  64.8865356  53.5692177  55.6969032
  22.9080868  32.6342506  88.4039612  23.5857773  33.1657066  87.9862061
  22.1060162  32.8525696  87.9293518  35.0276489   4.0639467  35.9985466
  34.5000839   3.6640177  36.6898956  34.6799927   4.9518852  35.9152908
   1.3855792  20.9279652  13.5603991   0.5809203  20.7005558  13.0945234
   2.0490150  20.9953842  12.8737116  16.5244370  50.6766739  55.6096344
  16.2224102  51.5085030  55.2448463  17.4189854  50.5823364  55.2823486
  48.7740974  36.0497742   4.9533687  48.2409096  36.7391129   4.5574431
  48.6338120  35.2867012   4.3927703  35.5986443  34.6953125   0.6687084
  36.3734627  34.1413040   0.7633837  35.8427429  35.5217400   1.0854362
  84.5126343  19.1634960  29.6059494  85.2419739  19.5809860  30.0642033
  84.3410339  19.7353535  28.8577747  56.0195312  35.5328178  55.7594109
  55.2010384  36.0172577  55.6516113  56.7015381  36.1563072  55.5096970
  14.3980522  38.1305656  16.2877254  15.2412729  38.0972328  15.8359509
  13.7485046  38.0671158  15.5875149  78.5822449  10.2999096  44.4450912
  78.9371185  10.6551752  45.2600021  79.0168762   9.4531317  44.3436432
  40.4524498   4.0941162  67.4813919  40.1482239   3.8943260  68.3666916
  39.7549706   4.6299090  67.1036606  23.6356239  20.9052811  82.2809525
  23.6317081  21.3450356  83.1311493  22.7576561  21.0545254  81.9300613
  54.3913651  42.0510445  12.6382599  54.3911247  41.1219368  12.8684635
  54.6610107  42.0702171  11.7200251  69.6936417  42.4111633  18.4091759
  69.8882751  42.1671143  17.5043068  70.5437851  42.3983498  18.8488617
  57.0931587  12.4969501  80.9554596  57.5333099  13.1526270  80.4145508
  57.4955826  12.5895557  81.8190079   1.7476015  44.0084114  25.8571758
   2.3471291  43.4095917  26.3023872   0.8799683  43.7594032  26.1756706
  60.4503365  42.2199783  49.1595840  61.2635269  42.1274033  49.6559486
  59.9192848  42.8226776  49.6801300  19.7847977  51.3750954  23.2778149
  19.0260754  50.8032532  23.3942795  19.7484264  51.6368980  22.3578320
  69.0570068  10.0582638  46.7749710  68.3282471  10.3478489  46.2260704
  68.7573853   9.2322512  47.1546555  69.8269424  42.7499924  52.0445213
  69.0268478  42.7770157  52.5692558  69.9024658  41.8361664  51.7698288
  34.4696121  45.0877266  56.0772438  33.5289497  44.9144783  56.0402260
  34.6975899  44.9760323  57.0001640  18.0359974  60.5212479  61.3851891
  18.1593628  59.5823860  61.5250015  17.8788338  60.6047287  60.4446754
  38.8814240  67.8496094  71.9018555  39.7577095  67.9123306  72.2818909
  38.9520226  67.1512527  71.2510529  36.6309280  66.3407440  54.6896095
  36.0073280  67.0155182  54.4212036  36.4209366  65.5873871  54.1377182
  34.5316467  32.5886650   6.0728312  34.7638245  33.1227570   5.3131804
  35.1669159  32.8379326   6.7440467  38.3197441  33.2302666  16.2105675
  37.9170036  32.4242020  16.5335064  38.0315590  33.2938652  15.2999973
   8.2424698  52.7837791  28.7295933   7.7958007  52.2644463  29.3981838
   8.2359247  53.6762466  29.0755501  69.1554871   6.6211877  79.1121826
  69.8305664   7.2666535  78.9027328  69.0405502   6.1235232  78.3026428
  56.5300598  24.2724419  63.9978409  55.6139145  23.9966183  63.9690971
  56.4934082  25.2017841  64.2241364   7.4937596   4.3654895  12.3825569
   7.9054918   5.0052662  11.8017015   7.9593740   4.4617496  13.2133217
  57.4888878  38.6745224  56.1239586  56.9408951  39.1000481  55.4645157
  58.3430634  38.5818787  55.7020187  17.2994652  66.3386154  76.9189301
  18.0566311  66.2822800  77.5018158  17.6674061  66.2532501  76.0394058
  77.5976715  62.4167633  44.5413284  78.0336075  61.8842926  45.2066574
  78.1953583  63.1492233  44.3913269  65.0718231  19.3170300  72.2932816
  65.4980087  19.5633202  73.1142197  64.2522049  19.8114548  72.2911911
  78.2222366   0.9215150  86.0708008  78.3178864   1.5249150  86.8076782
  78.8985596   0.2594695  86.2140121  85.8068848  58.4422493  39.2714272
  86.0800705  59.1470833  39.8586349  86.1389236  57.6447716  39.6837502
  60.5542107   9.1673651  72.4233780  61.2806244   9.5852690  72.8858871
  60.3139038   8.4241486  72.9766541  29.3879395  61.1473656  57.6587563
  28.7147999  60.4784851  57.5334091  29.9526634  60.7930794  58.3456345
  28.4137650  57.6066856  51.1669922  28.1556187  57.8350372  52.0599937
  28.3299046  56.6538963  51.1296616  69.3770981  14.5998840  55.9442902
  69.0937195  15.2781239  55.3311653  69.5566406  13.8383713  55.3928452
   8.3110352  55.1920090  47.8316803   9.1698160  54.7908592  47.6982422
   7.6944990  54.5745239  47.4381943   5.8346858  15.6632013  61.2625847
   6.3284955  16.4272633  61.5602303   5.8816457  15.7048769  60.3074493
  75.8762207  46.6107826  88.0164108  75.1500320  46.8211670  88.6034546
  75.9737473  47.3889656  87.4676361  26.5848598   3.9243755  41.8834572
  26.8850193   4.0445485  40.9825172  25.9410992   4.6201954  42.0162621
  82.4622726  63.8996544  42.8962479  82.5496674  64.6602402  42.3217010
  83.2042923  63.9668999  43.4971733  45.4270096  25.6224918  67.4285583
  44.5233994  25.4799862  67.1467438  45.5658417  26.5634537  67.3210907
  15.7517128   0.1453319  23.2001343  16.0916615   1.0115871  22.9759274
  15.9817066   0.0290138  24.1219845  44.2839584  56.0750885  82.4743423
  43.4260788  55.7364159  82.2182541  44.5774612  56.5813408  81.7168503
  33.2387581  60.9223442  47.8655968  33.2618866  60.4320068  48.6873398
  33.9346886  61.5733681  47.9554863  71.7201538  49.6025696  80.1584015
  72.4405594  50.1563110  79.8573685  72.1357117  48.9613457  80.7349243
   9.7793837  53.5365715  64.9294891   9.0993099  52.9258499  64.6453171
  10.1785440  53.1137047  65.6898041   4.9717464  25.1664391  25.9001427
   5.1632333  25.0344677  26.8286610   5.5202160  25.9084740  25.6455898
  26.2475986  49.4241028  24.1127186  25.3701859  49.4730492  23.7332649
  26.5160427  48.5151062  23.9789257  84.8915863  58.0228310  44.8000832
  85.7978439  57.8572769  44.5402374  84.3783798  57.8297081  44.0155144
  63.6715393   8.4996529  56.4786301  63.5106735   8.9474697  57.3091774
  63.6081772   7.5687485  56.6922455  82.3878860   3.5228202  75.9038391
  82.5248032   4.2914314  75.3500214  81.4533844   3.5398154  76.1103516
   1.0666113  63.4780693  58.0032883   1.1935234  62.6042366  58.3727989
   0.2247833  63.7670898  58.3554611  34.6175117   2.9749560  80.6414642
  33.8922844   3.5143654  80.9566040  35.3227844   3.1312571  81.2694702
  16.7565098  53.9992294  18.0696411  16.6427612  54.9370728  18.2237339
  17.0944653  53.9426155  17.1758785  29.0876179   3.1925497  25.2176380
  30.0049515   3.1383858  25.4855900  29.0792027   3.8523371  24.5242100
  65.1215286  53.9197426  45.2311897  64.8017960  54.8166046  45.3293953
  65.5494614  53.9104233  44.3750229  34.7846909  22.1495285  73.9963989
  34.8743706  21.2196369  74.2049408  34.3418350  22.1630764  73.1479111
   6.1396317  52.7648125  26.8929787   6.6452112  52.5081825  27.6641884
   5.4960322  53.3903198  27.2257729  69.0049362  60.4683990  21.1823082
  69.1514816  59.5731850  20.8767853  68.0797958  60.6347427  21.0015411
   8.7173157   1.9772422  24.0884209   8.1470032   2.5435112  23.5685024
   9.5610247   2.0079904  23.6373768  68.0247040  56.8333130   4.7116852
  68.7665176  56.9537315   4.1188602  67.6295166  57.7024117   4.7804441
  26.9901714  59.4176064  45.7295647  26.1079788  59.1378326  45.9738884
  27.2621040  59.9994278  46.4393272  39.6178703  59.1199570  38.5824242
  39.9186745  59.3228951  37.6966705  40.4032135  58.8179169  39.0387611
   2.7628453  59.5465393  75.1080170   3.4522021  60.1960640  74.9696960
   2.8190761  59.3322029  76.0392151  39.1377258  69.0284653  83.9821396
  39.1215706  69.3450241  83.0789413  39.7558174  69.6076660  84.4279175
  53.3044853  62.8990059   1.6391608  54.2608299  62.8794823   1.6037341
  53.0920944  63.8006668   1.8802536  28.7565384  14.1712236  63.2086067
  29.3181896  13.7890787  62.5342598  29.2188759  14.9623642  63.4853210
  70.7120895  63.7273750  55.6109428  70.7880859  62.9781075  55.0201340
  71.5385590  64.1989899  55.5072098  71.4895782  54.0195351  29.7064209
  70.5520935  54.1286659  29.5469017  71.8993683  54.2034492  28.8611488
  83.9232483  12.9994726  40.5545349  83.7527084  12.0649395  40.4370804
  84.3020859  13.2803507  39.7215729  85.0505219  66.3659286  81.2272110
  84.4314728  66.6558075  80.5571518  84.6556549  65.5736694  81.5914078
  54.8372803   2.3489628  32.5363693  55.1854286   2.1177289  33.3975067
  55.2240067   3.2029686  32.3431091   0.5967903  34.0413857  82.7980576
  -0.0604358  34.5688171  82.3440704   0.1856115  33.8115921  83.6313324
  75.9212341  45.5268135  22.8175392  75.8933563  46.0686646  22.0289612
  75.2187042  44.8884354  22.6944599  61.2935677  53.9513893  74.5413437
  61.9101143  54.5727539  74.9286499  61.3046684  54.1544304  73.6059952
  14.8299112  63.9945297  82.3455124  14.3589935  64.1233368  83.1688385
  14.2414122  63.4580574  81.8143845  50.4103317  17.6323223  80.4363022
  50.8112602  17.8466244  81.2786636  50.8973312  18.1551342  79.7993393
  35.1528358  63.9615135  78.3804855  36.0850677  64.1775131  78.3576508
  34.9959450  63.4907074  77.5619736  70.7105255  60.6169891  68.6021271
  71.4820099  60.9695396  69.0456924  70.0396042  61.2899055  68.7173386
  84.4689713   7.8113379  70.3259735  85.3069305   8.0903111  69.9568787
  84.1778183   8.5575094  70.8500824  12.0195217  55.7447586  50.1560097
  11.0626116  55.7600555  50.1381149  12.2814102  56.4559441  49.5713196
  69.2853012  26.7811108  19.2486305  69.7375412  26.9608021  20.0729008
  69.9725494  26.4643040  18.6624947  31.6854801   3.2511878  49.2519417
  31.7695923   2.9455926  50.1551437  32.3491440   2.7582021  48.7695045
  23.9123917  58.2419968  75.6354599  23.6033421  57.5179977  76.1800232
  24.1781101  58.9158669  76.2611847   1.4297992   8.2762022  63.4921799
   1.7277347   8.0089598  64.3616867   2.0478008   8.9569731  63.2259903
  84.2225494  19.9600716  57.3007545  84.4324951  20.5209713  56.5540657
  85.0733871  19.6663418  57.6263771  65.7745667  57.0239258  60.4782066
  66.7282639  57.0740623  60.4136467  65.6098938  56.2216797  60.9737053
   2.8866794  70.7334518  85.5550613   3.6348078  70.1365051  85.5412292
   3.2697108  71.5935440  85.7275467  29.1319008  27.4252853  79.2044449
  29.6761837  27.1313763  78.4739609  28.7668438  28.2598839  78.9104919
  52.6144142  56.1534271  24.3460217  51.8537941  56.4010773  23.8203239
  53.3262787  56.6968651  24.0081520  82.2878113  59.4386673  23.4915733
  81.8653336  59.5615921  22.6414967  82.7692337  60.2526207  23.6397076
  45.2479401  15.0440035  59.8127556  45.6999435  15.6183138  60.4308929
  45.8488007  14.3100166  59.6844444  83.9848709  23.0384674  51.5144005
  83.0332947  23.0568275  51.4124413  84.2883224  23.8321667  51.0737343
  28.7400246  42.3539581  10.6561813  28.0392704  42.9539604  10.4008846
  28.3132324  41.7174225  11.2296829  40.3855019  60.5805931  15.4152470
  39.5677299  60.8094444  14.9735308  40.6809807  61.4001350  15.8118305
  20.0625668  34.1658745   4.4733853  20.6914997  33.6098022   4.9332294
  20.3930473  34.2099533   3.5761275  46.7745476  58.4091721  34.3245811
  45.8221664  58.3733330  34.4135933  47.0312767  59.1924286  34.8112373
   8.6423149   1.6639826  63.8975487   9.5129137   2.0047326  64.1029282
   8.7008085   1.3941233  62.9810410  37.5970726  65.6409531  81.8068085
  37.2599411  64.7671432  81.6092453  37.1608200  66.2141571  81.1764526
  54.1002502  52.3309097  20.7364464  53.1740913  52.4836998  20.9238453
  54.5308952  53.1528931  20.9712105  30.5002766  53.6174164  69.1064529
  30.3718834  52.7995224  69.5868607  31.1437511  53.4004593  68.4318390
  32.2114868  29.2528629   0.8512517  32.6883774  28.9106789   1.6073714
  32.7616768  29.0302315   0.1002819  17.2536507   2.0270035   9.2945280
  17.2650604   1.0943640   9.0793877  18.0144978   2.3872304   8.8389168
   5.1627145  68.4502335  41.3206100   4.5915079  67.8890839  41.8450813
   5.1519127  69.2933121  41.7737503   9.3713913  39.7915840  71.3260651
  10.2840834  39.6824799  71.5931244   8.8964443  39.1208382  71.8167343
  86.2667694  20.7783604  30.8211021  86.3555527  21.6437607  30.4218159
  86.1768341  20.9547577  31.7575989  16.3526630  65.9835510  84.0708160
  15.4312429  66.0206070  84.3274155  16.5477562  65.0482254  84.0129929
  65.2185745  62.2069359  53.1180115  65.2942963  62.8736267  53.8006706
  65.5719070  61.4126701  53.5186729  47.5551414  69.6161652  57.9380836
  47.0001450  69.9090271  58.6608810  47.0738564  68.8871689  57.5467262
  73.6735153  23.2505035  43.3876305  74.5809402  23.2180786  43.6905518
  73.3507462  22.3566513  43.5019989  62.9633942  69.2591324  45.6596756
  63.0646095  68.9090271  44.7745705  63.1010475  68.5049133  46.2327728
  16.1061478  10.3805714  23.2649784  15.6254988  11.0716858  22.8093815
  16.6648560  10.8471708  23.8865604   6.0125022  63.2294960  86.7842789
   5.1349778  63.5202637  86.5360031   5.8723550  62.6708755  87.5488205
  10.4687815   7.0572000  20.6091385   9.9098711   6.3033762  20.4204559
  10.8177586   7.3160672  19.7562408   2.5159159  62.1515350  50.3772888
   2.2297063  62.8021393  51.0184059   1.7074662  61.7283478  50.0882301
  35.3709221  69.6418381  14.6128435  34.4985542  69.9969559  14.7834387
  35.2172546  68.7216492  14.3986635  19.6232185  39.7785950  70.7415161
  19.8540249  40.5432167  71.2690735  19.0275154  40.1190681  70.0740967
   2.8229773  59.8438797  84.7525711   2.1678479  59.9573860  85.4411545
   3.6172848  59.5825500  85.2184143  18.8932590  13.2561541  64.8654938
  19.2304249  13.9957552  64.3599777  18.3694420  12.7567806  64.2390137
  80.3453979  17.4321232  86.2399673  80.5327225  17.1181431  85.3553467
  79.4038239  17.6043930  86.2386017  80.4176712  38.0992699  21.6102848
  81.1638565  38.4405899  22.1031799  80.7336884  37.2767715  21.2363071
  34.9233818  67.3613510  12.9764681  35.2556610  66.5426178  13.3445616
  34.7915878  67.1703720  12.0478191  82.2574081  54.6664391  45.3696747
  81.3411713  54.8001747  45.1270866  82.4836273  53.8165741  44.9917946
  75.1589966  21.9226551  80.4162064  74.2591476  21.9191360  80.0898743
  75.4373703  21.0084953  80.3609924   7.5900154  17.4329529  14.8844585
   6.9213767  17.1006947  15.4834232   7.1070609  17.6649590  14.0912628
   6.9061365  30.7069511  65.5336914   6.8587370  30.9359016  66.4618988
   6.6249480  31.4996796  65.0768051  20.0953598  53.6111221  62.4685745
  20.3597546  54.3922043  61.9825287  19.1810532  53.7721596  62.7016907
  72.7295532  69.0746689   2.9552176  72.4681778  69.1026688   2.0348208
  73.0163574  69.9668732   3.1500075  56.1506958  39.0533791  20.8921337
  56.7500801  38.3533363  21.1508026  55.3321075  38.6030502  20.6839123
  55.6224480  18.3841591  32.8885498  56.3505249  17.7842693  32.7264748
  55.9824219  19.0427132  33.4826508  64.2914047  40.2051659  61.0294571
  63.8272552  39.6426125  61.6494026  64.4627686  39.6406403  60.2756844
  63.3550301  56.0960655   3.0859473  64.1136246  56.2085495   3.6587572
  63.7271385  55.8297768   2.2452002  82.3027725   7.8221331  35.4381065
  81.4879990   7.7570500  34.9399757  82.1936035   8.6075001  35.9743080
  17.2374611   4.5558915  53.8806343  17.8265572   4.9123220  53.2156868
  16.6019897   4.0390406  53.3853874  52.4729843  63.2088470  58.9447746
  53.1944275  63.2388039  58.3163986  52.6148109  62.3983154  59.4338112
  82.9637299  23.6614609  31.5691013  82.8772583  22.7139778  31.6741352
  82.0810394  24.0004826  31.7179317  17.5436077  71.0658875  59.0716858
  17.9507408  71.0660095  58.2053871  17.2306862  70.1689453  59.1891441
  60.2913780  18.0596809  42.7679977  60.7525673  18.4531136  42.0272217
  60.9716644  17.9196930  43.4266663  59.1835938  15.1622639  -0.1611591
  59.8451843  14.4715710  -0.1994984  58.9559402  15.2246389   0.7664806
  32.3240929   3.5751839   1.1414113  32.0427704   2.7546477   1.5461465
  31.5348911   3.9185169   0.7224643  14.7256727  62.3202858   9.7131214
  14.3963175  61.8512993   8.9464340  13.9414454  62.6744347  10.1324034
  68.3980408  60.6697731  82.7699127  68.2031326  61.4481544  82.2480240
  69.1557388  60.2753639  82.3379745  12.6104250  19.7637310  84.7139130
  11.7154713  19.4612560  84.8681793  13.1612206  19.0269451  84.9784927
  18.0004692  70.5096893  66.3423538  17.8525791  71.4315720  66.1314163
  18.4556980  70.1588898  65.5768890  62.6391602  50.6477776  61.6076775
  62.6632118  50.8575630  62.5412979  62.4594040  51.4844055  61.1787567
  51.4933815   9.5898161  45.9948120  52.0834312   9.9303617  46.6671982
  52.0372276   8.9958849  45.4774055  61.5748634  25.6780910  87.0073776
  62.2224503  25.0740776  86.6440125  61.6435928  26.4604874  86.4602356
  34.9830437  61.0860100  56.4025307  34.3233109  60.9684639  57.0860291
  34.6509247  61.8094406  55.8709526  51.3466568  60.2132225   9.7477989
  52.1705894  59.7419472   9.6242313  51.5746384  60.9494324  10.3154678
  83.2856445  66.2564850  40.8222694  83.3472443  65.7636642  40.0039978
  83.2210922  67.1709290  40.5468407  19.9202785  44.3115654  73.3169022
  20.5741997  45.0039253  73.2206726  20.0331764  43.9985428  74.2144012
  47.0966225  53.3604202  73.8089905  46.4360580  54.0121307  74.0438538
  47.1897774  52.8202591  74.5937042  61.5839386  48.6497269  87.8157501
  61.3790016  49.3645782  88.4184341  61.1803322  48.9110985  86.9880905
  47.5380783  31.7084446  78.9250946  48.4647865  31.4825592  78.8449554
  47.3559685  31.6436749  79.8625793  13.0045528  14.8205214   7.0511088
  12.3877201  14.5848207   7.7440691  13.7895451  14.3081503   7.2447448
  62.0489960   3.4424052  63.7295685  61.9825058   4.0660129  63.0064316
  62.8632736   2.9677963  63.5624466  25.3070469  31.1210938  14.6977491
  26.2171516  31.4127560  14.6441374  24.8507824  31.6365242  14.0326290
  47.7402306  25.4607563  62.0169296  48.3682747  26.1815338  61.9692154
  47.5783348  25.2233067  61.1038933  19.8725281  64.6116943   2.7637703
  19.7952576  64.8912506   1.8515708  20.6736584  65.0322418   3.0761187
   4.2343082  30.3437672   4.2047815   3.2986856  30.5435638   4.2351685
   4.2805953  29.3950462   4.3231759  19.5675488   8.4813862  74.9913864
  19.6889915   9.3537245  74.6165390  19.0285091   8.0181198  74.3502502
   4.1634774  30.2342796  70.0985870   4.5665517  29.3793182  70.2496033
   3.9378488  30.2317543  69.1683655  25.4456577  58.9442520  79.6124268
  24.8806190  58.6418037  80.3234024  24.8460541  59.1151276  78.8861313
  34.2917480   5.4831901  63.7982559  34.1312523   6.3736997  64.1104507
  33.5771980   4.9664350  64.1705704  81.3545380   2.2676282  85.1969833
  80.9016647   1.6654918  85.7873840  82.2731857   2.0027127  85.2431488
  65.3393555  64.8329468  42.2836723  65.7970581  63.9992218  42.3916168
  65.1451416  65.1169586  43.1768951  35.1006775  67.1931305   7.4304638
  35.6028862  67.4272766   6.6499562  34.4052925  67.8494797   7.4736600
  51.7913132  47.6755180  34.4751358  52.2651482  46.9215202  34.1241417
  52.3874130  48.0531006  35.1219215  62.6181564  52.0822601  44.5052071
  63.1156578  51.9652367  43.6958656  63.2853699  52.1898956  45.1830482
  37.4104347  48.1063232  74.2439728  37.8534355  47.9080925  73.4189377
  36.7028847  47.4637756  74.2963181  18.9210110  33.7410469  80.6691284
  18.2175179  33.1187210  80.8536224  19.4027615  33.3489418  79.9408417
  80.7463608  28.1234818  50.1805687  80.6258850  28.7274971  50.9132919
  79.8708115  27.7763481  50.0098763  86.4665146  58.4792671  35.7658081
  85.5314255  58.6399612  35.8923302  86.8984146  59.1680641  36.2710342
  84.6315918   7.8688283  49.3573380  85.2604599   8.1629858  48.6983795
  84.5063324   6.9384556  49.1703949  12.1708488   1.4747266  54.6986046
  11.9644051   2.0626287  55.4252281  13.1249046   1.3990486  54.7153778
  63.2280235  58.3531952  19.8747139  62.7494926  57.6048889  19.5179501
  63.9655037  57.9639244  20.3446274  37.2417297  40.7111740  57.0557823
  37.1958885  39.7980995  56.7721939  38.0945244  41.0157738  56.7456245
   6.4687281  23.7575188  80.3781662   5.9070382  24.4440174  80.0183716
   7.0111217  24.2070045  81.0262451  77.6396408  13.5956707  29.9737148
  78.5867157  13.4801846  30.0507660  77.2810669  13.1537724  30.7433815
  85.4227753   8.2437887  21.9553967  85.8149796   7.6407123  21.3239670
  84.6097107   8.5305595  21.5395546  65.2366791  44.1552391  80.7948761
  65.1771240  43.2110825  80.9406586  66.1645584  44.3579292  80.9139862
  22.4776726  31.4186897   9.0345764  23.4047260  31.1911259   8.9637165
  22.2488422  31.2117786   9.9406977  10.6653404  19.1611671  66.5817032
  11.1403093  19.0314560  65.7608414  11.2955227  18.9261284  67.2627716
   0.7885294  40.8225708  12.4579439   0.7499689  40.1101837  13.0961056
   0.0251089  41.3644371  12.6574526  44.8950920  47.1215706  44.5527611
  45.4191895  47.3084068  43.7738838  44.2232208  46.5113792  44.2486382
  82.5208893  62.2526665  56.4171677  82.6160812  62.7243652  57.2446136
  83.3768539  61.8498421  56.2712631  85.6518860  61.6748276  37.2878304
  84.9440689  62.1164169  37.7571144  86.4449692  61.9209137  37.7639427
  53.6172600  24.5269814  77.7501297  54.2461548  24.7254505  77.0563507
  52.7651291  24.5499554  77.3147202  53.0073471  21.1558914  54.1235313
  53.3931236  21.8067322  53.5371742  52.4974518  20.5866280  53.5471840
  35.0846977  32.0814590  74.0519485  34.5742531  32.8447418  74.3222809
  35.4709854  32.3361931  73.2140198  49.4416428  22.1086159  12.3596125
  49.0180321  22.9571819  12.2303095  50.0183563  22.0108871  11.6019306
  40.8989639  12.5996828   7.4258218  39.9909363  12.8474464   7.5999684
  41.1590958  12.0888996   8.1924143  34.5813522  34.5024338  68.1609192
  35.2829437  35.0117302  68.5666504  33.7989044  34.7301064  68.6630859
   8.5758429   5.0017653  25.4991760   9.3527632   4.8179884  26.0272408
   8.5691404   5.9544382  25.4064331  62.2802696  22.2153721  13.0817423
  62.8191566  22.9129066  12.7085381  61.6587982  21.9955006  12.3877249
  64.8624344  32.4574089  58.5445938  64.1860580  31.9193478  58.1332169
  65.6439362  31.9047108  58.5398712  64.1033859  68.8754120  50.6130753
  63.9663200  69.1368790  51.5236130  63.4987640  69.4235611  50.1128731
  85.4451981   3.0823417  39.4355469  85.0675125   3.9387560  39.6358948
  86.0116730   2.8896766  40.1826935  45.8792305  35.1818962   4.1663003
  45.2344437  34.4746742   4.1484380  46.6524811  34.8118401   3.7404175
  13.6205397  59.5111923  58.7380371  13.2059774  60.0905342  58.0987129
  14.5100536  59.3867836  58.4071007  22.0082054   9.4790249  66.0885010
  22.1629009   8.6217527  66.4852219  22.8734283   9.7686872  65.7991638
   6.3615103  15.9888182  58.5959167   6.8282661  15.5482922  57.8857689
   6.8411155  16.8068333  58.7265396  42.7066078   5.8114576  52.1702614
  42.2048492   5.2894621  52.7963562  42.7541199   6.6811523  52.5672569
   1.8992925  44.1393013  53.2589149   1.4730175  43.3167648  53.0181694
   1.6686876  44.2682571  54.1789284  85.9050598  36.8730354  68.7467041
  85.6498489  36.5349960  67.8883209  85.2240677  37.5090256  68.9657974
  26.3010445  29.9740219  53.5518417  26.8957653  30.6809883  53.8023186
  26.0401745  30.1866665  52.6557617  75.4164810  47.7184792  15.7533236
  75.5454483  48.5399017  15.2791262  74.5413284  47.7960854  16.1332092
  35.8197937  70.1243362  78.0723877  35.0441399  70.6527100  77.8842239
  35.6778412  69.3101044  77.5895767  79.9545517   5.2315884  38.1494408
  79.4310226   5.6455016  37.4632759  79.8525238   4.2924714  37.9949074
  77.7813187  42.2622528  38.5917664  77.4497223  41.3643799  38.5817604
  77.3277435  42.6931801  37.8673325  44.2428322  56.0458488  32.6231270
  43.3218231  55.8070908  32.7278595  44.2391853  56.7236862  31.9472923
  44.9329758  12.3778849  69.2810364  44.5315819  13.1014490  69.7622528
  45.0303497  12.7088652  68.3881760  81.2098236  61.1040421  29.4355755
  81.4513245  60.7451210  28.5817108  82.0427856  61.3582230  29.8328171
  36.1649704  61.6641121  28.3969879  36.1880760  62.2459335  27.6372623
  36.1276703  60.7836456  28.0233345  78.6693878  26.9724236  79.0227890
  78.0336761  27.5606155  79.4303741  78.1378250  26.2788315  78.6321487
  39.6694717  60.6915855  86.5639420  39.4105949  60.4628601  87.4566345
  38.9098930  61.1497116  86.2042313  80.0033264  25.6141148  70.1269531
  80.8674164  25.9317951  69.8649139  79.4606018  26.4015694  70.1668625
  40.7733383  42.1006241  12.7208090  41.1769409  41.3977509  13.2300301
  41.5008163  42.6795311  12.4930544  12.8583984  31.6499672  72.1652145
  13.8105803  31.6923733  72.2534256  12.6698914  30.7187767  72.0486755
  51.4184151  20.5176296   5.2408419  51.9442711  20.1398373   5.9458103
  50.5358276  20.1797886   5.3929343  49.9067955  59.0924873  75.1101303
  49.5235825  58.2325363  75.2829437  50.3580742  58.9896049  74.2722778
  77.5547791  57.0032845  78.9110260  77.4545212  57.7904510  78.3757248
  77.0555038  56.3320770  78.4458008  86.9427032   7.2895198  42.2293892
  86.3484268   6.7949958  42.7937622  86.4383316   8.0594988  41.9667587
  72.9734268  54.0474968  44.3898430  73.4659424  53.5059662  45.0066032
  73.5859604  54.7373886  44.1347198  83.2840424   6.2210069  17.8460484
  82.3521347   6.1150804  18.0372391  83.3541718   7.1011615  17.4763985
  66.0147324  32.6480446  87.9673080  66.3036041  33.3456421  87.3789673
  65.2438354  32.2767563  87.5382385  66.7178116   4.1245918  36.2752762
  66.1644287   4.7681832  35.8328018  67.5595093   4.1811299  35.8229675
  83.6741791  30.4330254  31.0224781  82.9308624  30.5914898  30.4405842
  83.7246246  29.4797192  31.0924129  45.5008011  50.1482277  41.2526283
  45.5500031  50.0786057  40.2992325  46.1897659  50.7714615  41.4831390
  53.6133995   1.4571134  19.7977943  52.8215408   1.5181693  20.3320770
  53.6058578   2.2533131  19.2665291  30.7805328  30.4714355   6.5766521
  30.7017021  31.2617302   7.1109300  30.0116959  30.4899254   6.0067582
  26.5301914  12.3430538   8.0835915  27.4476204  12.5064373   8.3023615
  26.3072872  11.5464935   8.5652943  19.2729855  57.8793869  72.1912460
  19.0763569  56.9521446  72.0578461  20.2290897  57.9211960  72.2099686
  29.7309246  19.5616188  11.2034750  30.3538723  19.9236755  11.8336210
  29.1164188  19.0574646  11.7368069  81.2767792  40.8031578  62.4591331
  81.1904526  41.6535568  62.0283165  81.6202927  40.2238579  61.7789536
  23.6928844  42.2571564  12.4412708  24.5012875  41.8530579  12.1259604
  23.7064800  43.1400375  12.0717239  74.7468872  56.7184410  73.1672440
  75.5415344  56.8660736  73.6800537  74.3359604  57.5809593  73.1086349
  44.0704193  58.6867180  59.3249741  43.7330360  57.8060188  59.4886055
  43.2902908  59.2138138  59.1523476  17.5263767  30.4284153  12.6824141
  18.2667599  30.7884903  13.1706867  16.7645912  30.8986473  13.0212307
  42.8531036   5.0776572  44.2199059  43.7287674   5.3322945  44.5107803
  42.7424889   4.1847019  44.5464439  20.8598766  66.0416565  46.1853065
  21.2260342  65.5257263  45.4669914  20.2253418  65.4575577  46.6005478
  46.8274651  42.1853447  78.4343567  47.2014847  42.7505875  77.7584534
  47.3746033  41.4000702  78.4196014  12.0384274  68.0103226  62.4508705
  12.5752392  67.4487228  61.8917046  11.4083252  67.4138107  62.8550720
   4.4513311  60.7228546  62.6409760   3.6088731  60.7791138  62.1900520
   5.0357318  60.3088417  62.0059128  39.2426872  40.9382019   7.7662230
  38.3805008  41.1603584   7.4147840  39.0616531  40.5751305   8.6331930
  81.5310745  62.0633621  73.8634262  81.3650894  61.3444672  74.4732437
  81.5262527  61.6507454  72.9997406  11.3638954  43.6726227  43.5808792
  12.0137100  42.9841309  43.4396172  11.2283411  43.6832733  44.5283699
  14.9587269  33.8957825  60.9575577  14.9866447  34.8268204  60.7370644
  15.1206198  33.8680153  61.9005585  17.9548073  21.5791740  79.5959473
  17.6782074  21.1698704  78.7760696  17.7644138  22.5094681  79.4753799
  66.9459991  70.0667191  24.4907017  67.8965912  69.9608459  24.5280762
  66.6806717  69.5753860  23.7132587  62.7880936  17.4952106  11.2397013
  63.2601929  18.2517376  10.8918190  62.0229111  17.8701744  11.6757421
  15.4073296  68.0700989  74.0021591  15.1349497  67.7731247  74.8704071
  16.2148380  68.5595932  74.1588593  52.4191971  50.6358757  38.1629105
  51.7989197  50.1088181  38.6665955  53.2522011  50.5295258  38.6222878
   7.8256454  11.5115929  27.7350712   8.1420050  10.8797388  28.3807564
   6.9213743  11.6873999  27.9951038  86.5324402  67.3760986  53.9126892
  85.9413223  67.6570053  54.6111870  86.5707855  68.1237640  53.3162384
   8.1755142  48.5623512  65.1195374   8.9748878  48.0441322  65.0263672
   8.4118328  49.2592201  65.7317200  54.7293968  65.7013397  88.1056976
  55.3390427  65.2219620  88.6667328  55.1965790  65.8032761  87.2764969
  85.3832016  18.8035831  70.4256363  86.3193817  18.6115990  70.3714905
  85.3152771  19.4751225  71.1043549  85.6590881  39.7946510  49.2770462
  86.4285049  39.8986244  48.7172165  85.4623337  40.6808205  49.5807304
  81.9134140  15.8580904  13.7355967  82.2160873  14.9500113  13.7393122
  81.0204163  15.8143120  14.0774565  21.4663029  40.1531563  66.8088913
  21.6237240  40.1649818  67.7529831  21.5049076  41.0733337  66.5480957
  54.2401962  -0.0682134  53.4960747  54.4303017   0.8584708  53.6421814
  55.1000938  -0.4878832  53.4698563  60.4022827  60.3144035  32.1017799
  59.4772034  60.5594025  32.1226997  60.7541313  60.6362953  32.9317322
  51.7520370  17.0920715  86.9372787  52.3808365  17.4413700  86.3057480
  51.5176201  17.8431950  87.4823456  74.4349136  59.4670372  36.5384827
  73.8246307  59.3317413  35.8135834  74.5857391  60.4121933  36.5513649
   6.3111687  20.4311695  69.9375763   6.9889059  20.6995602  70.5579605
   6.7948947  20.0538826  69.2028046  11.3104563  28.2698669  77.0707016
  10.5679026  28.6429253  76.5956497  11.9437981  28.0471439  76.3884201
  34.5842628  63.3300705  48.1532936  34.2126007  64.0252151  48.6963120
  34.8138847  63.7646561  47.3319283   3.4498641   7.1874909  27.5351620
   4.1038351   7.6473532  28.0615463   3.9627135   6.6372352  26.9431858
  45.9623451   1.7108485  61.9552498  46.7369537   1.2233016  61.6750488
  45.5462723   1.9889680  61.1393051  51.0446854  55.8893204  27.0843105
  51.8563499  55.9179802  26.5777435  50.3709641  56.1899033  26.4744034
  84.9945374  26.3338814  28.3563271  85.8236771  25.8627357  28.2739697
  84.8738403  26.7566948  27.5060959  14.9908371  20.7840328  23.1602592
  15.7569494  20.9359951  22.6068974  14.8433905  19.8395386  23.1110573
   1.8329645  43.6352921  17.0120850   2.7663083  43.4590034  17.1305084
   1.4327934  42.7687416  16.9400864  52.2444572  47.8048897   8.0537434
  53.0080605  47.4051361   8.4700909  51.9527969  47.1551666   7.4141932
  36.7187462  24.2574787  10.0241241  37.2128983  24.7350864  10.6904087
  37.3884621  23.8372746   9.4845505  42.8899879  31.9149151  66.7903976
  43.4372063  32.0389404  67.5658951  42.4339180  32.7496109  66.6830902
  42.4053459  41.2800674  33.8742294  42.4034805  42.2013130  33.6143570
  43.2783051  40.9663620  33.6380920  49.9031219  16.2905540   2.0414641
  49.0923119  16.1735344   2.5365634  50.2494164  17.1300869   2.3439486
  16.8198185  69.1274338  54.0107155  16.2045307  68.4426041  53.7487030
  17.5010948  69.1072464  53.3386421  19.8761101  46.9917145  22.8725414
  20.6893063  46.5817032  23.1672134  20.0666771  47.2895584  21.9830437
  19.9201775  62.1212578  85.8431091  20.7231464  61.7563782  86.2150497
  20.1922741  62.4931641  85.0041351  26.0116749   6.1903992  76.7816162
  25.2570515   6.2040229  76.1928940  25.6303806   6.1789880  77.6595230
  10.7472010   3.9430737  26.9183254  10.4770203   4.6051407  27.5546455
  10.4230671   3.1178198  27.2790546  16.8688755   1.2050596  28.9961720
  16.2023735   1.8854704  28.9010525  17.0890350   0.9582033  28.0979366
  51.1125717  25.5318775  80.6932907  50.4764748  25.8747787  80.0655670
  51.9594688  25.8347130  80.3657455  39.7356453  66.3838501  83.2047348
  38.9790459  66.1480789  82.6678925  39.5674553  67.2874680  83.4719772
  73.8408585  31.1895161  56.4334106  74.6323929  30.9833183  56.9305916
  73.9792404  32.0843849  56.1231079  44.7092934  39.9134140  69.7362442
  44.3990631  40.7971001  69.5385437  45.3836555  39.7435646  69.0785065
  71.6560669  68.8131256  41.6380157  72.5602875  68.7296753  41.3352852
  71.2910385  69.5227432  41.1094170  48.5631409   2.8220034  55.3784027
  49.0824738   3.4244001  54.8458214  48.8042221   3.0313764  56.2807732
  75.9910507  58.9183083  83.1989899  75.7331543  58.7390518  84.1031952
  76.1833649  58.0565186  82.8294373  38.6744995  21.8847561  84.3714142
  38.1996155  21.0547199  84.3295135  39.0444870  21.9935036  83.4953308
   3.5071063  37.9376564  67.9288101   3.1913507  38.8291512  68.0763550
   4.3372526  38.0511208  67.4659729  58.0939903  66.3904877  72.9577942
  57.2239952  65.9957199  72.8986816  57.9293556  67.2933350  73.2298126
  66.3302383  60.8598328  49.6373291  67.1741028  61.1924019  49.9431381
  66.2866821  61.1256027  48.7187958  53.6966782  38.9033737  88.0476074
  54.5970497  38.6559944  87.8369827  53.1613770  38.4130173  87.4237137
  12.9076853  51.9109154  36.1211128  13.4323149  52.1009560  35.3433723
  13.2607193  52.4909554  36.7957649  44.6036873   2.3195140  59.7577858
  44.7046280   1.6854297  59.0478706  43.6920586   2.6047997  59.6962891
  32.9218826   4.3390946  82.7106705  32.0760231   4.4341502  83.1485291
  33.5506554   4.2336397  83.4246445  18.3229847  57.3160820  87.8251266
  17.8190956  57.0363693  88.5893860  19.2187481  57.0359764  88.0132217
  33.9302521  38.0209160  60.8560829  34.3237610  37.6576691  61.6494522
  33.7294693  38.9290237  61.0824776  36.0522728  69.5050125  47.1600418
  36.9556618  69.7840729  47.3092041  35.9323196  69.5778961  46.2131882
  61.9835167  70.1782990  33.1157112  62.0543747  69.4591064  32.4880409
  61.0986633  70.0989227  33.4720306  58.0891228  61.2588806  34.8039780
  57.7084808  60.4773407  35.2046471  59.0288658  61.1781349  34.9670601
  81.0191345  31.2049637  35.9559746  81.3453979  30.3326435  35.7349663
  81.5157471  31.7967129  35.3907852  84.6706772  64.0153275  44.6153221
  85.3873215  64.5379333  44.9752274  85.1050262  63.2888565  44.1683197
  72.8119583  58.9031487  45.3649406  72.2062073  59.2653847  44.7183495
  72.9041138  59.5945129  46.0204964  79.5579147  20.8782940   4.4199195
  79.0495758  21.1471214   3.6547058  80.2524719  20.3243885   4.0635276
  68.6627350  31.9966640  64.5653915  68.1182785  32.2443390  63.8180962
  69.1053772  32.8068428  64.8181992   4.0198750  63.8433609  32.1113243
   4.8785100  64.2638779  32.1576271   3.5668125  64.1361923  32.9020271
  42.7163963  64.8361435  46.4868965  43.0279617  64.0838547  46.9901085
  43.2875786  64.8639984  45.7192993  30.2000465  12.7502327  16.3962536
  29.9530849  11.8514662  16.6141090  31.0105953  12.6610851  15.8949614
  30.5114212  57.0392151  66.2428436  29.5964565  57.1305199  66.5088043
  30.9164944  57.8708496  66.4888840  25.5604877  70.0877533  86.8244324
  26.3665352  70.3114777  86.3591690  25.1087627  70.9241486  86.9367752
  21.6204567  61.0346718   7.3222413  21.0876198  60.5181351   7.9268117
  21.3085175  60.7829285   6.4530163  29.4600067  30.8494778  61.3217506
  28.7177601  30.4029694  61.7290993  29.1271687  31.1422501  60.4733772
  76.7964783  23.4940796  64.1094818  77.1807098  24.0771542  63.4547920
  76.0791168  24.0008678  64.4900055   0.9038648   9.2604160  79.7784348
   0.3354911   9.2888489  80.5480881   1.7765338   9.0869617  80.1314087
  83.6062393  69.8907242  68.1207733  83.8275757  70.7389679  67.7364197
  84.3282471  69.7039413  68.7208176  32.7723732  48.2526093  87.1872711
  33.0548706  48.2559395  88.1018295  33.4116211  47.6971169  86.7411575
   9.3605061   4.4695683  20.8941879   9.6666784   4.5783677  21.7945518
   8.4246006   4.6663527  20.9340363  48.3767433  41.6858864  25.7391968
  48.8010445  40.9780235  26.2240982  48.2424240  42.3749695  26.3898563
   7.3268385  40.0170059  76.9548264   6.4245372  39.8554764  76.6791611
   7.3133497  39.8922081  77.9037628  81.7854156  41.3979073  75.5612030
  81.5806274  40.5132599  75.2584000  82.3772049  41.7480049  74.8952789
  50.8001289  39.5914192  45.6399155  51.6049728  40.0319443  45.3671646
  50.6464386  38.9325447  44.9627953  43.0642624  53.4797096  72.7553864
  42.5145988  52.7441406  73.0256500  43.4117928  53.2183800  71.9026489
  71.5619812  51.7592506  76.7420654  71.9395447  51.2497330  76.0250778
  70.6310959  51.5366859  76.7297745   2.1593759  52.9899712   0.9571471
   2.6212003  52.4688301   1.6139293   1.3165293  52.5489197   0.8507752
  56.8428764  18.3119793   9.6202383  56.3472023  18.2356663  10.4355373
  57.0626564  19.2416363   9.5596771  -0.2159507  28.1334629  88.3588562
   0.5088711  27.5682125  88.6259766   0.2044641  28.9483528  88.0841904
  31.7759972  48.7976265  64.9080734  31.6574059  49.5855637  65.4384689
  32.6680450  48.5100670  65.1024704  73.1018829  65.1851807  13.6738977
  73.8690948  64.7151489  13.3472567  73.3141098  65.3858795  14.5854406
  49.4856567  45.1092110  86.4529724  49.4477539  44.3772049  87.0685730
  49.6281395  44.6980400  85.6004105   0.1098235  63.1438522   8.0234089
   0.4769678  62.7863503   8.8318815  -0.2315944  64.0021439   8.2744160
  78.1955872  52.5205994  42.0444794  78.2453156  52.8611755  41.1513023
  79.0338516  52.0785904  42.1792908   5.4134498  50.5566216  46.8687019
   4.9156919  49.7511063  46.7286530   4.8906636  51.2378235  46.4457436
  58.7208176  41.9790344  23.8673782  59.1278229  41.1812744  23.5295029
  57.7802773  41.8214188  23.7850857  53.3967094   6.9407530  76.4952850
  53.1453819   7.5432434  75.7952347  52.6332321   6.3748879  76.6098709
   4.1591134   9.9143963  54.7045937   5.0666227   9.7817945  54.9785919
   3.6967673   9.1396141  55.0242500  37.0339012  64.2833786  18.5919342
  37.8122215  64.8304901  18.4864769  36.5618858  64.3763199  17.7644100
  78.4636459  45.3453674  30.1812801  77.5825348  44.9732780  30.1436710
  78.7636261  45.3430405  29.2723007  16.9816322  21.9125137  61.3602104
  16.5665512  22.4685287  62.0195961  16.4572830  21.1117115  61.3577080
  55.3266182  33.6073341  60.0058174  54.9540939  33.4258804  60.8686790
  55.0594482  34.5062141  59.8138046  78.6821442   8.0335579   4.3814664
  79.2083511   7.8955517   3.5938826  78.1669083   7.2316008   4.4688420
  17.6820049  53.7199745  37.1080818  18.1134415  53.8047104  36.2578392
  18.0098801  54.4607773  37.6179276  24.8767796  38.3867722  11.9931498
  24.7323818  38.1590958  12.9115963  24.0067997  38.3442574  11.5962133
  19.8985252  18.8478165  82.2581940  19.0125332  18.8127728  81.8976059
  19.8958969  18.2005310  82.9633560   3.8368917  43.8766060  87.5241394
   3.3536224  44.2760696  86.8008804   4.6451287  43.5559196  87.1239624
  38.7668152  36.5450783  60.8182678  39.5861244  36.1034203  61.0416603
  38.7173347  36.4896774  59.8639565  67.8151398   4.3888998  71.8971634
  68.6064148   3.8544095  71.8305511  67.4618454   4.1868453  72.7635269
  64.6719589   5.4938974   2.7525117  64.7058945   5.0611835   3.6056466
  65.4522324   6.0480280   2.7338085  68.0013046  21.5043678  12.4634695
  68.7558670  20.9493675  12.2664061  67.6688919  21.7699547  11.6060333
  22.7460060   6.6487150  46.6583519  22.5906544   5.8665209  46.1289482
  22.3286991   7.3567767  46.1677055  42.3910255  44.7820320  53.1622391
  42.9827881  45.3904457  52.7196541  42.9555054  44.2897758  53.7582893
   5.9108238   2.8046219  35.0439873   5.9732714   3.1927741  35.9167252
   5.3264160   3.3902855  34.5626373  16.0579357  24.1254311   7.8549786
  15.4580603  23.5559540   7.3732338  16.9276810  23.7759342   7.6610017
  69.3536758   7.6257401  74.0107117  69.2657089   7.9262586  74.9152451
  68.4534912   7.5564613  73.6927338   6.0246854  14.3856773  56.0391045
   5.1597338  14.2938375  56.4386711   6.1074853  13.6213274  55.4688873
  62.4044647   5.5258703  65.8749390  62.3496666   5.0775661  65.0309906
  61.9496078   4.9449224  66.4847260  12.0530319  19.7329350  16.8823547
  12.2941418  18.8149185  17.0062199  11.5944586  19.9709511  17.6881409
   4.7589235  17.2912388   7.8201752   4.5237131  17.4792480   8.7287788
   5.7144647  17.2352962   7.8267899  19.1139526  49.1697388  41.3555374
  18.8060703  49.0229683  42.2499084  19.9395618  48.6880913  41.3043747
  12.2872305  64.2195816  73.9010391  11.5467949  63.9590988  74.4488907
  13.0596237  63.9551239  74.4007416  55.6103134  19.7463188  18.3724213
  55.4327202  20.4896641  18.9487286  54.8617859  19.7212029  17.7763443
  25.8629723   1.0503628  47.3333435  26.0929966   1.7481935  47.9468193
  26.0373688   0.2414220  47.8144188   4.5395808   2.0751436  25.6403446
   4.6590843   1.1293434  25.5542469   4.9868360   2.2997782  26.4562702
   9.4698400  28.7051334  10.3025599   9.1396112  28.1237431   9.6176023
   9.0428333  29.5444088  10.1307602  38.1792755  55.5007591  48.1834602
  37.7438850  54.9130821  47.5659637  37.9793282  55.1340408  49.0447197
  84.8715591  52.2174530  83.1183243  85.6584091  52.7083626  82.8814545
  85.1821899  51.5451660  83.7247620  10.3263092  68.0195389  70.1370163
   9.6359911  67.3790283  70.3086090  10.8643904  68.0096054  70.9286041
  17.3972797  63.7569580  14.7434502  16.7034664  63.9289742  14.1068459
  17.1220398  62.9544716  15.1867180  25.1841202  48.2881012  28.0980263
  24.3547668  48.7648849  28.0651245  25.8385429  48.9590225  28.2925091
  85.4246979  67.3985062  75.6030273  85.3958740  68.2981110  75.2772675
  85.2182617  66.8603210  74.8388443  73.5602722  54.9100800  37.5542526
  73.2024307  54.6658058  36.7007256  72.8576736  54.7131577  38.1737785
  18.3017006  21.9230824   1.1977776  17.3871651  21.6883755   1.3551550
  18.2768860  22.4701710   0.4127242  77.1381760  63.0114250  65.7241440
  77.1805191  63.8426437  66.1969223  77.7044144  63.1396255  64.9631119
  76.1805115  14.5795326  34.1015167  76.9388275  15.0287218  33.7281418
  75.7511063  15.2429810  34.6415939  12.4393883  28.5679741  85.2599564
  12.4724312  27.8176994  85.8534393  12.5166473  29.3305187  85.8333511
  21.7588406  51.7959557  25.2255287  21.2340717  51.5405426  24.4668369
  21.1264305  52.1693344  25.8394318  66.4619751  14.6419601  28.3839664
  66.2712708  15.5538788  28.6036587  66.1606522  14.5451717  27.4806004
  26.6087761  61.1379204  12.5682020  27.5656128  61.1243629  12.5455465
  26.3739109  60.4435844  13.1838045  27.7134533  18.0396080   5.3117633
  27.2390881  17.2651119   5.6140280  28.6209717  17.8812199   5.5716829
  56.8766289  38.4023399  74.3742294  56.5757599  39.1345978  74.9122849
  56.8829956  38.7477913  73.4815598  11.3289824  67.0364304  83.7006683
  10.6507015  66.6612549  84.2622833  12.1304417  66.5788956  83.9547577
  43.8757286  61.9396057  71.0387573  43.6010704  61.0381927  71.2068253
  43.8964691  62.3489037  71.9037933  35.6955452  30.1408958  69.0155640
  34.9216843  29.5779018  69.0358200  35.6636543  30.5610237  68.1560822
  69.6025314  69.5384369  24.8890705  69.6083527  68.9519043  25.6454926
  70.0147095  70.3421173  25.2059898  29.5021286  51.0581017  70.2497101
  30.0171051  50.7798805  71.0070953  29.4366684  50.2746239  69.7037125
  26.8987770  61.3768730  29.8661423  27.7339706  61.6838264  30.2189350
  26.2417488  61.7246857  30.4691124  86.3183212  61.4488220   4.1974072
  85.4006958  61.2387543   4.0239916  86.7066040  60.6179085   4.4713626
  75.1052322  55.6046944  27.1235752  74.7251968  54.9908524  26.4950848
  76.0231094  55.6777000  26.8620281  85.0497437  31.8857822  27.8355026
  84.1785431  31.8028889  27.4477253  85.4593658  32.6038284  27.3529530
  44.3285599   8.2293863  86.9019241  44.7090340   9.0939522  86.7470169
  45.0832062   7.6565456  87.0382919  79.4255524  66.4354019  30.5905190
  78.7404861  65.8766785  30.9575920  80.2405624  65.9699631  30.7785378
  63.0201912  52.7375145  37.1794510  62.6649017  53.3371010  36.5233307
  63.6306114  52.1839371  36.6924438  29.2876606   9.2485580  74.0722504
  30.2267895   9.0634527  74.0701904  28.8765984   8.4036236  73.8896408
  29.5439625  48.7553177  46.6558952  29.9585361  49.0515099  47.4662247
  30.2090645  48.2140808  46.2305336  53.5661812  29.8918247   0.5674700
  53.8141479  29.0619526   0.9749691  52.8046989  29.6761761   0.0290696
   8.9317799  64.8712082  10.2810440   8.0625553  64.7005692   9.9183292
   8.8897743  65.7770004  10.5876474  36.3190422   0.7132595  32.2249222
  37.2580490   0.5587996  32.3280830  36.0762520   1.2332090  32.9910393
  24.1546841  58.1754074  35.5842514  24.4518490  57.4149170  36.0838356
  23.2606239  57.9555283  35.3224449  40.9547615  51.5949745  29.8443718
  41.0380096  50.7337303  29.4350262  40.0356483  51.8315163  29.7198448
   3.3522816   0.4281317  76.1801834   3.0721579   0.2680536  75.2789917
   4.0325689   1.0972197  76.1042709  16.5573254  65.6554794  48.2236595
  17.0038300  66.3794708  48.6626320  15.8929815  65.3686295  48.8502350
   2.3710489   6.0449762   4.0587573   3.2341897   5.8331819   4.4142332
   1.7801290   5.9781094   4.8088069  75.5608902  32.9812469   2.6576195
  75.1515656  33.4645576   1.9399185  75.0940857  32.1459122   2.6807663
   0.4310555  62.5453568  28.8384705   0.9364428  62.7404022  28.0493107
   0.4595110  61.5913658  28.9114208  79.6825333   3.6804829  76.6140594
  79.1070938   4.3621082  76.2669449  79.1066208   3.1260452  77.1405182
  78.2204132  32.4367561   6.7012715  78.6489944  32.9852257   6.0442057
  77.2992020  32.4273186   6.4414430  36.9347267  63.0063324  10.4133825
  36.3487778  63.4581795  11.0206137  36.4584618  62.9971008   9.5831289
  12.6554832  32.8875923  56.8172302  13.3762217  32.6206436  56.2466965
  12.7013159  33.8436127  56.8296509  54.0651436   2.0575311  73.1424255
  53.6471367   2.6621535  72.5292892  54.9265900   1.8874719  72.7613525
  66.4900055  51.6367798  17.0093803  66.9270630  52.1207008  17.7101192
  66.3361511  50.7672005  17.3786926  49.0427589  12.7214174  35.4425926
  48.5606384  13.0652618  34.6905556  49.8839874  13.1773710  35.4166145
  11.5153265  19.5749207  70.9958420  12.0173626  20.3724365  71.1636429
  11.7911682  18.9690857  71.6836700  21.8297367  10.8373337   2.3565185
  22.7003231  10.8014307   2.7527795  21.7456017  11.7383089   2.0444353
  16.5983753  37.0155487  83.5794220  16.3592129  37.0767555  82.6546021
  16.0491638  36.3107414  83.9227066  84.8806152  26.7094097  67.1115112
  85.5297852  26.5752468  67.8020248  85.0336380  25.9922466  66.4962921
  16.7655334  44.7670593  49.4963341  16.2592068  43.9553757  49.5284843
  16.5896893  45.1924477  50.3355942   4.3726811  52.4986801  19.3145866
   4.1598501  52.2058029  18.4284935   3.6294291  52.2135277  19.8460903
  49.0350380   6.7455473  68.9369202  49.4159088   7.4828601  69.4139328
  48.1234703   6.7174449  69.2275772  50.4006195  13.7797737  74.8480453
  50.1406975  14.4570055  74.2235184  49.8430214  13.0313225  74.6355896
  58.6631241  24.6877975  62.5038834  58.2740173  24.4778080  61.6549225
  57.9995842  24.4269772  63.1425705  64.8255157   1.3340094  54.6198502
  65.5763779   1.0237377  54.1137085  65.1826477   1.5208879  55.4880486
  12.1580791  61.6067924  75.5574188  11.5531321  61.0684395  76.0677567
  12.1727648  61.1964722  74.6927490  68.0080719  37.0587540  14.4723635
  68.1776962  37.5259781  15.2903872  67.0888901  37.2420044  14.2780333
  84.7503128  23.1962814   7.3296642  83.9340515  23.6675797   7.1628284
  85.3266983  23.4533424   6.6099920  23.5931225  71.0517426  35.6495514
  24.3354950  70.5126495  35.3766098  23.9898548  71.8640518  35.9641762
   0.0766104  64.2647781  46.2600632   0.8235530  64.0148849  45.7161293
  -0.1322962  63.4743195  46.7578201  64.9393387  70.8977890  72.4198532
  64.2304535  71.1435547  71.8254471  65.6203308  70.5445938  71.8473663
  59.3714867  23.6088829   1.8836070  58.4464035  23.6194439   1.6379586
  59.8329735  23.4048004   1.0702124  77.3026657  35.0019226  51.5276985
  77.5349808  35.4609222  52.3349037  78.0527115  34.4341927  51.3506432
  51.6172485  51.0876160  44.2941132  51.6694298  50.2631721  44.7776451
  50.7592735  51.4453278  44.5224838   8.5706387  69.4193192   2.0119381
   9.4416771  69.1065445   2.2562673   8.1968107  68.7065277   1.4938537
  73.7430496   8.5762415  37.7844887  74.5763474   8.1295595  37.6350861
  73.4614334   8.2751846  38.6483688   1.4032198  53.5123749  79.7735672
   0.6168891  53.9934464  79.5157166   1.7760292  54.0283432  80.4884262
  84.2501526  27.7017899  20.3583736  83.5184555  27.6706085  19.7420254
  84.1725540  28.5580387  20.7791424  51.5241127  15.2325201  15.0684977
  50.6908340  15.0298519  14.6432829  52.0302048  15.6906624  14.3975258
  25.1603222  39.4659462  75.0442429  25.6758289  39.2805939  75.8291855
  25.7862339  39.3925476  74.3237686  58.8803406   9.5248346  22.9587059
  59.4762154  10.2119722  23.2570457  59.3178291   8.7078333  23.1981792
  54.0902863  61.6823730  79.2785110  53.2013779  61.6754341  79.6335144
  54.6559944  61.7168846  80.0498810  76.5435333   2.7863238  67.6719360
  76.8763962   3.2240517  66.8884583  77.0423050   1.9708039  67.7208252
  63.9039497  34.1774559   8.1251650  64.4065323  33.3707199   8.0119286
  64.1624832  34.7265930   7.3850021   9.9402523  34.4889603  12.8888998
  10.2537031  34.0499992  12.0981445   9.4325752  35.2328377  12.5646467
  60.3874626  65.9757156  31.1672058  60.9707832  66.6984177  31.3988838
  60.2140465  65.5322647  31.9975739  71.6516037  57.9608192  55.5119858
  72.5888901  57.8424187  55.3579903  71.6014557  58.3877640  56.3672256
  18.5459404  40.3195457  81.5126724  19.3306007  40.8292618  81.3108597
  18.7240753  39.4518776  81.1498337  22.8220482  57.8084259  25.9243774
  21.8798046  57.8797684  26.0770760  23.2207108  58.2260666  26.6878414
  35.6839066  53.8957481  82.1835632  35.2417450  54.5746307  82.6933136
  34.9835091  53.2977066  81.9227448  15.7625933   4.9256182  36.8589935
  16.1817627   4.4411492  36.1477814  15.6557465   5.8122325  36.5144196
  59.6684837  65.5208054  54.6866379  60.0084457  66.4030228  54.8361282
  59.8981094  65.3264313  53.7779465  70.6948700  59.6167908  81.9210052
  71.2288666  59.0820999  82.5085297  70.7355804  59.1618843  81.0797958
  17.4671230  50.6153221  21.9320316  16.7946491  50.8710365  22.5633965
  17.6140766  51.4019623  21.4068298  29.6540680  48.7212601  68.5746231
  29.2455769  47.8896599  68.3341980  30.0593052  48.5519981  69.4251328
  37.4193764  24.3835068  83.3724976  37.5322990  23.4350262  83.4346619
  37.3124962  24.6719036  84.2789459  39.1817207  42.4751472  80.3046494
  40.0948105  42.5425034  80.0254364  38.7763748  41.8949471  79.6602173
  12.9981203  44.0598679  66.4310837  12.3867531  43.4461975  66.0238113
  12.9932547  44.8223381  65.8524246  13.3318396  38.3453979  25.8032455
  13.9766579  38.7985878  25.2600498  12.6761217  38.0281715  25.1822510
  25.7938747  55.8579521   3.8622758  25.3291950  55.1169624   4.2511683
  26.2712765  56.2513351   4.5927358  55.8033791  14.5615339  50.2507973
  55.9039726  14.7578516  49.3193626  56.6373444  14.1654692  50.5035248
  26.7265205  12.6788292  67.9686737  27.6702023  12.5550127  67.8668518
  26.5892982  12.7058496  68.9156036  71.5705185  39.9458504  29.1602879
  70.7277069  40.1768570  29.5508499  71.8015900  40.7039528  28.6235180
   1.0738639  37.6244965  63.9567795   1.3629138  37.3603630  64.8302307
   0.5418837  38.4060059  64.1066818   2.9827573   9.0258675  24.7155495
   3.2113297   9.5505266  25.4828300   2.4042931   8.3433361  25.0557861
  69.9881744  59.8985786  10.3514872  70.5685196  59.6744576   9.6240234
  69.2730789  60.3883400   9.9452763  35.4413147  38.6800270  10.4883366
  35.0324745  39.3041916   9.8887548  36.1314201  38.2665253   9.9696808
   1.1357349   8.8979588  44.3209000   1.5621120   8.3332729  43.6762581
   0.3416083   8.4235239  44.5668831  69.7679977  52.6861420  42.8477859
  70.2430191  53.3466988  43.3520203  69.4464188  53.1571503  42.0790329
  18.7554169  48.3801422  46.2265053  19.5515194  47.9896126  46.5869751
  18.0881023  48.2235718  46.8946457  39.7154884  13.3337822  79.4918823
  40.4017830  13.2472258  78.8302612  39.4933243  14.2648258  79.4861450
  45.5167923  36.8505096  85.2270813  45.6741714  35.9357300  85.4608459
  46.2265282  37.0688820  84.6230774  85.0444183  26.0122948  51.7557869
  84.1113129  26.1206226  51.9396439  85.3350677  26.8793697  51.4730568
  51.5595093   5.5593691  68.0596313  52.0829849   6.3540273  67.9560928
  50.7075577   5.8717809  68.3642807  29.2538891  52.1324272  88.3084030
  29.9598885  52.6867218  88.6408920  28.9446583  52.5838089  87.5229950
  41.7657776  63.6860199  68.2614517  41.6668549  63.7547188  69.2110443
  41.0015488  64.1408920  67.9075012  70.9108505  62.9881630  13.2648048
  71.2399902  63.5230522  13.9871569  71.6746979  62.8437386  12.7063179
  13.2709694  41.7638435  52.3614235  14.0976925  42.1504593  52.6500206
  13.5216217  40.9270973  51.9699364   1.3508426  54.4082375  47.7969322
   0.5691996  54.9009972  47.5470276   1.2016566  53.5294304  47.4481163
  14.6579647  37.9114265  77.2553253  15.1054296  37.1689682  76.8494186
  15.3187389  38.6034203  77.2828140  48.9477806  41.1423836  84.7264709
  48.2899551  41.6646233  85.1855621  49.2833939  40.5414085  85.3916245
  38.1422043  13.5913267  85.3015900  38.5380363  12.7726564  85.6004639
  37.2228012  13.5205650  85.5583420  10.0225430  11.9098167  21.7149696
  10.5173893  12.4854431  21.1318626  10.4226055  11.0482502  21.5971336
  61.4763336  71.2413254  71.7851181  61.3377533  70.5908585  71.0967026
  60.9022827  71.9690399  71.5461044  49.7190704   0.3256404  63.5758209
  48.8890610  -0.1393627  63.6811142  49.6615829   0.7247016  62.7076759
  67.7311096   5.7260275  85.8026810  68.2527618   5.3803821  85.0783691
  67.0041199   6.1815996  85.3782196  78.4238281   1.5669152  17.4376583
  78.6859360   1.3135986  16.5525799  78.6253204   2.5012624  17.4889355
  51.1705742  45.9422951   6.4788418  50.6017418  45.1896019   6.3172326
  51.1658363  46.4276047   5.6538062  49.7700920  46.5506020  28.4194031
  49.6407318  47.0532494  29.2236691  50.0515442  45.6864090  28.7197189
  63.8042450  11.8052864  30.1837177  64.5356140  11.2517567  30.4574718
  63.0866547  11.5602293  30.7678776  35.8120689  62.5650673  50.3340836
  36.2901344  61.8076973  49.9963341  35.4427834  62.9818649  49.5555305
  62.2170753  14.2539473  25.5903053  62.6968956  13.4297247  25.6719398
  62.7449989  14.8875523  26.0761795  52.2910881  41.8256111  85.2387848
  51.4773026  41.4074554  84.9574890  52.2681122  41.7757339  86.1944122
  77.7902832  13.8220539  68.2668381  77.8723679  14.7491035  68.0430679
  78.6930771  13.5135994  68.3446426  86.8758698  47.7110672  57.2129021
  86.5340958  48.1615753  56.4405937  86.2205734  47.8697929  57.8923302
  57.1815262   2.5401757  28.9299850  57.7763214   2.1937506  28.2648258
  57.0413780   1.8081443  29.5305862  52.5990257  69.1200256  25.8723927
  51.7140160  69.4684906  25.7648449  52.8465195  68.8206711  24.9975414
  45.0869064  47.8861885  77.5921860  44.7895279  48.7319717  77.9275131
  44.4214516  47.6351280  76.9515839  22.1630993   1.8937364  19.4503689
  21.5936871   2.1468060  18.7237606  22.6421394   1.1315644  19.1250305
  51.2620277  18.9778614   0.3425700  51.9205360  18.2833080   0.3565828
  50.9513588  19.0316315   1.2463534  75.6238937  50.1950569  42.4762535
  75.8597794  50.7895088  43.1884422  76.0141220  49.3570290  42.7245827
  17.5596867   7.0352311  23.4440670  17.5969887   7.6836042  22.7408924
  16.8714790   7.3543324  24.0278263  66.8200226  39.1891365  16.9303322
  66.7775269  39.9835663  17.4625988  67.7383881  38.9223557  16.9711037
  20.1272278   9.7689724  55.1941032  19.6564846  10.3056030  54.5564041
  19.7372322  10.0011234  56.0368614  70.3724518  48.7213898   7.0912313
  71.3237534  48.8233910   7.0621567  70.2362976  47.8488960   7.4606190
  36.3903580  69.8868866  34.1331024  36.2578735  69.4943008  33.2702255
  35.5317535  70.2363663  34.3716240  58.7623177  35.2977104  26.1586685
  58.5872078  34.7160912  26.8984585  59.6752968  35.5617981  26.2725010
  16.5249672  23.3285503  63.9184532  15.7434454  22.7786064  63.8635521
  17.0103474  22.9809685  64.6666718   6.2000451  59.8251877  36.2451477
   6.7195253  59.9449539  37.0401497   5.3143120  60.0874214  36.4960327
  18.9309368   1.7018446  26.8509197  19.7605724   1.9353335  27.2673550
  18.4043407   2.4995248  26.9022465  21.9960079  61.9317703  78.5920486
  21.3629494  61.4479599  79.1225128  21.4674911  62.5658607  78.1074524
  81.8841324  58.5758057  34.5771980  80.9660034  58.6866646  34.8241577
  81.8525543  58.2504692  33.6775360  78.1463318  61.6446495   6.0504608
  77.2410812  61.9056816   6.2196145  78.2767944  61.8224068   5.1190028
  67.0702744  64.7867432  48.7059517  66.9311829  65.7336807  48.6921539
  67.3937988  64.5793839  47.8292732  79.7624283  51.1216736  58.2283859
  80.4831085  51.5988960  57.8171616  79.1871719  50.8835030  57.5013466
  63.2063789  15.6949568   6.9494653  62.4648132  16.1164150   7.3838453
  62.9234695  15.5893755   6.0411439  80.3294983  45.4313202  24.5127392
  80.5178909  46.1126556  25.1581249  79.4099731  45.2097931  24.6597881
  22.0520287  71.3262329  87.4222565  21.7915440  71.5344162  86.5250168
  22.4080257  70.4393158  87.3686295  76.5071793  35.0632858  23.3679562
  76.9325485  34.2611542  23.0648289  77.1543198  35.7511559  23.2121391
  79.6157990   8.8545370  17.6915474  80.1173935   8.0980606  17.9954929
  79.4949646   9.3919973  18.4743423  50.4869995  58.5141907  33.6321831
  51.1058159  59.1021385  33.1990395  49.6859779  58.5848083  33.1129417
  69.6816864  41.0801201  46.4245262  70.0698013  40.3207054  45.9899178
  70.3055038  41.3059540  47.1145134   0.9341424  10.5057020  18.7041054
   1.5221845  11.1232643  19.1389103   0.1064286  10.9795933  18.6231785
  19.0089645   2.3506956  56.4326973  18.2174644   1.9421314  56.7831726
  19.2168217   3.0452728  57.0576668   1.6299921  31.2682533   8.2301321
   1.7626786  30.5327072   8.8281269   1.8215352  30.9098930   7.3634596
  70.7962112  24.2367153  25.0856743  70.3603439  23.8205357  24.3420048
  71.4537277  24.8080559  24.6888428  11.3045969  60.1260681  82.9776840
  11.8751240  59.3952675  82.7396469  10.4177103  59.7852936  82.8613434
  50.3268471  16.8421364  65.7737732  51.2474785  16.6706104  65.5756607
  50.2276917  16.5870972  66.6910248  55.8930206  58.3408394  11.9450645
  56.4854927  57.7658768  11.4606791  56.0123405  59.2012634  11.5429878
  62.4045105  33.0823746  64.2436600  62.7696991  32.2383652  63.9781113
  62.4638023  33.6266899  63.4585266  10.7223864  24.8837776  63.8225060
  10.6570196  24.7845726  64.7723007  10.4551754  25.7879333  63.6571732
  49.6907310  17.5648117  72.5234375  49.7758255  16.6699772  72.1944046
  48.7548447  17.7553673  72.4599457  23.1224689   8.1679335  14.9576578
  22.9345398   7.5820785  14.2243853  22.2734261   8.3061428  15.3774881
  29.5883331  37.2994232  62.0393944  29.3146477  37.6830368  61.2062263
  29.1621857  36.4425697  62.0600281  38.9762993  59.8923874  58.3551445
  38.8211594  59.0290298  58.7382545  38.8387947  59.7660522  57.4163361
  64.9054794   5.5358415  41.4662056  64.9422150   4.6259613  41.7611618
  64.6780014   6.0332704  42.2517319  58.9528694  30.3435307  57.1887550
  57.9987373  30.4030132  57.1405487  59.1745834  29.5958595  56.6337242
  84.1567841  43.7650146  56.4600029  84.8176422  43.9767342  55.8007011
  84.2046051  42.8132591  56.5500412  14.9446373  54.6331482  75.4393311
  15.5089130  55.4061165  75.4208374  14.0679598  54.9804649  75.6037598
   5.7213583   4.8192949  70.8946838   4.7777467   4.6592755  70.8797607
   6.0057168   4.6590652  69.9948502  39.2308922  39.3452339  79.2307892
  38.4716339  38.8233299  78.9712296  39.3730240  39.1204376  80.1502991
  74.2782211   8.8451004  63.1885338  73.6719360   8.9368439  63.9235382
  73.7152863   8.6729498  62.4337540  61.1721497  45.9118729  40.8953171
  60.2344170  46.0588303  41.0189972  61.3668480  45.1430893  41.4313164
  20.4173698  51.8666153  54.2384415  21.2227345  52.3827934  54.2040939
  19.8617764  52.2439423  53.5564079  19.6663799   5.1759748   5.9252210
  20.4050274   5.6877141   6.2550001  20.0542259   4.3450265   5.6507549
  38.5784645  63.3029175  28.8103428  37.6435471  63.1112556  28.7366810
  39.0100975  62.5456009  28.4148769  56.9982491  52.5424118  64.1611557
  57.6119766  53.2767334  64.1797562  56.9281883  52.3122292  63.2346916
  63.7590523  36.9228935  79.3434753  63.9311295  36.4996910  80.1846161
  64.5685196  37.3921051  79.1413879  21.5416126  17.1655731   1.6373125
  21.8779678  17.7662258   2.3023796  21.0461922  16.5131321   2.1324000
  38.8532982  60.9487839  -0.0452679  38.2756691  60.2878304   0.3364626
  39.4306602  61.2061920   0.6735000  26.9711571  16.5500908  77.7221451
  27.4142303  15.8819504  77.1991730  26.1830063  16.7620373  77.2220154
  65.6566467  61.8072586  85.6207733  66.4203873  61.2360802  85.5389786
  65.2272110  61.5190773  86.4262390  52.7623329   3.7060778  85.6411819
  53.1284904   2.8730006  85.3442917  53.4223404   4.0586224  86.2381287
  56.8765411  62.3328056  58.1514473  57.3336067  63.1350136  58.4039993
  57.4595985  61.9141846  57.5181770  28.4534645  59.2736855  83.6210938
  28.8593235  59.0054131  82.7967453  27.6463947  59.7159615  83.3579178
  70.2037430  40.8093567  21.7331944  70.1005859  41.7117577  21.4310875
  70.1240005  40.2804375  20.9393959  47.0747833  33.8253021  38.3097458
  46.7677307  34.0102005  39.1973038  46.2859802  33.8696213  37.7693214
  35.2892075   5.6253524  38.6116600  35.7517204   5.8980007  37.8192101
  34.6007538   6.2807140  38.7246284  51.6439285  16.6203594  29.1669102
  52.3101463  16.9264259  28.5515175  51.9108696  15.7271938  29.3842278
  68.5447311  63.3807526  30.0904179  69.1177292  63.7327080  30.7716179
  68.2056351  64.1540375  29.6395645  55.7595329  62.2539406   2.5602093
  56.0424995  62.8491898   3.2543585  55.2676468  61.5709763   3.0161035
  62.5005913  40.4036331  45.6401825  62.8569374  41.0306549  45.0108185
  62.2166710  39.6623955  45.1052170  64.9449158  31.7948074  10.1595058
  65.8833466  31.6918945  10.0014172  64.5431442  31.0525646   9.7079630
  46.8928337  46.8800163  13.4749699  47.5065079  46.9363441  14.2074041
  47.2787285  47.4335518  12.7960615  83.5359116  13.0471478  16.8687706
  83.9028549  13.0316982  17.7527103  82.6528473  12.6918736  16.9697762
  46.2621002  15.2061510  88.8965607  45.6691170  15.3060455  88.1518326
  47.1059723  14.9846783  88.5027771  76.9363708  65.3851929  77.2631912
  77.5323410  65.2312164  76.5301590  76.0731735  65.4652328  76.8573380
  54.1366577   8.4145117  21.0713539  53.7911873   8.8957281  21.8232269
  55.0752106   8.6024160  21.0774155   2.7096143   5.4503503   1.3900093
   3.4450839   5.9955459   1.1105846   2.4063046   5.8554263   2.2025044
  10.5325794  46.3110008  68.0064468  11.0685883  45.5389023  67.8253708
   9.8256788  45.9863663  68.5642395  17.4203625   3.8309464  34.9045067
  16.7861538   3.4684272  34.2859688  18.2658653   3.7303178  34.4672089
  67.2135162  70.4409561  70.3223572  68.1251450  70.3154678  70.5858459
  67.2372284  71.1901627  69.7270737  52.4309807  46.1665077  25.2348022
  53.1287041  45.7336693  25.7268066  51.6389236  45.6806526  25.4646358
  11.5607281  62.5537415  79.9336472  10.7261324  62.0876808  79.8839798
  12.1113415  62.0005913  80.4877930  36.4245300  26.4826736  14.4714870
  36.1994896  26.0944901  15.3170071  36.9277153  27.2659836  14.6938868
  21.3210831  61.9580269  16.8131580  21.4796753  62.3901215  17.6524277
  20.7799644  62.5773392  16.3233910  85.4510956  23.8994083  76.7320557
  85.7182922  24.5904617  77.3380966  86.1710358  23.2690239  76.7551651
  27.7279892   2.8252580  58.0792999  28.6751423   2.7053125  58.1481743
  27.5341091   2.6744237  57.1541557  54.3564987  10.4948225  71.8928146
  53.5488472  10.9113607  72.1935349  54.8159866  10.2545004  72.6973953
  78.2395859   7.1018920  81.8838806  78.1840744   7.6619744  81.1096344
  78.6387482   6.2921872  81.5656357  33.6541901  22.2385101  76.5947952
  34.1296577  22.9463005  77.0297623  34.0946732  22.1372299  75.7510300
  25.4881630  62.7203102  44.1935272  25.1616783  61.9105492  43.8011894
  24.8909416  62.8913994  44.9217339  32.4797897  33.0009308  82.1139984
  32.7200775  32.3783340  81.4278030  32.3007431  32.4557037  82.8800964
  10.0474033  29.0062504   1.9640346   9.9631376  28.1609516   1.5228988
  10.2469568  28.7831001   2.8732181  38.0235443  61.0278931  11.5375872
  38.5851250  60.5259171  10.9469233  37.7006111  61.7529182  11.0025339
  75.1917496  57.9207039  30.0304909  75.3953857  56.9856758  30.0524120
  74.3841019  57.9780273  29.5199413  83.7217102   6.3979368   3.1032495
  83.8534241   6.2623863   4.0416040  84.5712967   6.7016344   2.7835457
  74.5458984  14.6451292  64.8510284  73.7827988  14.1171541  65.0858765
  75.2295227  14.3612175  65.4578857  55.1351624  26.1067467  71.1607895
  55.5661697  25.5604610  70.5034943  55.4928360  26.9827366  71.0160751
  74.1776581   7.8272648  69.3593140  74.7431183   7.2631016  69.8867645
  74.4854279   7.7027459  68.4615326  59.6508789  24.8106270  37.4635658
  59.9932365  25.0223598  38.3320084  59.6465645  23.8538761  37.4345398
  29.5282536   6.3538795  53.7478943  30.4234924   6.6221838  53.5410347
  29.2646561   5.8078690  53.0072060  73.1628342  36.9427185  22.3578167
  74.0578995  36.6261063  22.4796886  73.0192413  37.5426254  23.0897465
   2.4735806  61.9428368  76.6061478   2.3723590  62.6698265  77.2205276
   1.7986335  62.0929108  75.9442139  62.6022644  47.4305801  32.5925140
  61.8807869  47.9201317  32.1974907  63.3895721  47.7996368  32.1922951
  68.3679123   8.9198580  25.8820705  68.7905350   8.0638037  25.9513092
  68.1627579   9.0111294  24.9515800  44.6401825  33.2884331  58.1938591
  43.7280540  32.9982719  58.2018356  44.6004601  34.1950569  57.8894081
  22.2323914  49.7998695  30.8962765  21.5346222  49.7625618  31.5504608
  21.8318768  49.4535103  30.0988712  60.7998466  57.8729439  13.3875818
  61.5855904  57.7007103  12.8687630  60.5778923  57.0260201  13.7744741
  82.3664398  51.3358421  50.7559433  82.0196686  50.5286636  50.3758774
  83.3168869  51.2276955  50.7216606  59.4922752  65.7029114  83.9179611
  58.6210861  65.3063812  83.9230347  60.0839233  64.9786072  83.7140808
  43.4364357   3.2537589  37.6465034  43.3947487   3.9564505  36.9978752
  43.7407837   2.4912682  37.1543541  49.0373344  69.5776443  52.3422852
  49.6336670  70.2978973  52.5468674  49.0421600  69.0319672  53.1286964
  84.4852905  35.0613861  51.2968674  84.4553757  35.9625053  50.9754257
  83.9054489  34.5778351  50.7084846  49.3556366  36.3044701  12.6775637
  48.5592804  36.4507065  13.1881151  49.4136543  37.0662117  12.1008339
  58.4515610  59.3844109  14.8218889  58.8753777  59.4925652  15.6733065
  59.1420059  59.0457649  14.2519474   8.9974403  41.0682755  23.2547379
   9.1243277  40.7808990  22.3505554   8.3483219  41.7691612  23.1944370
  12.2663984  11.8397989  80.9529648  12.5164289  12.4521027  81.6449203
  11.4239321  12.1664104  80.6370392  28.8390121  24.4121037  84.6645508
  28.3884106  23.5704651  84.7340927  28.5353489  24.7784595  83.8340073
   2.4381344  56.0484123  74.3966293   3.3115501  55.9328690  74.7708359
   2.1911323  55.1755981  74.0909882  63.8362083   7.8524446  14.6459904
  63.1273651   7.2093945  14.6298399  63.9379082   8.0736084  15.5717201
  56.1410294  41.3297081  75.2488556  56.7913933  41.9758797  75.5240250
  55.7336006  41.0377197  76.0643158  66.3102798  14.1773443  62.1432533
  66.3781662  15.0409708  62.5504036  65.4440613  14.1719790  61.7359810
  41.0153008  48.3275299  58.7928391  40.7540169  47.9002266  57.9771347
  41.9661484  48.2221222  58.8245468  49.6730652  11.8163319  57.8741035
  49.3577538  12.3853111  57.1719131  48.8880043  11.3700342  58.1914864
  49.2940102  -0.1606521  72.3973083  49.0681953   0.0875712  71.5008621
  50.0973473   0.3247550  72.5850983  77.1785812  70.1483612  26.3129787
  76.3947296  70.3745117  26.8136368  77.1421127  69.1956100  26.2283363
  15.5328016  59.1487236  41.2998047  15.2018061  59.6340942  42.0555077
  16.4128513  59.4974518  41.1579094   6.6935625  28.2935104  53.2805023
   6.9810133  29.1339798  53.6371727   6.1752214  27.9001064  53.9824905
  49.7566948  27.5732708  83.2666016  49.1206627  26.8598957  83.2137604
  50.1673126  27.4650059  84.1244507  76.3946304  15.4473228  76.6584396
  75.5287247  15.0411386  76.6965866  76.2247009  16.3481312  76.3829422
  76.8384247  14.9768667  72.6382141  76.7611694  14.1460733  73.1073074
  77.6529465  15.3605423  72.9631424  68.1534805   1.8619814  56.1533966
  68.8844376   1.9390674  55.5402107  68.5564346   1.9432557  57.0178375
   6.1184525  47.9586258  40.5542259   6.3559351  48.3048096  41.4144554
   5.4592304  48.5690689  40.2240448  44.6716156  65.5624008   0.3079587
  45.5695839  65.4904633   0.6315507  44.4756966  66.4983368   0.3512302
  63.5591965  39.8342133  22.9582233  64.3325424  39.3052711  23.1541634
  62.9177399  39.5748138  23.6196442   3.9121308  51.0942535   4.5092716
   4.6418386  51.0692024   5.1282473   4.2952056  50.8196259   3.6761656
  78.5143204   4.0328350  65.6719284  79.4507751   3.8357425  65.6508865
  78.1055984   3.3038955  65.2052155  16.8944721  27.1365223   1.6704507
  16.6742382  26.2051220   1.6853476  17.4357548  27.2421665   0.8880929
  17.2464962  50.1207809  87.8367386  18.0354939  49.5833817  87.7666168
  16.5915680  49.5360794  88.2180862  23.7231045  28.1141663  80.0632019
  24.3330097  27.7514572  79.4207916  23.1047649  28.6274776  79.5431976
  61.4449005  46.5964813  20.2277069  61.8417053  45.7729340  19.9438992
  61.9573746  46.8581810  20.9926338   7.7158537   3.4345732  39.2288132
   8.3709230   2.9022810  38.7773895   6.9724832   3.4613423  38.6263885
  83.5306015  21.5977039  77.0578079  83.6960754  22.5153828  77.2739410
  83.7411957  21.1208267  77.8605957  80.8030167   8.6104517  13.5244799
  80.0340347   9.0747738  13.1938658  81.2222672   9.2335854  14.1179142
  80.5497513  34.7511063  42.2750168  81.1556549  35.2983437  41.7753792
  80.9741135  34.6389465  43.1256485  74.9017715  22.4399967  24.5190907
  74.0286560  22.6811180  24.2096386  75.3751297  22.1863499  23.7267361
  -0.1307235  23.0220299  34.4935226  -0.1145711  23.4272060  33.6264572
   0.2656041  22.1606007  34.3627701  81.4057999  46.3919563  22.0169754
  82.3269196  46.5686111  22.2082100  81.0744934  45.9659081  22.8075104
  10.7081156   0.9779080  73.0718079  10.6808815   0.4786688  73.8880539
   9.8217201   0.9064432  72.7176514  74.4808044  65.9596863  76.0158157
  74.0112381  66.2429733  75.2312927  73.7933426  65.6647949  76.6130371
  44.4066658  11.8748665  15.1064301  43.4766273  11.8137751  15.3244276
  44.8301849  11.2393990  15.6835308  47.3667183  47.7782211  57.9796143
  48.1804199  48.0249252  57.5399971  47.2357864  48.4582634  58.6403923
  49.4460907  26.4536762  78.7982101  48.8209152  27.1728592  78.7078552
  49.2192993  25.8489838  78.0917130  69.5632324  28.9045715  51.1024284
  70.1200714  28.7550125  50.3383636  69.8591232  28.2592125  51.7444496
  81.6837006  49.5439911  74.4906387  80.9207687  49.0052681  74.7002487
  81.3556213  50.4429283  74.5131226  25.0430965  21.3196640  45.0479317
  24.7450657  20.6563263  44.4255219  24.3431568  21.3688545  45.6990051
   4.4923482   5.9722490  30.9199066   3.7763419   6.6017485  31.0053272
   4.3125963   5.5150785  30.0983734   8.3847733  14.4861565  13.2718515
   8.2997856  15.1430349  13.9628801   7.9109898  14.8583221  12.5280409
  26.9715672  61.6176300  82.7547455  27.7728291  61.7431602  82.2463684
  26.3712273  61.1797104  82.1513824  16.7887077  45.9937477   4.6464758
  16.7644768  45.4991226   5.4656153  16.0956726  45.6060867   4.1120110
   8.0096798  45.7643166  80.6510010   7.4014688  46.2929840  80.1344528
   8.2278051  45.0259285  80.0822906  38.5224648  64.5149078  46.0878296
  39.2947159  63.9693642  46.2369614  38.2677841  64.8133087  46.9609451
  13.4784956  64.2720032  47.9668083  14.0947714  63.5575829  48.1281662
  12.6177588  63.8883057  48.1345558  22.2233601  16.1438446  63.4081039
  22.1197586  15.2349482  63.6898956  22.8932323  16.1080341  62.7252998
  74.8679886  46.3924408  39.1627998  74.2869568  45.7984238  38.6876373
  74.4123077  47.2341270  39.1502762  61.7975960  45.1861191  70.9372482
  61.9245453  46.1011238  70.6864853  62.6624947  44.8946228  71.2257233
  59.7072678  54.3125267  65.1721878  59.4346619  54.4275513  66.0825043
  59.6548157  55.1901741  64.7937393  76.7728958  60.7738876  20.0102158
  76.7272949  60.7349358  20.9655342  77.5783234  60.3060799  19.7896023
   6.0744424  30.2042732  77.1469269   5.1863470  30.3881874  76.8408356
   6.2579675  30.8980827  77.7803116  68.0122375  36.2161217  46.4814606
  67.6361771  37.0457993  46.7754784  67.3633957  35.5576820  46.7298393
  57.4132614  59.1193504  23.2347145  57.2405548  58.1972542  23.4248333
  56.5557060  59.5405922  23.2928925  53.9572754  54.4055862   7.8969746
  53.1181526  54.5543518   8.3328323  53.7233734  54.1906471   6.9940228
  25.1129436   0.7869660  74.8621521  25.2852154   0.6020743  75.7853928
  25.9688892   0.7151705  74.4397354  37.0224953  42.0632668  76.8769379
  36.7094955  41.6412277  77.6770248  37.1054840  42.9878044  77.1105423
  18.4147434  55.3282661  40.7118225  17.8284721  55.9735756  41.1069031
  18.4775391  55.5920677  39.7938347  19.1566124  48.8059464   1.6632296
  19.6797276  49.4566345   2.1314037  19.4472809  48.8742752   0.7537932
  56.3174744  37.4539604  58.2193756  56.9765396  37.5729828  58.9032631
  56.6160316  38.0099373  57.4996643  66.0744324  28.2237072  37.4679832
  66.0325012  28.0042248  36.5372276  67.0079727  28.3395977  37.6449165
  28.1513042  59.2969093  87.5591736  27.2307682  59.0658531  87.4348297
  28.6108074  58.8362694  86.8571014  60.3263092  36.4284706  56.3363686
  60.1542091  36.1712761  55.4305763  61.0552826  35.8713264  56.6091690
  82.2394791  61.2761993  26.9241409  81.4915619  60.9103661  26.4518909
  82.4925690  62.0450325  26.4131908  45.4040642  42.6738701  73.4701004
  44.9102173  41.8715515  73.6393204  45.7644310  42.9176292  74.3227081
  45.3025970  55.0811386  74.6156998  44.3761597  54.8594742  74.5218582
  45.5125198  55.5738983  73.8223801  30.2686691   9.9406357  14.1220655
  30.4092140   9.7351770  15.0463305  30.4365253   9.1163845  13.6652679
  77.1724548  24.8418350  60.0632477  78.0497665  24.6868916  59.7131882
  76.8225937  23.9663868  60.2288361  28.0485096  40.6712151  73.0712585
  27.5010643  39.8978195  73.2069016  27.5644054  41.1989288  72.4361267
   3.7415729  54.8810043  68.5218735   4.6057138  54.4711761  68.5610275
   3.1384382  54.1963081  68.8110962  48.5965614  33.2556152   7.7173343
  48.5067101  32.4910088   7.1485343  47.7012253  33.4597893   7.9873691
   5.0548301   1.2537670  56.6283913   4.7196727   0.3615506  56.5397873
   5.9744334   1.1413755  56.8690796  27.5676937  18.5768700  64.8689804
  27.4270077  18.7028580  65.8073654  28.2582302  19.2005539  64.6444550
   1.2561693  15.1493521  77.2734833   1.4160179  14.2538605  76.9755325
   0.3345568  15.3086319  77.0697861  71.7593384  20.3515186  76.4890594
  71.2338715  19.9247360  75.8123245  71.4134521  21.2428932  76.5342636
  50.8670120  23.3406639  23.4007339  50.2113380  24.0156574  23.5759716
  50.4834709  22.8096561  22.7027664  57.8734550  28.7676506   1.2863282
  58.3849030  28.9455757   0.4970264  57.9444847  29.5698738   1.8036522
  38.7293777  44.5373192  28.8106480  39.5434685  44.6373100  29.3040924
  38.5858383  43.5916367  28.7744751  64.2275467  58.6838913  64.0462952
  63.5385818  59.3069725  64.2772217  64.0858612  57.9415588  64.6337433
  85.8632660  43.6587372  73.3543015  85.5704651  44.5651131  73.2595291
  86.3896103  43.4940224  72.5719604   5.1798711  64.6890793  12.1605597
   5.0511537  65.5865173  12.4675961   5.7612309  64.7754822  11.4050550
  58.3545265  17.1063366  26.6732998  58.8097115  16.4935875  26.0957375
  57.4740372  16.7417774  26.7630901  34.6894188  66.1016235  49.1385307
  34.5936966  67.0519180  49.0752831  34.8964310  65.9425125  50.0594368
  43.3254128  44.2729645  80.1750717  42.5910263  43.6594200  80.1968613
  43.3648758  44.6308937  81.0619507  62.7962189  37.7545891  11.8098764
  62.0576744  38.1658630  12.2589169  62.9843178  38.3377953  11.0745382
  43.7026291  62.4473610  26.2552795  43.0869865  61.8543549  25.8245144
  43.8422432  63.1501045  25.6205406   1.7111115   3.1796286  51.0012436
   1.7787797   3.7799494  51.7437172   0.9731218   2.6105735  51.2198296
  17.0947056  47.9624557  22.4612045  17.7188015  47.2548752  22.6226559
  17.6412125  48.7274399  22.2813148  78.6958008  48.2356720  29.7180862
  79.4644852  47.8046837  29.3444443  78.1491699  47.5170822  30.0359726
  51.2400017   5.4754205  77.3965607  51.5211296   4.5706415  77.2602768
  51.1236458   5.5499864  78.3437271   0.7981644   8.9677467   7.5088191
   0.2448897   8.8274956   8.2772255   1.6091199   9.3342953   7.8612752
  30.6952915  54.0608025  37.8784142  31.5476837  53.9468422  37.4580879
  30.0604992  53.8964729  37.1810875  15.5122738   2.8732057  60.9389076
  15.0937757   2.4947767  60.1656799  15.4612141   3.8189240  60.8001938
  18.6571293  70.3009033  56.4203835  18.7991848  70.1208420  55.4910698
  18.4803314  69.4429626  56.8062897  53.1286201  15.5217142  10.1003876
  53.9945221  15.2834463  10.4315577  53.2949982  15.8724880   9.2254553
   7.4204659  31.8776855  79.7398605   8.0718260  31.5385799  79.1258774
   7.7194982  32.7645226  79.9406891  83.2068481  69.3155060  48.6823311
  82.8909607  68.5852432  49.2144585  82.4118805  69.7688370  48.4017029
  73.0696411  32.9022293  61.2185860  72.9679565  33.8509827  61.1426926
  72.1947479  32.5531998  61.0483818   8.2587309  47.2626266  48.0615501
   8.2327318  48.0959320  47.5912743   9.1703062  47.1727333  48.3393669
  27.1476269  55.2525711  51.2302399  26.9626446  54.4592628  50.7275734
  26.3791122  55.3664742  51.7893867   6.2914567  60.7554016  25.2144566
   7.1353588  61.1267853  24.9572868   5.7516665  61.5153465  25.4320507
  44.2010574   2.1410863  53.5753326  44.4670334   2.9895766  53.2209969
  44.9952278   1.7902550  53.9783745  61.6404343   4.7062578  35.2367096
  61.0802803   4.5505309  35.9971085  61.1108589   4.4303823  34.4885979
  66.6814804   4.7057014  53.3741684  66.3260345   3.8172779  53.3498077
  67.5143814   4.6433406  52.9066086  37.8563156  55.7369728  85.3601608
  38.1251488  56.4493637  84.7801132  38.6683617  55.2710838  85.5595779
  12.6045656  48.1279602  78.3032532  12.7941141  47.1943970  78.2096329
  13.2167358  48.5577278  77.7059402  71.3151169  46.3443718  65.3722000
  71.8934021  46.5874596  66.0951996  70.7998810  45.6132164  65.7130432
  46.6144104  50.1339645  13.8045473  47.4398460  50.5394669  14.0699787
  46.5354462  49.3622589  14.3653231  23.0141926  63.2610321  35.2273979
  23.1296215  63.7785454  36.0243225  22.9270687  63.9110794  34.5302048
  12.4799423  53.8574333  13.1354275  11.6925430  54.1056709  13.6197958
  12.5495834  52.9109840  13.2603731  57.4001846  69.1188278  35.6782074
  57.8857765  69.0490646  36.5001373  57.2307816  68.2121277  35.4224014
   3.2758183  59.1811676  27.8764153   3.1690426  59.0154076  26.9397430
   4.1497893  59.5638084  27.9538326  26.4340973  52.2056923  78.1547546
  26.2790546  52.4316292  79.0718994  26.5496540  53.0488434  77.7166138
  39.3329620   4.6927309  75.5830841  39.7651520   5.1926737  74.8906250
  39.9333496   3.9703660  75.7673569  18.9458294  62.3369560  69.3174286
  19.0294552  61.4052086  69.5201187  18.0196819  62.4538307  69.1057053
  11.2050982  70.1130524  78.0825119  10.5520639  69.5128326  78.4423904
  12.0263548  69.8509140  78.4985123  20.1957588  17.1610985  68.9232559
  20.2325840  17.5493355  69.7974091  20.0367641  16.2304707  69.0810013
  50.7480049  66.5529938  50.0459328  50.1571121  66.0970459  50.6452599
  50.4205017  67.4521637  50.0245628   2.0493329  27.3779888  65.5743713
   2.2755654  26.8050365  64.8417206   1.3565967  27.9427433  65.2317276
   6.7968564   2.3954108  44.6436119   7.1961980   2.2379391  45.4991570
   7.1889305   3.2154636  44.3435707   9.3248844  58.1214027  73.1479111
   9.7218828  57.8761253  72.3121719  10.0688019  58.2837906  73.7279510
  61.8790855  15.1242466  14.9103861  61.8757515  14.1868277  15.1039486
  61.9603920  15.1718359  13.9578333  13.3602619  17.3245106  78.7553177
  12.6313181  17.6044750  78.2016983  13.3832264  16.3725681  78.6577988
  34.0363579  64.2832413  63.2932701  33.5796509  63.6699638  62.7174721
  34.8570671  63.8413963  63.5110779   1.7623221  47.5507698  23.0021000
   2.4769964  46.9634056  22.7561760   0.9680799  47.0819473  22.7459412
  48.0739441  62.5454521   3.7017188  47.9372330  62.5785637   4.6485267
  48.9334717  62.9454765   3.5696993  62.3973045  67.3077164  73.2172318
  61.7850418  67.5204315  72.5128784  61.8726692  67.3643036  74.0158539
  45.3074875   3.6890967  69.9452209  45.5448875   2.8068664  70.2307739
  45.3919182   3.6631837  68.9921036  46.7264404  46.5704765   1.9132344
  47.2966766  45.8279037   1.7141184  46.5696831  46.9861870   1.0653861
  79.4720306  22.7970409  88.9585190  79.3775635  23.4824982  88.2971115
  79.4847641  21.9812851  88.4579086  52.3952141  19.8840485  63.3303947
  51.7835426  19.3729591  62.8004189  52.5842171  20.6574440  62.7990112
  24.9338570  51.4532700  43.7674904  24.1878967  51.0845337  43.2944069
  24.8021755  51.1775742  44.6746216   4.3972144  51.3342514  11.6613903
   4.6840544  52.2101593  11.4030437   4.9295692  51.1245079  12.4287481
  72.5042877  55.5105400  52.3685150  72.1699219  55.3398018  51.4880142
  73.4533539  55.5670166  52.2575340  83.6544189  16.2906704   4.2542243
  83.8357010  15.4492826   3.8353717  82.7751999  16.5225792   3.9551930
  66.6160660  40.8433609  86.5339127  66.3162460  41.5285645  87.1312637
  67.4980850  40.6295013  86.8381271  10.7911911  16.4282684  15.1638536
  11.1310272  15.6028681  15.5094824  10.1274920  16.6984959  15.7984495
  24.0665321  14.7454519  58.6854935  24.9334183  14.4755621  58.3823433
  23.6842442  15.2060261  57.9385262  40.9744034   6.7213225  82.0428619
  41.6013756   6.6246533  81.3260651  41.4921761   7.0698376  82.7685928
  47.0588989  26.3907757  81.4164200  47.1731224  25.4504204  81.5539551
  46.7129707  26.4624443  80.5267944   4.8255639  69.5176392  83.7388306
   3.9972339  69.6532364  83.2787094   5.4952440  69.7921448  83.1124115
  83.8970566  59.6452827  86.6481323  83.5635910  59.1113510  87.3692093
  83.3693924  60.4433784  86.6771317  86.3733902  67.9133835  14.1091728
  85.9695969  67.9937668  14.9733000  87.1596298  68.4569016  14.1607037
  21.1514206   6.2945628  85.1968384  20.5782776   5.9762626  84.4993973
  21.5560169   7.0823159  84.8335495  85.6654739   3.7921026   9.8837051
  86.5737915   3.8941667  10.1679020  85.7262421   3.3244283   9.0507460
  25.2948761  24.3589306  53.0291519  25.3817711  23.8898048  52.1993294
  24.6047726  25.0026798  52.8692322  60.8824425  36.5137367  73.7111969
  60.3047333  36.9119339  74.3622971  61.7658882  36.6978874  74.0303268
  55.4073029   2.1433022  75.7752609  54.8151283   2.7477961  75.3278809
  55.0274544   1.2782332  75.6216354  59.7212906  42.7587318  54.3632164
  58.9354591  43.1152649  54.7774429  59.4109612  42.3952675  53.5338631
  47.2681541  10.3143024   0.1151269  47.2137909  11.2056170   0.4598505
  46.9977188   9.7580509   0.8456615  50.2435913  55.8348770  71.2979355
  51.1812248  55.6897736  71.1713562  49.8265877  55.3280334  70.6011963
  57.1884193  29.2308750  50.8650513  57.3947449  29.8357487  50.1524582
  56.3598938  29.5528412  51.2201805  24.5918713  60.4210548  42.9898224
  25.0277233  60.2549324  42.1539574  24.6250610  59.5814400  43.4482765
  64.1740341  21.4660435  38.1434288  63.7758484  21.8943996  37.3856773
  64.3853378  20.5843449  37.8365211  74.2859421  23.0275154  88.8127213
  74.8498230  22.3065891  88.5324707  74.8739700  23.6267052  89.2725372
  26.3344193  36.6194801  46.5622597  25.5390282  36.0890694  46.5148544
  27.0246429  36.0465202  46.2282829  31.1802788  40.6306343  54.1966248
  31.7739029  40.4694405  54.9300117  30.9674988  41.5616722  54.2608871
  58.9010658  65.5425644  77.7485046  58.7039986  66.3677673  77.3052979
  59.8239250  65.6158066  77.9918060  43.1627350  45.4530411  43.4692955
  43.4816589  44.8895988  42.7642746  42.2147102  45.3208466  43.4712791
  80.9100723  10.5872183  16.1919727  80.3136215   9.9593372  16.5997047
  80.3368378  11.1863489  15.7137661  67.4543152  26.2878838  89.3847046
  66.5549774  26.3133507  89.0579376  67.9915009  26.1817665  88.5995865
  25.6577854  71.4505768  10.5148239  26.2832565  70.7260818  10.5264664
  26.1654758  72.2099152  10.8009663   6.3501029  16.8576355  70.9572754
   7.0772858  17.3710594  70.6053772   5.6007667  17.4525166  70.9282455
  39.2986450  61.2610626  41.0355835  39.9853783  61.4326172  40.3912277
  39.6327553  61.6403427  41.8484497  63.6607666  66.0668030  36.6876869
  63.0981865  66.2690430  35.9401360  63.7681923  65.1161652  36.6563339
  32.9645271  61.5303612  72.0653992  33.8995056  61.6636467  72.2212219
  32.9221764  60.7447586  71.5201797  78.4485397  41.0221596  75.3384171
  78.5909729  40.5349998  76.1499710  79.3205338  41.1044693  74.9522934
  45.9477615  19.9651566  13.6081543  46.8874931  19.7970085  13.6778679
  45.6195602  19.8648396  14.5017166  16.2888298   2.2356875  20.6531372
  15.3532763   2.2825620  20.8500443  16.5892811   3.1432874  20.7002888
  21.6437473  -0.1443452  84.6015778  22.3613853   0.4241100  84.3221359
  20.8548870   0.3794299  84.4616013   8.9955196  69.1784668  80.0798721
   8.2217035  68.8235855  79.6422653   9.3356247  68.4471817  80.5954132
  55.2056084  63.3722801  55.9695625  55.8090668  62.8495293  56.4975777
  55.6402130  64.2202148  55.8781395  35.6828575  71.2924500  38.5528145
  35.0653648  71.7711487  37.9998360  36.4973793  71.7912521  38.4896469
   7.8851643  59.9156532   0.8296659   8.1891422  60.4976120   0.1331361
   8.6837759  59.6508636   1.2861054  25.1573601  20.9476833  41.6655006
  24.9740810  20.1846848  42.2136536  26.0784550  21.1471691  41.8329048
  51.4183540  52.7357254  71.3554993  50.5303383  52.5078583  71.0802917
  51.8786354  52.9332428  70.5398026  22.1238422   5.1376214  28.3285580
  22.5898056   4.4150419  28.7492561  22.6897144   5.8979039  28.4626846
  67.8266296  50.6375961  66.2930679  67.3180923  50.0991669  65.6866760
  67.8377838  51.5060387  65.8906784  38.8458443  61.7822533  18.8409386
  38.2178307  62.2015190  18.2526836  39.6852798  62.1875038  18.6233311
  75.5636292  25.0817947  83.4144363  75.9625626  24.5648880  84.1143570
  74.7483749  24.6226635  83.2124786   2.0736446  24.8960934  59.1237488
   1.3721479  24.7801418  59.7645988   1.6192043  25.0071831  58.2886581
  79.5462570  37.7228203  86.6697159  80.4761200  37.5645905  86.5067978
  79.2708130  36.9882812  87.2181854   8.3762217  41.2583008  15.5460234
   8.9242783  40.9476242  16.2666798   8.2837105  42.1979408  15.7033310
  64.2238693  70.2729874   2.1069336  63.6422462  70.7314606   1.5005143
  64.9629669  70.8692780   2.2269361   3.7499950  44.7544785   1.5124663
   3.6774127  44.5683136   0.5763534   4.6024909  44.3979301   1.7621800
  84.5349045  29.3189163  80.1026917  84.9450760  28.7722874  79.4324722
  85.0765915  30.1075153  80.1330795  25.6643162   0.8582246   3.4313748
  25.6744995  -0.0509149   3.1320531  25.5385456   0.7972225   4.3783135
  70.2164841  49.8283768  61.1806755  69.4919891  50.4327621  61.3420982
  69.8398819  48.9598198  61.3221436  51.5909348  11.9924965   8.4530239
  51.8259277  11.3979816   9.1654587  50.6596909  11.8299360   8.3027353
  73.3747559  47.4362221   2.9868634  72.5163498  47.0652962   3.1912751
  73.9995651  46.8065071   3.3464470  23.2381153  58.3777504  81.5573196
  22.3806171  58.1829147  81.9354248  23.3667812  59.3115120  81.7239380
  24.5092735  15.4481020  83.6077499  23.9186420  15.0510998  82.9676132
  24.9946480  14.7098045  83.9759369  45.2742500  45.1069489  32.9101143
  45.9334679  44.9521675  33.5866547  45.3858032  44.3808708  32.2964363
  74.9320984  64.2410812  45.9213066  74.6029205  65.0656433  46.2790413
  75.7168961  64.0530319  46.4360428  23.0625973  66.7524338  44.0026932
  23.1423664  67.7061691  44.0186234  23.8046684  66.4413300  44.5211258
  84.3859558  34.5796356   3.0098584  84.3164978  35.5269852   2.8917990
  84.9607849  34.2914162   2.3008220  13.0395746  20.9293385  82.1989746
  12.7848482  20.7697792  83.1077576  12.9545603  20.0763206  81.7731018
  32.6033134  19.8834400  83.6362915  32.2004814  20.7409897  83.5000229
  33.1956978  20.0120811  84.3770752  54.1105804   6.8785181  55.2244415
  54.5134659   6.4555721  55.9827499  53.9609337   7.7813134  55.5051498
  40.5035439  60.1219254  71.7260590  41.2404022  59.7119331  71.2730942
  40.8904228  60.5085640  72.5115967   2.1118882  18.6735573  22.4143867
   2.2477789  19.2363968  23.1766052   2.1480687  17.7834053  22.7644653
   4.6304436  52.7077560  75.4797516   5.4888387  52.6544075  75.0595856
   4.0076537  52.7091980  74.7528687  80.1608276  60.2397881  69.1585236
  79.5068665  60.6532555  68.5949554  80.2713699  59.3620300  68.7930832
   3.7312498   8.5074739  22.2805862   3.0429595   7.9313650  21.9480400
   3.4984686   8.6543427  23.1973591  84.1652145   1.6750114  57.6674118
  83.2802734   1.5588911  58.0132637  84.7347946   1.5836785  58.4312630
  47.8919983  56.8721504  75.5320053  48.5366592  56.1674118  75.5951462
  47.3672180  56.6485558  74.7633438   7.4468431  52.8678322  46.2830200
   6.5368934  52.6281128  46.4584007   7.9289546  52.0436859  46.3507233
  37.6712570   1.6809005   9.3639183  37.5521469   2.5034657   9.8387136
  37.8974571   1.0438062  10.0415449   7.8782916  21.4101334  85.0071793
   8.2246399  21.0583038  85.8272324   7.0937924  20.8892593  84.8354721
   0.8939692  17.9233036  28.3529530   0.1088281  18.4520168  28.2106571
   0.7334656  17.1186581  27.8599873  85.9799042  53.3190994  57.8746567
  85.9877625  52.6848831  58.5915565  86.6630402  53.9489403  58.1045723
   6.6225772  32.4701881  39.3143005   7.0824380  32.3849258  38.4791412
   7.1491847  31.9613266  39.9307213  25.0769482  13.2081938  75.1943512
  25.6905785  13.3622580  75.9126511  25.4670296  13.6587477  74.4453049
  64.1138535   3.7872813  19.5911827  64.9166412   3.4331796  19.9737720
  63.8628082   3.1466331  18.9257660  72.3387146  23.1506119   3.0496469
  71.9932632  23.7392025   2.3784847  73.1391907  23.5781059   3.3541279
   9.2666216  48.7805595  58.8783302   9.2657661  48.3334160  59.7246704
   8.8435650  49.6215820  59.0513496  62.2158508   9.5014477  63.8798637
  62.8445206   9.5278320  63.1585388  62.4840393  10.2159815  64.4575729
  33.8094864   2.0969605  48.0051460  33.7270432   1.3513193  47.4106255
  34.4256516   1.8017725  48.6755486  69.1993713  28.9631310  80.6955185
  69.7285004  29.7419815  80.8676987  69.2393188  28.8516140  79.7456818
  65.5625534  38.0672150  50.2746696  65.5601120  38.0740738  51.2318420
  64.7309952  37.6576233  50.0359688  63.9602966  29.7006416  61.5736427
  64.2623672  30.5745487  61.3261032  64.6921463  29.1235466  61.3554993
  40.7788811  58.5939636  10.6227732  41.5271606  58.2051010  10.1698961
  40.4258080  59.2293816  10.0000267  61.2872925  49.2122192   6.9219437
  61.0506172  49.4535179   7.8174829  61.4528427  50.0474434   6.4846468
  26.0456791  49.1116753  86.3800964  26.8100567  49.2471886  85.8200989
  25.8501644  49.9798164  86.7327042  73.2780075  41.5833778  65.4803696
  73.1010208  42.4514122  65.8429031  72.5350723  41.0498962  65.7626343
   4.6325550  26.9812469  40.6653633   4.7593884  26.9626923  39.7167854
   4.4179106  27.8934288  40.8605118  59.4143715  50.9050827  75.5109100
  58.6932526  51.4547119  75.8177109  58.9853821  50.1601181  75.0899277
  26.5969257  66.7879868  84.5771713  26.0982113  67.5717545  84.3464508
  27.2435246  66.7007446  83.8767929  80.7391205  24.7342873  32.7010803
  80.6112442  24.6724758  33.6476822  80.6505508  25.6675911  32.5078659
  69.7618942  68.1828003  77.5015335  69.7645111  67.3469238  77.9679337
  69.0659943  68.0917130  76.8506393  55.5378609  31.7711868  81.1313400
  54.6604767  32.1426125  81.0393219  55.8277054  31.6158962  80.2323914
   1.4668021  36.2580452  15.0826130   1.7907414  36.5482254  15.9353094
   1.4027598  35.3062935  15.1619663  -0.1193492  31.0166168  18.4652081
   0.6108843  31.5137711  18.0966606  -0.1074216  30.1857414  17.9900894
  20.2745628  50.3716125  20.1898537  21.0389004  50.6458244  20.6966381
  20.2278423  50.9990196  19.4684601  44.0752106  68.0297089   8.4060440
  43.6024132  67.3286514   7.9574776  44.1706276  67.7167969   9.3056087
  28.3182697  58.9767456  66.6764526  28.7735996  59.5817680  66.0909195
  27.3897591  59.1667213  66.5422592   1.4611769   6.9119387  22.6586151
   0.8551024   6.8232903  21.9230556   1.1883681   7.7173810  23.0980110
  65.0905151  26.6237202  21.8418636  65.0092239  27.5742321  21.9203033
  64.8025360  26.4315376  20.9494686  51.0388603  54.0365028  79.3692551
  50.4996719  53.9000359  80.1482849  51.3800430  54.9254951  79.4668350
  52.2321472  48.0398941  57.5067978  52.5387726  48.8780212  57.8528519
  52.9216156  47.7633553  56.9031487  37.5541801  52.1974564  71.5829468
  37.0720024  52.9585304  71.2596817  38.0235100  52.5203018  72.3521881
  39.2318611  53.0690575   8.5276737  38.9845314  52.5272827   7.7783132
  39.1363373  53.9686165   8.2147827  52.3084564  49.3421059  72.0556030
  52.6575089  49.6881027  72.8769913  52.7468872  48.4983597  71.9455948
  49.2880058  66.1931915  77.5787048  48.7955589  65.4679489  77.1943359
  49.6817741  66.6393051  76.8289337  47.2686348  47.4327354   4.4201245
  47.5830650  48.2878075   4.1264973  46.9821472  46.9947510   3.6186724
  30.6791306  46.8608818  60.0459938  31.1400089  46.8142662  59.2083511
  30.4947052  45.9484711  60.2689972  45.8097229  17.1814518  17.2014542
  45.4316559  17.4750004  18.0303860  45.1311455  16.6312599  16.8102283
  18.6430035  56.3153343  38.1985207  17.9746132  56.8321152  37.7486076
  19.4452553  56.8293190  38.1066399  84.3977890  44.9636536  76.9169769
  83.6237869  45.5006943  76.7474670  84.0818939  44.0621567  76.8557663
  79.2508240   0.9938560  34.9617386  79.6138687   0.9591376  35.8467407
  79.1276474   1.9274027  34.7898407  74.1446152  20.5639706  14.6395092
  74.7717361  20.1917000  14.0195370  73.2922440  20.2548275  14.3327274
  30.8739643  67.8860626  25.9715405  31.2709122  67.3555527  26.6623516
  31.2416267  67.5363998  25.1598816  20.1983929  60.5017967  80.4680939
  19.4754505  61.0344467  80.7995605  20.9303799  60.7017822  81.0515594
  13.9442987  47.4357491  55.5322685  13.4802084  46.6025352  55.4509811
  14.4250174  47.3627090  56.3567734  84.2697754  41.2542763  27.7463379
  83.3713074  41.4770393  27.9899635  84.5077362  40.5393105  28.3366203
  22.4313164  31.3166218  51.3781891  21.8203907  31.7108459  52.0007553
  23.2402039  31.8167057  51.4870338  35.7827187   7.4620738   9.8195782
  35.3842049   7.4854779   8.9495945  36.6109200   7.9307499   9.7163343
  48.3822250  11.3716860  77.5250244  48.2443886  10.4340754  77.6596298
  48.8808556  11.4258547  76.7097549  62.2120285  14.3527002  64.4308853
  61.8704605  15.1474257  64.8407288  61.6270943  14.1950054  63.6897926
  21.8029385  27.1777134  81.8995590  21.2862206  27.9824734  81.8595886
  22.3086758  27.1771965  81.0868683  51.0736313   3.2269359  74.6018143
  50.2069550   3.1088166  74.9906006  51.0336304   2.7441266  73.7762680
  67.8873444  60.2804680  31.1267147  68.1548996  59.9827080  31.9961891
  66.9696960  60.5318222  31.2314949  25.9560547  70.1583252   1.7960594
  25.1123428  70.4221039   1.4289018  25.9241314  69.2017136   1.8065768
  36.3654022  46.9953194  20.2547989  35.7061806  47.2708855  19.6178341
  36.3049850  46.0400734  20.2639923  14.4357510  53.3510132  49.6708183
  14.4273920  54.0403290  49.0067368  14.0401506  53.7567978  50.4422264
  73.5559311  13.5727062   2.6119967  73.8697128  12.6737986   2.7106800
  73.5326080  13.9175997   3.5045977  49.7266197   5.5169735  29.4472256
  49.1099892   5.3433566  30.1584587  49.5157776   6.4050188  29.1588631
  48.0928078  11.5338888  37.6749763  47.5234680  10.7798615  37.5215950
  48.4603271  11.7354784  36.8144379   3.7725875   7.9914327  41.9688606
   3.5696914   8.7380667  42.5324249   4.1383367   7.3356676  42.5625191
  67.9359589  17.5545864  11.4811831  67.5240479  17.4266586  10.6266689
  68.1715927  16.6722832  11.7679787  34.9696846  62.6334496  23.7670345
  34.8313522  62.4074287  22.8472462  34.0873795  62.7086487  24.1305065
  36.9119720  19.7494450  87.3589783  37.5126114  19.1236801  87.7638016
  37.1969299  19.7990379  86.4465256  51.2372055  46.0017853  38.2550926
  51.4882355  45.0784531  38.2292175  50.3659439  46.0021019  38.6514969
  55.9270706  21.9778175  85.6118240  55.7099953  22.7976189  85.1679306
  55.6188850  21.2943478  85.0167389  44.3141594  24.4754314  86.9388428
  44.1860504  25.4236164  86.9111938  45.0088806  24.3463345  87.5845413
  43.3750610  28.1974163  31.9777870  43.8002739  29.0492935  31.8791428
  42.7964706  28.3045197  32.7327652  68.9592743  40.5805702  78.3383713
  69.6825256  40.2941246  78.8961258  69.2417831  40.3640594  77.4498062
  28.2056122  43.0301247  55.8459244  27.4706974  42.8609161  55.2564316
  28.9826736  42.8357773  55.3218689  11.3797016   3.2750249   4.8603439
  11.2289791   4.2137198   4.9715495  12.2493620   3.2173095   4.4646258
  49.7361374  23.6916161   3.9526546  50.4770966  23.4272232   4.4979119
  49.6598625  24.6353264   4.0934477  53.0832901  37.5046844  64.7101822
  53.7130432  37.2976265  64.0196991  53.5261993  38.1595840  65.2497787
  82.7481613  61.9033546  36.4175568  82.1734085  61.6037560  37.1219215
  82.3823700  62.7472801  36.1525574  19.6928520  42.5842819   1.3229890
  19.5546875  43.2322502   2.0138445  20.2170162  43.0425682   0.6661334
  55.8572845  13.2567196  38.1778488  55.0143738  13.0359125  38.5740471
  56.4034691  13.5314884  38.9143410  74.4620209   7.6817393  17.1712608
  74.8229599   8.1890211  17.8983212  75.2295914   7.3305268  16.7199230
  43.0583038  70.0772781  65.9528275  43.2169762  70.8076477  66.5508423
  42.5030899  70.4463730  65.2659988  29.4148827  40.6710320  57.1588745
  28.8115902  39.9432678  57.0084419  28.9260120  41.4476051  56.8865318
  77.2279663  15.6167746  10.7782106  76.6636658  15.3997364  11.5202942
  76.7647400  15.2701616  10.0156422  64.8708344   7.9138231   9.0441589
  64.1321182   8.1922960   9.5854340  64.4671631   7.5609603   8.2512121
   8.6539526  68.1196671  32.1518974   8.5942860  67.1643295  32.1492386
   9.5932589  68.3008881  32.1849861  22.2815323  55.0578613  63.7935448
  21.5119934  55.4315910  64.2229309  22.1251698  54.1135521  63.8013000
  66.3273697  48.6413879  81.8156891  66.9114990  49.1750298  81.2769394
  65.8092041  48.1418762  81.1846466  23.5688457  36.8476067  74.7505112
  22.6634579  37.0177345  74.4905853  24.0732384  37.5454369  74.3323593
  38.4892654   1.4744273  28.0892220  37.6541214   1.8938566  27.8822365
  38.6667747   1.7282352  28.9949284  22.1470108  27.0002842  71.5008698
  22.1448307  27.9392776  71.3150787  21.8804970  26.5924854  70.6769104
  47.1770058  30.6361523  66.7626114  48.1210670  30.5097504  66.6677170
  47.0638313  30.9248123  67.6682053  77.8060913  69.4072418  11.4825411
  77.4160614  68.5491333  11.6491375  78.4519958  69.2472458  10.7944670
  11.8818989  51.1896782  65.9926529  11.6975183  51.9145775  66.5899429
  12.2259912  50.4966354  66.5561447  13.8714771   6.9263940  49.1192703
  13.4265289   6.4373069  49.8114014  14.7490358   7.0874095  49.4659653
  57.2304840  36.4610634  20.6658745  56.8979416  35.7491875  20.1191807
  58.1462555  36.5563469  20.4041138  73.8783951  48.5922508  26.9561691
  74.6289368  49.1713257  26.8235340  73.1839294  49.1692390  27.2740288
   9.6932726  44.4144478  18.4258728   9.4628277  44.3584099  17.4985180
   9.7376137  45.3536301  18.6053219  78.8604965  71.7728271  77.1536636
  79.1881332  70.9264526  76.8494797  79.1699829  71.8388367  78.0570450
  60.2773895  16.7933006  33.5440598  60.9441185  16.3046322  34.0266685
  59.9016800  17.3895473  34.1917953  36.9888420  58.7599335  72.6568146
  36.3468590  58.5003281  73.3176422  37.1734314  57.9549217  72.1729584
  48.1142654  43.5057411  38.2423744  48.5356750  42.6597214  38.0910606
  47.3936081  43.3106308  38.8413887  60.4299355  53.7998161  50.7435074
  60.6322365  53.3833961  49.9057121  61.0626678  53.4250374  51.3562202
  16.1480446  69.0541077  49.7157402  16.7333584  68.3099518  49.8567009
  16.7069035  69.7286682  49.3298950  43.7090111  10.4785528   4.2126598
  42.8129158  10.7743921   4.3730464  43.9010506   9.8896561   4.9424224
  17.6332493  49.7971382  12.3593273  17.0412369  49.1405258  12.7262230
  17.8363152  49.4729271  11.4818983  83.7159882  21.3472195  27.7982941
  83.2891235  20.8388939  27.1086369  83.0523148  21.4258137  28.4835663
  27.2813416   9.9200878  84.0693588  27.1985760   8.9686756  84.0045624
  26.3969307  10.2489519  83.9084244  30.1700821  64.7959824  54.2605324
  29.4260578  65.0518799  54.8056755  30.4181824  63.9302902  54.5849571
  67.0816040  28.1010761  77.0812073  66.3200760  27.5239677  77.0241165
  67.7905655  27.6030827  76.6742477  85.0999680  16.5374584  63.4492493
  84.3882523  16.5671520  64.0886307  85.3756485  17.4492626  63.3552055
  79.4625931   1.5653020  48.6969986  80.4044037   1.3968668  48.7262955
  79.3807449   2.5009131  48.8818359  18.1014614  14.8159542  60.9752884
  18.4754906  15.2993822  61.7119255  18.6302452  14.0201406  60.9178352
  27.7298679  37.5146599  19.6446819  28.1224556  36.7931442  20.1361294
  28.4732418  38.0561752  19.3793678  53.2794418  58.3954926  12.8269701
  53.0845108  57.5710640  13.2725649  54.1360092  58.2533035  12.4241028
  62.0427513  24.7295170  80.1540985  61.8652458  24.3380566  79.2988281
  62.9659691  24.5374508  80.3184509  33.9279137   8.1983891  78.6278992
  34.6961594   8.1167002  78.0627823  33.7948036   9.1421661  78.7162018
  74.5122910   4.6478491  26.4828110  74.3165512   3.7911315  26.8622208
  75.4610062   4.7382903  26.5722256  47.2758102  51.9811172  23.3369827
  46.6348190  52.4909401  23.8324051  47.4269485  51.2017670  23.8717728
   1.9936188  47.6105270  88.1365814   2.3877151  47.4723778  88.9978790
   2.7351320  47.6115685  87.5312805  24.4550247   3.9430971  20.1594696
  23.8399563   3.2132664  20.0868759  23.9447002   4.7124467  19.9066792
   6.2790589   0.6796366  78.9202881   5.4610305   0.9247866  79.3526764
   6.0934596   0.7731535  77.9859161  54.5697098  54.2591591  76.5385818
  55.1094246  54.5031433  75.7866440  54.5573807  53.3021469  76.5241013
  66.4819412  59.3804016   0.5395749  67.0488052  58.6522789   0.2851476
  65.6388016  58.9709854   0.7338113  19.7041836  62.0382996  72.8435287
  19.9828129  62.4107590  72.0069427  20.4755497  61.5731850  73.1674042
  40.1195412  66.5451202  65.1016846  40.9635315  66.1150589  64.9639893
  39.5297890  66.1202393  64.4788742  43.2438126  30.4224052  14.0706272
  43.0849266  31.2673073  13.6497622  42.7887421  29.7890396  13.5156574
   1.8408678  25.0918064  82.2186737   1.9586338  25.0983086  83.1685791
   2.7159250  25.2571163  81.8677063  39.8746719  44.3351326  76.1008606
  39.9953918  43.5974922  76.6988068  39.3296928  43.9853401  75.3959656
  67.4836960  30.3654461  -0.0455454  67.3487091  31.1915894  -0.5097618
  67.3143387  30.5762196   0.8726722  45.6683350   3.9018662  67.4506683
  45.8872414   4.8312235  67.3827896  44.8232689   3.8219194  67.0082855
  41.8561287  46.5434113   5.2636223  41.0702515  46.9678993   4.9194765
  42.5445404  46.7712402   4.6387873  46.4704094  19.6959343   9.5155201
  46.6899948  20.4689274   8.9954262  47.1362572  19.0505219   9.2782011
  47.7721558  38.1118240  44.1529808  48.7154732  37.9506454  44.1327248
  47.4698753  37.8753052  43.2761002  83.6540909  63.8427811  13.6086845
  84.3100281  64.3331680  13.1132097  84.1492691  63.4246178  14.3130760
  70.2320251  18.1606064  31.5588665  69.9032745  18.5200729  30.7348862
  69.7204514  18.6048527  32.2350121  43.0061760  28.2395096  17.8516273
  42.5572853  27.7204342  17.1843262  43.3094521  29.0184536  17.3852577
  49.5116158  14.3856049  18.6065006  48.7666664  14.2939367  18.0124683
  49.2315865  13.9490128  19.4109879  17.4013500  11.0311041  72.1792145
  17.1188908  10.7474098  73.0486832  17.6243038  11.9554138  72.2895584
  53.4998322  51.9190216  79.0522079  53.5068169  52.5903549  79.7344742
  53.1031723  52.3506660  78.2955170   9.4655285  59.0180435  35.4509468
  10.2530956  59.1589127  35.9764252   9.2114162  58.1143036  35.6377869
   6.0737319  29.7197781  26.7867908   6.8299046  29.2400703  27.1248951
   6.3962388  30.1466331  25.9930553  83.3097687   1.8832238  50.8574448
  83.6302872   2.5960832  51.4100075  84.0165100   1.2377098  50.8653603
  69.0650864  41.3689957  70.9851608  69.3493423  41.6638222  70.1199951
  68.1139297  41.2912560  70.9111481  79.9999466  49.5481911  48.3250885
  80.2775803  50.4472313  48.5007935  80.1875153  49.0766449  49.1366882
  30.6317253  47.4964638  80.8275986  31.5853348  47.5053673  80.7452545
  30.3705750  48.4063721  80.6858444  83.2086563  13.4021082  54.7174568
  84.0805206  13.1786203  54.3916779  82.6726837  12.6360121  54.5123520
  51.7496147  56.6927910   2.4403861  52.1710854  56.8581772   1.5970331
  51.4412689  55.7885780   2.3808124  83.2677841  58.3945961  12.7908640
  83.8444443  57.8437004  13.3202105  82.8589554  57.7888260  12.1726999
  27.9253254  54.1038513   2.9452837  27.2244625  53.8604813   2.3404756
  27.6350765  54.9320793   3.3274205  71.7298889  61.2807388  43.8821907
  70.9197769  60.9514656  43.4929161  72.2218628  61.6396599  43.1437035
   0.7315397  19.4342632  18.5471458  -0.0437718  19.0336304  18.1539307
   0.5951899  20.3756142  18.4399223  15.2178917  70.0898132  10.0685568
  14.5679264  70.2333527   9.3806801  14.7340822  70.2145386  10.8850155
   8.3169184  47.9091721  84.9232559   8.9307680  47.2917213  84.5255432
   8.4370518  47.7928352  85.8657303  69.3746262  56.0553513  31.0106621
  69.6228333  55.6069298  31.8190823  68.4185486  56.0112877  30.9961720
  81.6117477  53.0549965  84.1863022  82.1744308  52.4990044  84.7252731
  82.2015305  53.4304771  83.5325394  12.0913677  45.3835640  40.2677689
  12.7046223  45.8607750  39.7088242  12.3737526  45.5851593  41.1598740
   5.6802073   4.3301749  74.8808441   6.3273749   4.2875557  74.1768646
   5.8406773   5.1741672  75.3029327  22.3634624  53.9157333  55.0592346
  23.3058243  54.0785446  55.0183144  21.9698467  54.6800995  54.6384735
  15.9197903  54.3446503   8.8386660  15.3674498  54.7041855   9.5328455
  15.5410547  53.4856148   8.6519737  61.5247154  16.5399399  73.0250397
  62.1280861  15.8002596  72.9539795  61.5088387  16.9212704  72.1472244
  46.0346985  25.4375248  10.9580746  45.2756042  25.9230042  11.2810535
  45.7866592  25.1652241  10.0745811  63.5984840  42.1719971   6.7857866
  64.5089798  42.1314697   7.0783467  63.2289963  42.9196320   7.2556286
  65.1036530  22.4391174  16.5648708  64.7570572  22.4081554  17.4565792
  64.3707047  22.1654930  16.0133781  57.6605225   8.1147041  74.2216034
  58.2905922   7.5413656  74.6580963  57.2118759   7.5455050  73.5963364
  80.9439163  20.5538750   9.6691322  81.0429993  20.2619095   8.7629480
  80.6996613  21.4766579   9.5981064  27.4847050  29.5241966  78.5590210
  27.2623844  30.2774696  79.1061783  27.6190872  29.8934956  77.6862106
  72.9184113  59.9570045  31.0897026  73.1105347  60.7450256  30.5814323
  71.9677887  59.8608284  31.0323181  45.1097908  21.6398983  65.8780746
  45.6386566  21.9998131  66.5901108  44.7947693  22.4080982  65.4017715
  31.9436607  52.8308754  -0.0579539  31.8230457  51.9838181   0.3712070
  32.6929359  53.2223167   0.3910332  84.6249466  45.1471672  37.2741394
  85.0850906  45.4122772  36.4777641  84.0454102  44.4396629  36.9916382
  52.0045090  42.1582756  88.2617874  51.6944542  42.3229675  89.1522827
  52.9588280  42.1813774  88.3323441  28.2383575  52.6705055  53.9999619
  29.1145210  52.4532204  54.3183327  28.1203594  53.5913582  54.2330627
  42.2953835  69.4330978  49.7814407  43.0373154  68.8629684  49.9832306
  41.6173286  69.1736298  50.4052620  67.8974304  50.4098549  48.8277550
  67.5144958  51.1409721  48.3429260  67.7684479  49.6512184  48.2584877
  45.5592957  71.2726974  75.9591599  46.1551590  71.3348770  75.2126312
  46.1106567  70.9713211  76.6812439  33.5932274  58.4101143  86.1307678
  34.5310440  58.5419388  85.9916382  33.4830017  57.4592896  86.1346817
  65.4081573  69.0395737  55.5240173  65.0731125  68.1521149  55.3959732
  66.3481064  68.9669571  55.3583260  85.0088348   5.0653052  41.1873512
  85.6170883   4.6021748  41.7633400  85.0558777   5.9776173  41.4731903
  51.7455597  36.4028130  19.8136692  51.4854851  35.8063850  20.5157127
  51.6364899  37.2765694  20.1890125  21.0913811  24.3802280  44.0898285
  20.4275665  24.9793777  43.7483559  21.5765324  24.0940208  43.3159103
  34.4415359  67.2976685  67.1601639  33.5494804  67.2319565  67.5009766
  34.9711304  67.5388336  67.9201660  56.0925102  67.9098663  75.6226196
  56.0931435  67.4586411  74.7784500  55.1804199  67.8769150  75.9111252
  42.1862297  21.6073914  77.2479935  41.9958153  22.1972408  76.5185776
  41.5612488  20.8897247  77.1451035  54.5806732  20.2760220  77.2221298
  55.1736603  20.4547482  76.4922943  54.6994095  19.3438797  77.4044571
  11.9610395   6.5655966   1.5723743  11.5419540   7.3638520   1.8939139
  12.1547785   6.7502890   0.6533607  35.8382568  14.5740519  13.3024588
  36.7828255  14.4196014  13.2893181  35.4709473  13.7791691  13.6890802
   2.4938424  26.9761391  24.9141579   3.0789411  26.5019875  25.5049820
   2.7315211  27.8962059  25.0291233  53.3977089  25.8589344   6.7309828
  54.3485451  25.7915039   6.8181157  53.2664299  26.4571152   5.9953356
  23.8757172   5.8850489  86.2058029  24.1803455   5.0279570  86.5038376
  22.9968853   5.7212143  85.8636856  35.3585739  19.6255932  15.2164440
  36.3059120  19.7475567  15.2789669  35.2489929  18.9286041  14.5695829
  14.3597794  64.2259064  54.0876732  14.8333883  63.9394188  54.8686028
  13.4392824  64.0608139  54.2917862   8.6822290  43.6672134  62.9882545
   8.2202406  42.8456345  62.8214912   8.5836678  43.8106346  63.9295006
  61.8972130  46.0488701  55.7080688  61.0388145  45.7127342  55.9657478
  61.7096329  46.6714287  55.0055962  41.2942886  24.6432400  62.1232147
  41.8014984  24.7776890  61.3226547  41.7676811  25.1373901  62.7925072
  55.8566475   5.8286657   0.2905184  55.2373695   5.0994372   0.2597091
  55.3097038   6.6106787   0.2161002  67.0648041  57.2237206  25.0508537
  67.6532211  56.4998894  24.8362160  67.4816360  57.6587524  25.7946453
  26.9488430  32.8345299  -0.2500418  27.0146122  32.1375694   0.4027609
  26.2968025  33.4370728   0.1077570  38.7126694   8.8218727  42.0034332
  39.1095772   8.9215517  42.8687439  38.6395340   7.8753471  41.8810692
  64.2028656  50.9113731  20.7348042  64.1262283  51.5834541  20.0575562
  63.3061371  50.6057053  20.8714561  14.4409323  33.2832870  82.0509262
  14.1116219  33.9643402  82.6373978  15.1618509  33.7010040  81.5797348
   0.1884100   1.2525731   7.4514761   0.4197057   0.3237383   7.4515572
   0.9746128   1.6951491   7.1317205  57.5510025  16.3605690  70.7879562
  57.2270508  16.6413784  71.6437759  57.1875458  15.4828844  70.6704788
  84.7338791  55.1105957  33.1189499  85.1817093  54.8048935  32.3301392
  84.7625580  56.0652847  33.0558891  61.1678848  61.6914139  40.6191521
  61.3481522  60.7528725  40.6727638  60.9153671  61.9380112  41.5089035
  31.2977886  63.2409973  32.3665962  31.0316238  62.7126503  33.1190834
  31.8784523  63.9069061  32.7348747  47.0964546  14.4497919  62.4087486
  47.7685776  13.9061003  62.8196983  47.1301727  15.2766905  62.8897209
  74.7373276  70.6211472  67.5195770  75.2415924  71.3921814  67.2598648
  74.8847275  70.5449448  68.4622803  27.4063377   4.7961731  30.2220745
  28.3031712   5.1067114  30.0976334  27.5050564   3.9382622  30.6349621
  51.0178719  53.3257790  61.7172241  50.3587112  53.9992561  61.5493813
  51.6667061  53.4476662  61.0241241  76.2868347  10.3281908  35.7188148
  77.1211090  10.4716177  35.2719994  76.4884033   9.6904497  36.4035683
  15.9514360  41.9991989  41.1096153  16.5884380  41.9551659  40.3965111
  15.1199417  42.1921005  40.6764450  66.5239716  17.5416870  20.1310940
  67.4768143  17.5092239  20.2163296  66.3525772  17.2352219  19.2406254
  22.8475437  65.7317352  57.5319786  23.6531219  65.9989853  57.0894241
  22.1779957  66.3232956  57.1884766  80.7093735   6.8097095  71.6441345
  80.3168106   6.5678687  72.4829636  81.5587540   6.3683739  71.6410828
  49.6317177  10.4851913   7.1257892  48.7393036  10.1407871   7.0909376
  49.8142662  10.7685070   6.2298875  64.0633240  10.0885544  89.4103470
  63.6645164   9.4077024  88.8684769  64.5074615  10.6621342  88.7858658
  19.3358707  68.8451843  88.4474335  20.0399704  68.6838226  87.8193893
  19.6326237  68.4230270  89.2536316  14.2868662  53.1456795  33.7287254
  15.2383232  53.1325569  33.6248627  14.1089668  53.9573936  34.2038116
  74.1519470  63.4280853  49.1880226  75.0497665  63.7210274  49.0320320
  74.1270447  63.2190323  50.1217842   2.3088386  23.8088379   4.2150345
   1.9149176  23.9112606   3.3486817   2.0319576  22.9388885   4.5027084
  53.2687416   6.2046924  65.2100296  53.5155067   7.0239553  65.6391525
  52.4613991   6.4140453  64.7403488  32.0030861  45.6471672  62.5634384
  31.0586472  45.4947815  62.5957756  32.0923882  46.6001472  62.5727692
  49.5423965  16.5763493   6.0729470  49.2854500  17.0762215   6.8477626
  50.4871750  16.7128582   6.0022964  61.6089325  14.9660740  11.1883907
  62.1346512  14.4278994  10.5965977  62.0442200  15.8185730  11.1872206
  36.0861740   0.5234689  88.2831802  35.3743019   1.0791267  88.6005402
  35.7921028   0.2258420  87.4222641  83.5683289   2.2534847  78.0088882
  83.6247177   3.0597658  78.5216904  83.1478577   2.5187752  77.1909332
  55.0577698  48.7948952  43.2683182  54.9979935  49.5857048  42.7323341
  54.9886475  49.1104584  44.1693573  12.0288048  60.4035416  86.7442932
  12.1769915  59.5378571  86.3636856  12.0372486  60.9992218  85.9950790
   0.4118492   6.2812319  29.0550690   0.3512713   6.8600731  28.2951317
   1.2396690   6.5196199  29.4723434  36.2413445  68.0634079  64.9397736
  37.1330338  68.1293640  65.2814865  35.7208519  67.7633896  65.6849594
  39.9155159  17.1767273  65.9154434  40.2417336  16.2769985  65.9327698
  39.4158287  17.2659950  66.7269669  73.7527390  22.3476410   9.5356436
  74.4682083  21.7655621   9.7916021  73.3674164  21.9293251   8.7657270
  21.8166981  13.4793968   1.3280591  21.9711418  13.9543695   0.5114931
  21.0997887  13.9537134   1.7491229  22.6928730  51.3887787  85.4250793
  22.0702629  51.1160965  84.7511139  22.1482105  51.5969086  86.1841965
  85.9245300  25.3722897  18.9443645  85.0351334  25.7260742  18.9381161
  85.8883743  24.6443195  19.5648346   6.6805544  26.6409969  75.7189865
   7.1054668  25.7969704  75.8716278   6.0760374  26.4773731  74.9950943
  41.2122345  70.0067825  33.6958389  41.6995201  70.6204681  33.1461296
  40.3677330  70.4334869  33.8406563  37.0546799  65.4833298  75.4196854
  36.9561653  64.6047134  75.0528641  36.5747528  66.0501633  74.8158646
  22.9616871  30.7352791   1.0121242  22.9162655  31.4500523   0.3770913
  23.7871609  30.2923508   0.8155552  74.7951508   0.8804438  64.1700897
  74.0810394   1.5021065  64.3108444  74.3655930   0.0948529  63.8316231
  82.2665939  52.3959351   9.5487900  81.4246902  52.0813446   9.8781338
  82.4084244  51.9005966   8.7420959   5.0271745  60.5509109   5.7146177
   4.5009394  59.7532883   5.7703328   5.7955098  60.3692322   6.2558060
  58.7584915  40.8047905  77.4993591  58.0685577  40.3897057  78.0169754
  58.8859558  41.6592445  77.9115372  18.4389095  54.2957649  29.0002899
  17.9185734  55.0659180  29.2290859  17.7915173  53.6272354  28.7762737
  78.9459610  30.8902264  30.0165348  78.9572372  29.9376202  30.1095161
  79.8428116  31.1175613  29.7711544  57.1758575  29.3237476  35.1848145
  57.9902267  29.3741856  35.6853027  57.0557823  28.3891792  35.0163040
  39.4504929  11.8623953  66.1721039  38.7814484  12.0002022  65.5015717
  40.2765579  11.8564548  65.6885681  37.7225723  23.5472183   3.1699753
  37.5841217  23.6601696   4.1103511  36.8969078  23.8224945   2.7715557
  41.2982483  11.7314520   4.7590489  40.5062599  11.9099579   4.2519765
  41.1566696  12.1828089   5.5911937  48.3006248  60.9576836  85.2314758
  48.1774864  60.9308548  84.2826080  48.0989761  60.0689926  85.5243912
  29.9173717   5.4785290  69.4010162  29.4793835   5.0307112  70.1247940
  29.5989895   5.0329905  68.6159286  11.9846535  17.5314960  64.3909836
  12.0140066  17.5980072  63.4365501  12.7196407  16.9602737  64.6139908
  61.9041939  60.0737686  51.4303322  61.2560730  60.1591530  50.7311325
  62.5706139  60.7280083  51.2203827  36.2609634  62.2490540  64.1643677
  36.5828552  61.4616165  63.7255478  37.0301361  62.6081009  64.6067429
  65.2995224  35.7290192   6.0351253  66.1495514  35.6399078   6.4660997
  65.4193954  35.3140450   5.1809263  14.9895763   2.2430773  49.7178764
  15.2920437   1.6368959  50.3941078  15.3721380   3.0855799  49.9629669
  62.9125481  26.4847412  55.2615051  62.2878342  27.1949215  55.1145134
  62.5269432  25.7304745  54.8158379  53.7482185  62.5096245  23.0885773
  53.7499046  63.1015816  22.3363686  53.1171036  61.8285751  22.8559875
  23.0360718  71.6501541   5.0204840  22.4997692  71.7096863   4.2298722
  22.7928600  70.8113632   5.4122872  41.6110039   7.6659946  71.1146240
  41.7372398   7.5636830  70.1713181  40.9772110   6.9871845  71.3464737
  71.3595734  12.4369268   1.3971478  72.2359695  12.8128500   1.4798181
  71.2680054  12.2458200   0.4636997  74.1257401  17.6798916  75.4268494
  74.0230713  18.1932869  74.6255264  73.4126053  17.0421581  75.3957367
  81.8452835  14.2088375  62.7505875  81.2739792  14.3343258  61.9928932
  81.2490616  14.1870794  63.4991112  76.6872482  25.6842079  11.8171129
  76.3875351  26.5628891  12.0501833  76.2482071  25.4934025  10.9882174
  29.0765457  62.3165474  76.2825165  29.6164703  62.2826653  75.4928589
  28.7394600  61.4260445  76.3805771  49.6923599  23.8419075   0.9558292
  49.4083176  23.8189030   1.8696247  50.1699333  23.0215378   0.8327360
  41.7210503  23.7938614   8.5168056  41.2688217  23.2583065   7.8649607
  42.1929817  23.1624908   9.0598383  46.9229393  35.3364601  16.7317524
  46.1306305  34.8017159  16.6814938  46.9671249  35.7793617  15.8843355
  79.6592407  11.3419046  36.6136017  79.1059494  12.0912428  36.8340416
  80.2192612  11.6580296  35.9046135  54.8191223   0.4105072  63.1267128
  54.1208191   0.5673502  63.7623253  55.5002098   1.0418831  63.3584862
  27.5278606  55.8762589  74.8914337  26.9013996  56.4309196  74.4265366
  28.3622417  56.0354919  74.4502029  22.3403149  15.0893126  56.7414360
  21.5187531  14.8107700  56.3368568  22.6391487  15.8190613  56.1988525
  51.1528511  68.9775009  71.4096222  50.9458504  68.8404617  70.4851761
  51.4912605  69.8720093  71.4492340  71.0335388  55.2999573  54.5073586
  71.6361465  55.3303223  53.7642708  71.2224884  56.0975494  55.0017052
  82.2364960  26.1534462  67.8547897  81.8559113  26.5413456  67.0668030
  83.1748276  26.3260689  67.7775116  73.5703583  45.0297661  37.0245018
  74.4556274  44.7136841  36.8439064  73.0180283  44.5690002  36.3929482
   0.6220912  56.7711258  45.4333801   1.3125432  57.1731720  45.9605103
   0.0569294  56.3352165  46.0711975  21.8838654  59.1676903  42.2896729
  22.0276012  58.2340126  42.1353455  22.2072563  59.3161430  43.1782761
  72.6508560  50.4342690  57.2966423  73.1054764  49.5943451  57.3605309
  72.9251022  50.7914124  56.4519691  58.2666168   3.8732367  72.6449051
  58.0993996   3.5288320  73.5222015  58.4235458   4.8077211  72.7803421
   8.8413944  42.8919334  54.9625664   8.6301003  42.2573814  55.6473503
   9.3206148  42.3857269  54.3065643  69.4570465  18.2009163  37.5301018
  69.0579529  18.1579418  38.3990707  70.2844696  18.6616631  37.6690712
  78.8929825  11.1159630  40.8350906  78.7218857  11.7921934  40.1795959
  79.7130585  11.3853970  41.2487450  49.2397003  27.7272911  62.4258690
  50.1122360  28.0013237  62.1433449  48.9595528  28.4105587  63.0348816
  75.7349091  10.3721714  65.5260468  74.8577042  10.0966883  65.2598648
  75.9310226   9.8369188  66.2949905  27.7011585  71.3632126  57.5524864
  27.2601910  70.6681671  57.0639267  28.2208576  71.8255539  56.8949280
  84.3865814  45.1272507  63.4252357  84.1681061  44.4504051  64.0658417
  83.5390396  45.4417992  63.1106529  68.9171448  47.7016335  65.4535370
  69.8684464  47.6257629  65.5277863  68.5856323  47.3913078  66.2961655
  69.5959167  55.7405701  68.2768631  68.7013779  55.9954643  68.0509186
  69.8908157  56.4167442  68.8868332  54.9861603  40.2018585  60.6022072
  54.4349136  40.9215393  60.9094887  55.5742073  40.0206642  61.3354187
  73.0632248  10.0266008  11.1827507  72.9058990   9.4914932  10.4048424
  73.8868332  10.4787664  10.9998646   6.9645743   4.7913442  16.5314121
   7.3790998   4.1615462  17.1211205   7.5289741   5.5634556  16.5705090
  71.2506943  19.5666752  49.5074387  71.6452408  19.5898037  50.3792381
  71.0060501  18.6501541  49.3794975  40.9922447  48.5872345   8.9527483
  40.6128349  47.8173103   8.5290785  41.6469498  48.2316704   9.5537214
  10.5917435  69.0796051  13.5867014  11.2186728  69.4073257  14.2315178
  10.3781700  69.8433228  13.0506487  17.7228527   6.0205379  59.0853615
  16.8302135   5.9986634  59.4302521  18.2275810   6.4804845  59.7561302
  77.0731812  30.5480919  77.9552689  77.9450607  30.5504646  78.3503036
  76.7622604  29.6496620  78.0665436  21.1969986   6.2327619  18.2995625
  20.4359970   5.8353581  17.8762684  20.8537712   7.0233245  18.7160206
  84.4731064  35.2765083  54.1421967  84.1392059  34.9089622  53.3238754
  85.4214096  35.1577530  54.0887566  82.1945267   7.6945367  82.1555557
  81.7862549   7.3246861  81.3727646  81.9454422   7.0970221  82.8606567
  80.1605453   4.4385209   7.7358422  79.5466537   3.7188370   7.5894556
  80.7871399   4.0932469   8.3717642  78.7221603  14.3697414  77.4388123
  77.9286804  14.7942743  77.1126328  78.7270203  13.5121508  77.0136719
  21.4259758  56.0428619  67.4609604  22.2127171  56.5871620  67.4926453
  21.7189503  55.1809616  67.7568130  48.6831894  19.5636368  13.4153214
  48.8362198  20.4086914  12.9925947  48.9815521  19.6889420  14.3161592
  52.7716179  22.7039146   4.4894052  52.1681709  22.0581417   4.8569121
  53.6264000  22.2737865   4.5133166   7.8797331  37.0037498   8.9735661
   8.4837189  37.7175941   9.1781626   7.0097833  37.3922501   9.0656929
  75.1588974  62.9038696  60.4700470  74.6235504  62.5696259  59.7503853
  75.9164429  62.3193626  60.4965591   4.8777261  40.6534157   7.9137831
   4.0094819  40.4934578   7.5439215   5.4155021  40.9042854   7.1627216
  45.0157280  33.4179726  36.6782265  44.9536057  32.8711090  35.8950806
  44.6899529  34.2737045  36.3992615  63.7308655  36.6857719  66.9297867
  63.4756927  36.2363243  67.7354660  64.6284637  36.3955193  66.7676010
  59.3940277  31.9668121  34.5979614  58.9422493  32.7705727  34.8550491
  59.0703697  31.7816315  33.7163811   8.7453003   5.1865277  64.6782227
   9.1403580   5.5939369  65.4490585   9.4708748   4.7340035  64.2481155
  76.1833649  69.3083115  79.4788055  77.1192245  69.1400375  79.5887375
  76.1355743  69.9311218  78.7535095  56.3846779   6.5279684  19.7104836
  55.6425438   7.1166153  19.8481808  56.9513168   6.9962912  19.0974369
  70.0483856  49.6042404  87.1375046  69.7680359  48.7674599  87.5082245
  70.6085663  49.3636169  86.3995743  45.3653908  56.3330040  88.6115875
  44.5319405  55.9041176  88.8056183  45.7436943  55.8119698  87.9033203
  65.1731491  23.2619553  13.1308804  65.1212921  22.3218765  13.3034992
  66.1089630  23.4603539  13.1643229  20.7051182   1.7998241  54.2580223
  21.2502918   1.0373491  54.4520569  20.1772022   1.9237709  55.0467987
  73.5748367  31.1156502   2.9155290  74.1463013  30.3971348   2.6446092
  72.9692993  30.7173672   3.5407681  10.4571342  20.9664783  73.8645859
  11.0539322  20.2198029  73.8141861   9.7751055  20.7717800  73.2218094
  65.4652557  64.6687469  19.4810009  65.7276230  65.4011917  18.9233952
  65.8367996  64.8755188  20.3385754  51.4074554  30.0044689  50.8950157
  51.5601540  30.2213993  51.8147202  51.4430618  29.0483932  50.8653374
  18.6150265   5.8507757  83.8961945  18.1911373   5.2316222  84.4905014
  17.8901787   6.2989383  83.4603348  77.6577988   7.1329083  16.4067879
  77.6453400   6.3618264  16.9738045  78.3772049   7.6666622  16.7441177
  13.0972042  62.1057281  37.5962029  12.5456066  62.8488960  37.8404770
  13.6620836  61.9666519  38.3563347  36.7749977  37.6418648   1.3789259
  37.5687904  37.6046944   0.8453146  37.0803299  37.4901581   2.2733462
  24.4265766  18.9508209  57.2549896  24.2895927  18.2489223  56.6187439
  24.5009041  18.5003452  58.0962830  25.1279240  48.3568039  52.9544563
  25.0144043  47.4541321  52.6569176  24.3892841  48.5094070  53.5438271
   3.5743151  46.0627747  84.2973938   3.9562020  46.5201950  85.0465012
   2.8021283  45.6232109  84.6534042  50.7284126  38.7551842  48.5207062
  50.8613739  38.6227798  47.5820770  49.9708862  38.2105026  48.7344856
  16.2425480  16.7192059  77.6433487  16.9784393  17.0872917  77.1542587
  15.7870722  17.4815693  78.0005341  86.2334518  56.7707939  10.7771778
  86.7051086  57.5325127  11.1141596  85.5529633  57.1401482  10.2143784
  80.0734558  27.2962914  86.7171936  79.2043533  26.9239407  86.8663635
  80.3733749  26.8868370  85.9056320  63.2785416  33.8036728  23.4395981
  63.8078156  33.1083298  23.0489616  62.7210083  34.1106529  22.7246494
  51.6610069  12.8940678  44.7618141  51.8636322  12.7595587  45.6876030
  52.4948044  12.7577791  44.3118820  53.5659828  64.3652725  37.6898613
  52.7846909  64.4711609  37.1470909  54.0902214  63.7097511  37.2297516
   4.2366076  29.0866909   1.3744001   4.1010056  28.5437527   2.1509709
   4.3602691  28.4593029   0.6621341  72.9441528  51.4784393  29.3640862
  72.5272598  52.1394730  29.9167805  73.8821487  51.6008415  29.5104065
   5.3585525   5.5090871  84.7421722   5.1756144   4.5772820  84.8626099
   5.1075597   5.6872573  83.8358154  52.3279190  24.5679760  88.5329742
  51.5890274  23.9653130  88.4488831  52.5820312  24.5083427  89.4539032
  56.0744667  19.8996010  49.2886467  56.3634872  19.3107338  48.5915527
  56.8617249  20.3862534  49.5328293  51.9704514  68.8180008  16.6835632
  51.5292435  69.1567230  15.9045649  52.5112991  69.5465775  16.9883385
  54.1294746  17.8420029  67.7162170  53.7132721  17.0788441  68.1169586
  54.6413116  17.4827309  66.9915237  84.4234161  68.9565125  20.4900799
  85.2738876  69.3611069  20.6610584  83.8360825  69.6941452  20.3252239
   1.6128254  55.4023933  33.2603340   2.2684624  56.0398636  33.5431786
   1.5352335  54.7958183  33.9967270  67.4582977  14.5676985  35.5447578
  66.7539520  15.0697680  35.1348038  68.1257553  14.4907475  34.8629951
  35.7496223  70.1638184  44.3774872  36.5341911  69.6915817  44.0987892
  35.3119240  70.4040680  43.5608292  49.0395508  17.1984024  87.5292435
  48.5346870  16.4324551  87.2559814  49.9395676  16.9954472  87.2742767
  29.6816807   4.5844316  12.9726934  29.5011406   4.9041471  12.0887146
  30.1662254   3.7699146  12.8384905  61.5754623  11.3297844  80.9420776
  60.6361389  11.2385330  80.7821503  61.7758408  10.6506529  81.5861740
  81.7163544  51.8874893  53.4866104  81.6321716  51.8406944  52.5342712
  82.0929794  51.0434341  53.7355270  10.8827810  43.6468620  76.8056793
  10.8745232  44.3816795  76.1923141  10.0149717  43.2524490  76.7186279
  63.4515533  37.5088654  55.5582848  62.5515518  37.4288788  55.8742485
  63.5125237  36.8730164  54.8453979  42.4878883  65.5946579  66.2406235
  42.8323708  64.8023300  66.6526794  43.2218895  65.9382477  65.7312927
  32.4940643   6.7223272  53.5383873  33.3240585   6.9540944  53.9550705
  32.6073380   6.9748683  52.6220779  32.2965508  54.4720078   3.7176471
  31.3799534  54.5910721   3.4688318  32.7275810  54.1835175   2.9131505
   6.7239928  58.1182098  52.8593254   7.4977198  58.0555801  52.2992783
   6.8872213  58.8850670  53.4084320  25.8197975  38.5155067  18.0847340
  24.9727669  38.2394791  18.4348469  26.4183178  38.4536781  18.8291683
  78.5096893  45.0114059  52.8938980  77.9849777  44.3735199  52.4101486
  77.8891068  45.4276009  53.4921417   5.3651724  49.1866684  29.6776581
   5.3622813  48.8582458  30.5767498   4.6123643  48.7628860  29.2654457
  45.3906021  54.1396637  86.9870834  44.5250435  53.7314301  87.0066757
  45.5680237  54.2804375  86.0570602  63.9186020  21.0119019  43.8530121
  63.1875076  21.3024120  44.3982964  63.5033569  20.6115856  43.0891075
  78.4177322  16.4541492  67.5918350  78.0879517  16.9046898  66.8143463
  79.1609116  16.9847050  67.8789215  21.0324421   0.8039990  79.2982330
  21.2410049   0.4937681  80.1794128  21.5669098   0.2597773  78.7199554
  84.5849304  52.0559807  39.1810379  83.9208603  51.6953201  38.5935364
  84.7050781  52.9573441  38.8821297  83.9716797   9.5000124  83.6531448
  83.9490967   9.6355200  84.6004333  83.1575165   9.0359926  83.4580917
  14.8534470  51.0583954  58.8525391  14.7976198  51.7866669  58.2338867
  14.0137310  51.0694199  59.3118744  11.1881247  23.9648705  18.2100849
  11.9254332  23.3740330  18.3634491  10.8973198  23.7593708  17.3215828
  49.5052795  49.0419540  47.1686859  50.0803490  49.0652771  46.4038429
  48.6832962  48.6785126  46.8393173  80.6290588  17.6423740  42.4724922
  79.7111206  17.5286522  42.2261467  81.1208038  17.2403851  41.7563744
  11.3071404  21.7477570  10.3439255  11.0264959  21.6476479  11.2535677
  12.2490139  21.5783138  10.3638325  13.3308916  29.8563633   4.3467488
  14.0863895  29.6589031   4.9003401  13.3126678  30.8121681   4.2984133
  75.6377335  41.2266731  75.1268692  75.6223145  40.8809891  74.2343979
  76.5250473  41.0473022  75.4378967  57.5488205  16.7200928  36.4303093
  58.2926254  16.1988678  36.7324905  56.8987389  16.0732536  36.1560478
  45.7509956  17.4130859  61.3989944  46.3556557  17.2803326  62.1290588
  44.9815750  17.8209019  61.7963753  79.1613007  42.9479065   1.3488636
  80.0189056  42.9634705   0.9239987  78.6253738  43.5465355   0.8286152
  61.7309380  59.0636940  46.8439445  61.3966560  59.9274521  47.0856285
  61.7774048  58.5847321  47.6713905  37.3118706  37.6546364   6.9349847
  37.7829590  37.8177071   7.7521234  37.7235146  38.2409019   6.3001051
  81.6137543  59.4487839  50.8251534  81.0277100  58.9079323  50.2957573
  81.9632492  58.8489418  51.4841461  73.4946823  67.2901001  26.2818642
  72.9838333  67.9629288  25.8317871  74.2874985  67.1978760  25.7535057
  83.3104248  65.7728653  38.1025314  82.9864578  66.6698685  38.1841125
  83.3986893  65.6349335  37.1594429  77.0575104  71.0746765  20.6461048
  77.3246307  70.9035339  21.5492039  77.7675247  70.7153320  20.1141396
  65.8646774  40.2571831   2.6253235  65.2868881  40.9694252   2.3512628
  65.7843933  40.2371140   3.5789402  29.5846882  49.7670555  42.0152855
  28.9627018  50.1918602  42.6059685  29.0394554  49.2353706  41.4354019
  45.1179771  59.5101128  82.6984406  45.1444168  58.9895248  83.5012665
  45.8752060  59.2118988  82.1945572  56.8039513  69.5292358  23.0409508
  57.3706779  69.9335403  23.6979103  57.2511139  68.7159576  22.8067341
   0.7596148  56.5833321  69.8072739   1.5359935  56.6209412  70.3658905
   0.8176883  55.7320595  69.3734665  13.1006451  38.8603249  29.5057316
  13.5351934  39.6827240  29.2797661  12.4635668  39.1028175  30.1777134
  82.4080963  63.6863327  25.4221935  82.6879425  63.9527740  24.5464478
  83.0405731  64.0976944  26.0112457  46.3376541   3.3787098  42.3981018
  45.8033409   3.2811263  41.6099281  47.2380562   3.4096270  42.0747528
  29.6267967  58.5523109  47.1959190  29.2800484  57.6629143  47.1254387
  28.8501835  59.1070557  47.2691498  39.1670723  59.5516129   6.5330138
  40.0885277  59.2926254   6.5241613  38.6870728  58.7334099   6.4050527
   1.7552966  67.1530457  40.1451187   1.2196637  67.0859528  39.3546600
   2.0631785  68.0593643  40.1495972  77.8316345  16.8058395  33.5549088
  78.3978729  16.1252804  33.1909790  78.4267960  17.3803635  34.0365067
  57.7691689  28.5569134  63.8488998  57.0552597  28.0170078  64.1881104
  58.4562569  27.9303493  63.6218224  38.5296555  61.7029076  77.2764130
  37.9869766  62.1421661  76.6215973  37.9148827  61.1645889  77.7749100
  56.3528671  55.5914154  38.0513382  56.1426315  54.6848145  37.8274727
  55.8882713  56.1135330  37.3972893  12.4604273  13.4127693  14.4966555
  11.7678490  13.2441130  15.1355000  12.1289921  13.0394897  13.6799278
  51.2550735   0.8033049  68.6089859  51.5987625   1.6180108  68.2424240
  50.5586510   0.5442049  68.0055847  62.7457390  61.8943176  15.6522436
  63.0822296  62.0002289  14.7624168  62.8581505  60.9627762  15.8415222
  76.6966019  14.6273708   3.6975319  76.8638306  13.6889315   3.6103587
  76.1791229  14.8513107   2.9240341  78.8928757   7.7347579  68.5309296
  79.7618713   7.5731044  68.1635666  78.7205811   6.9720621  69.0830536
  23.4781685  58.0949364   1.5940760  24.1984272  58.6662865   1.3275815
  23.3488712  58.2896271   2.5223057  10.6511221  46.2078819   7.1644592
   9.8520737  45.9587517   7.6288800  11.3364143  45.6703377   7.5615149
  21.5447102   8.8375616  45.3790817  21.6942558   9.5514097  45.9989929
  20.8618469   9.1669054  44.7947350  36.0549316  61.8095627  88.5273285
  35.8097572  62.6796875  88.8419724  36.8426743  61.9572830  88.0039978
  25.2882519  46.7381935  82.4418716  25.1234016  46.1777077  81.6836395
  24.7613773  47.5208244  82.2802582  18.2637463  62.4580116   2.7486188
  17.3534908  62.7474785   2.6863577  18.7690945  63.2685394   2.8110533
  56.2768555  63.3153152  18.5338707  56.9858589  63.0950737  17.9296837
  56.0623932  64.2255936  18.3298321  71.7668991  24.0426197  65.6150131
  72.5896835  23.9290771  65.1392365  71.9623795  24.7062263  66.2765656
  29.9307423  54.5623169  76.8815613  29.7486610  53.9386444  76.1786270
  30.2531624  55.3431206  76.4314270  13.8949366  69.8371048  78.6003342
  14.3841820  69.0851593  78.9341736  14.4538689  70.2007828  77.9136276
  41.4029350  54.6305771  42.1401558  41.1267853  53.7414818  42.3626060
  40.9001961  55.1921959  42.7301331  53.8121300   9.7151642  26.6396580
  53.1608734   9.2423182  26.1214771  54.5194740   9.0834723  26.7695160
  63.8473053  26.1280575  59.9693108  64.6506348  26.2538395  59.4642601
  64.1499252  25.8782673  60.8423843  32.9283257  64.4739761  26.1254444
  33.4279556  64.0009918  26.7909355  32.1373062  64.7631226  26.5803261
  49.3307190  23.2725677   9.6915627  48.6080780  23.8125877   9.3715620
  50.0755005  23.8720608   9.7377796  24.6430931   8.7513504  29.2030525
  23.7149773   8.7946682  29.4331779  24.9994183   8.0692701  29.7722893
  67.5255890   6.9465814  58.7342033  67.6436005   6.1464500  59.2461510
  66.5812531   7.1024370  58.7476654  49.4586525   6.7383714  19.5556355
  49.8718300   7.2868152  18.8887577  49.7301102   5.8474126  19.3348751
  50.8425064  10.9260292  52.4941902  51.2718582  10.2967253  53.0737305
  51.5083580  11.1439981  51.8419914  40.4962654   8.0311632  37.6316605
  39.5512695   8.1802292  37.6632347  40.8147659   8.6512499  36.9757042
  28.4503460  38.7799950  69.6423874  27.5333424  39.0382957  69.7352219
  28.5882359  38.7217522  68.6969681  10.3352785  30.1962662  59.4349632
  10.8439741  29.8366661  60.1617012  10.0868883  31.0732346  59.7272987
  12.1511755  36.4471207  70.4992752  12.2758322  35.9066734  69.7191467
  11.2885666  36.1958160  70.8294067  16.7487488  24.0499859  71.8402710
  16.1877403  24.7073612  71.4287415  17.3721676  24.5581589  72.3592529
  28.8974800   0.3312433  23.5006866  29.0840816   0.0654471  24.4011097
  29.0948086   1.2676883  23.4816074  86.0985184  66.3825912  35.7042809
  85.7214737  66.8422012  34.9540596  85.7075882  65.5094833  35.6714554
  14.0959625  10.1599150  79.8154221  13.4482985  10.7751617  80.1592789
  14.8300343  10.2182589  80.4269562  58.5957985  44.5914192  83.3450089
  58.2457085  43.8065414  82.9235458  58.5599632  44.3966217  84.2814941
  79.4932098  52.2614708  25.7430973  79.1389160  52.7815857  26.4643383
  79.3453751  51.3534470  26.0074158  23.2462616  58.4949532  16.0588226
  23.3158894  59.4334564  16.2337322  22.3747272  58.2564583  16.3747044
  24.6255455  55.4805756  32.7616768  23.7102032  55.4941025  32.4820366
  24.5839367  55.4854927  33.7179604  82.6653900  35.7461472   8.8208075
  82.9720612  35.1170006   9.4737663  82.1295319  35.2270012   8.2211599
  33.8644218  64.4659729  42.7277946  33.6233749  65.3132935  42.3534088
  33.2089615  64.3092728  43.4075356  75.7563705  39.4191208  50.9325905
  74.8004990  39.4147949  50.8824234  75.9515381  39.8890800  51.7433205
  31.8340225  20.8299313  12.7550993  32.6982727  21.1773014  12.9756308
  31.9176083  19.8842754  12.8774929  70.1380386  51.5596466   2.4880583
  70.3723450  52.3505516   2.9736488  70.6312866  50.8603477   2.9169152
  36.4559822  48.2007675  22.8620892  36.6935349  47.8176689  22.0176754
  36.3754005  47.4506645  23.4512310  47.1725044   5.5528631  88.6053696
  47.6155281   4.7049856  88.5727081  47.4480095   5.9351106  89.4385681
  59.4110718  38.9017906  46.7106781  59.1381836  39.7924538  46.4904861
  60.3380814  38.9837837  46.9346542  78.6205063  60.0821457  14.5078373
  78.3545837  59.9151001  15.4120569  79.0805893  60.9207191  14.5445166
  66.7750702  31.1964893   2.4139428  66.5230255  32.0281754   2.0126963
  67.5604782  31.4032555   2.9205239  79.1719437  20.7969437  28.3195686
  78.9854126  19.8689079  28.1774788  78.3942490  21.1319599  28.7658787
  10.0702963  32.9527626  60.6637383  10.0056725  33.4331017  61.4891624
  11.0018005  32.9770546  60.4447823  59.2257195  66.5946732  35.6428986
  59.6336403  67.4401016  35.8302116  59.4606285  66.0445862  36.3901939
  54.6831779  60.2492027  43.9609299  55.3934975  60.7434998  44.3700104
  54.5918388  60.6369591  43.0905647  51.5478325  61.3627930  87.1487122
  51.6735573  61.0115166  88.0302048  50.7108383  61.8251572  87.1922607
  82.4473953  55.6651192  24.6879234  82.6548691  54.8380585  25.1228466
  81.7390823  55.4462280  24.0824356  59.1848831  64.9012604  17.9868202
  59.2471237  65.5787506  17.3135014  58.9264832  64.1125946  17.5098782
  81.3305511   3.0747612   9.6481905  80.5227280   2.5821390   9.7930384
  81.9135895   2.4551072   9.2096434  85.0207672  56.4289207  29.4743061
  85.6050339  55.7152672  29.7303581  84.3399582  56.0052528  28.9515915
  25.6187820  16.1235867   5.1766315  25.9702473  15.4797649   4.5616541
  24.6726799  16.1002140   5.0331883   4.8503470  46.5839272  73.5366898
   5.5126853  46.1024818  74.0324173   4.0908241  46.6142387  74.1184387
  77.6340332  44.9807281  60.6402779  77.5359650  45.4190865  59.7950249
  76.9321976  44.3300171  60.6554794  69.9194412  49.8187447  70.7988739
  69.9789429  50.6062202  71.3397827  70.7106094  49.3229599  71.0097885
  47.1927032   9.4283829   7.6392236  46.7968636   8.5968008   7.3784332
  47.1902657   9.4051399   8.5961380  46.2458496  43.0182381   5.6842566
  46.4027710  42.3293610   6.3300576  45.9449081  43.7661972   6.2002258
   8.1153831  24.8352890  72.4148178   7.2500858  25.1365261  72.6918488
   8.1017513  24.9124069  71.4608231  67.3466797  56.9179192  66.7392502
  67.6185074  57.8024597  66.9840622  66.7481079  56.6497269  67.4363937
  75.2748032  17.9437714  17.9717102  74.5323334  17.4240665  18.2797146
  76.0454941  17.4554729  18.2612629  78.5084076  17.8117981  73.5204468
  78.2182007  18.6418037  73.1421585  78.0304871  17.7452545  74.3471298
  49.5540695  10.2486820  11.9115276  50.0956306   9.5007315  12.1635427
  50.1525726  10.8308325  11.4434223  48.4914207  65.9200134   5.0852361
  48.8358536  66.2311325   5.9223762  47.6417618  65.5369339   5.3033261
  16.3430214  32.4485855  69.2812576  16.0472927  31.5999718  68.9516678
  16.7082348  32.2560616  70.1448517  16.0079861  60.1141014  80.9052505
  16.7875214  60.6012268  81.1722031  16.0869141  60.0382729  79.9543304
  68.6496277  54.9164391  24.8159599  69.4902496  54.5739746  25.1197777
  68.4565430  54.4112701  24.0261784  35.8849182  37.5402145  58.8153534
  35.4168282  38.1245384  58.2189560  35.3888931  37.5848312  59.6327896
  25.3797092  65.5346527  45.2869492  25.4952202  64.6537247  44.9307976
  25.9778557  65.5715790  46.0333328  21.1181717  14.2714167  72.2888031
  21.2839489  14.0435543  73.2035828  20.3165226  14.7938871  72.3135986
   0.0581779  60.1442986  41.0837097   0.8948857  59.9592323  41.5102119
  -0.0943094  61.0746994  41.2490311  72.2715454   8.7721052  13.7868090
  72.6226120   7.8897982  13.6663055  72.7238083   9.3015947  13.1300459
  33.0366631  55.0015755  53.9466972  32.5677032  55.6217575  53.3884087
  33.8040733  54.7497559  53.4329834   5.1096830   1.0325869  40.4848366
   5.6771121   0.8562909  39.7343864   5.5770993   1.7001631  40.9869270
  77.4061661  62.7176933  30.2780094  77.9281006  63.0691032  29.5566750
  77.0098572  61.9225655  29.9217186   8.1674204  67.6653519  65.0269165
   7.2950506  67.2784271  64.9528122   8.1472549  68.4168243  64.4343643
  82.8790131  42.2476387   7.1370258  82.5389862  41.3566780   7.0545797
  83.2877808  42.2688866   8.0022945  79.4208755  47.5235825  75.5385742
  78.9774170  47.4141579  74.6973801  78.8157883  48.0493469  76.0617142
  45.9524078  22.6901302  78.8557968  45.5257988  23.3181725  78.2728729
  46.8887367  22.8300896  78.7146378   4.0699272  64.2125854  69.7342758
   3.1560919  63.9557648  69.6110687   4.4569740  63.4905472  70.2293396
  48.3051033  11.7335186  28.7806740  48.0961571  12.0080328  27.8878040
  48.0558472  12.4801493  29.3253250  60.0737839  25.5503769  21.3886757
  60.4833984  24.9902687  22.0480099  59.4972839  24.9629021  20.9000492
  44.2671967   9.3553438  81.6473465  44.9335060   9.9598360  81.3204575
  44.7062302   8.5051050  81.6713028  59.3984566   0.9459696  48.2244987
  58.9450569   1.1021531  47.3960876  59.6438560   0.0213112  48.1926079
  14.8781776  59.7521286  47.6259804  15.2146063  59.0094986  47.1244316
  13.9975424  59.4844284  47.8887520   9.8981924  66.7037506  56.6263695
  10.7752800  66.8371201  56.2669754   9.3948631  67.4560852  56.3151093
  79.2703018  12.8940172  59.3535576  79.5985489  13.4768848  58.6689034
  78.4225159  12.5935221  59.0261345  79.1048889  39.8572159   1.5194130
  79.9115295  39.9018631   1.0060281  78.8333511  40.7697067   1.6187038
  23.6433849  59.6170197  23.5002480  23.7574635  59.2948761  22.6061325
  23.4310436  58.8358345  24.0110226  70.8951721  48.4743309  58.8856392
  70.7952423  49.0611343  59.6352425  71.8223495  48.5352631  58.6557083
  51.6158829  69.1107254  40.0497742  51.3768845  69.0235672  40.9725494
  51.9515228  68.2478638  39.8067627   3.4833975  19.5963154  24.8006153
   3.5636032  19.1553459  25.6463947   3.1413662  20.4643459  25.0145569
  30.9900341  20.7877522  70.9805527  30.5529346  20.0299950  70.5919876
  31.7146454  20.4148502  71.4826660  53.2874107  41.0945358  33.3663521
  52.6107674  41.3078880  34.0088959  53.6306610  40.2479286  33.6521263
  24.5879059   6.6191969   8.9208040  23.9402943   7.0630407   9.4683743
  24.1000690   5.9124384   8.4980288  79.6791534  10.0695992  51.9163437
  78.8751602   9.6153021  51.6644669  79.6101379  10.9280357  51.4985428
  61.0830154  33.7027855  14.1685791  61.3282013  34.5041389  14.6311264
  61.8060455  33.5460472  13.5612144  28.9267845  58.1348076  44.4251785
  29.8193645  58.3766594  44.6722412  28.3687077  58.6818581  44.9779167
  43.2985344   6.4762573  62.6985397  43.0050240   6.8858676  63.5123596
  43.5690918   7.2091899  62.1455116  45.1594925  31.4858932  19.9436436
  45.1107979  30.5581722  19.7130032  45.7815628  31.8560658  19.3173618
  67.8159103  10.0758801  71.4869995  68.7642288  10.0699539  71.3569946
  67.6157074   9.2048817  71.8297958  22.9720993  59.3963814  45.0917702
  22.8281994  60.3345947  45.2153893  23.4543915  59.1231728  45.8721466
  22.4270382  63.2153549  21.7818451  23.2426815  62.8578148  22.1327286
  22.2381725  63.9713211  22.3377953  27.8559570  60.4525185  19.1585827
  28.4932003  60.4552078  19.8728294  28.3846893  60.5405769  18.3655396
  34.9363174  38.6253090  86.2190552  34.5629196  38.8463516  87.0722504
  34.8435860  37.6746979  86.1560440   9.1363974   1.5634758  26.9140358
   9.6012535   0.7600377  27.1477623   9.0661983   1.5306661  25.9599781
  51.9948540  46.6057777   3.6685977  52.5524178  46.1187248   3.0618596
  51.3538589  47.0419655   3.1072624  19.2302818  15.9282627  63.0639725
  18.8527374  16.6017380  63.6297646  20.1431313  16.1936150  62.9520454
  11.2261534  70.7209854  36.9816589  11.7950716  71.4632492  37.1856270
  10.5930586  71.0697937  36.3541565  72.8614731  31.4865093  72.5174255
  72.9110260  32.2780876  71.9815292  72.2991028  30.8941860  72.0183029
  70.4395905  32.3815460  61.2982407  70.0193253  31.5559998  61.0572281
  69.9500198  32.6853256  62.0626144   4.4779425  25.9679165  65.8376236
   3.6954360  26.3850994  66.1979980   5.0304818  26.6973476  65.5568008
  60.6909447  67.8764954  39.0574341  60.3812790  68.5711136  38.4761925
  60.4827194  68.1900558  39.9375229  21.1045418  48.7152596  35.0611000
  20.8477116  47.7966118  35.1408310  20.7030468  49.0060005  34.2422600
  68.9164352  10.5173664  80.4620438  69.2869568  10.3336267  81.3252869
  68.0239029  10.1743851  80.5065536  46.6969490  35.2520905   9.7271729
  46.2202721  34.6832886  10.3317137  46.1411819  35.2938004   8.9489622
  65.4715958   2.0994136  59.8762360  65.3584290   1.1965756  59.5790710
  65.9796295   2.0238056  60.6839600  54.7139320  36.2852592  11.1349096
  55.6076279  35.9490738  11.2021017  54.7627831  36.9621582  10.4598875
  76.3054733  21.5550156  77.4494934  77.1359711  21.3125629  77.8590317
  75.8675079  22.1019516  78.1016235  58.3832855  31.2226734   3.4278719
  58.9564972  30.4765282   3.6037278  57.8977928  31.3490944   4.2430701
  44.3328705  67.2050934  10.8020096  43.7490578  67.5041885  11.4991016
  44.1634026  66.2654419  10.7343664  56.7518539   2.6639662  81.6883850
  56.4938164   3.2816494  82.3725739  57.5150261   2.2124031  82.0487900
  74.0273743  35.9996185  29.5182362  73.9547195  35.3130035  30.1811924
  73.4138260  36.6758270  29.8055286  47.3233452  29.1087761  34.4716110
  47.9090500  29.7546177  34.0765533  46.5689354  29.0780697  33.8832626
  35.1441689  66.2274475  25.7221737  35.9763184  65.9522781  25.3374138
  34.5649223  65.4746857  25.6036110  16.9370461  69.8311157  69.2788315
  17.2427826  70.2794952  70.0673141  17.1744270  70.4190063  68.5617065
  59.4131126  28.7415886  27.1671638  58.6099472  28.9676018  26.6980419
  60.0976601  29.2448959  26.7263603  63.1805954  62.2291412  12.7787113
  62.9554405  61.9071579  11.9058638  62.6635094  63.0282669  12.8799639
   3.7254696  21.6782303  55.5727234   3.2109671  21.5681076  54.7731056
   3.3212819  22.4236279  56.0168495  39.0946045  57.8039894  30.5668659
  38.9819756  57.1037216  31.2096500  38.4046669  58.4338303  30.7754765
  38.9641418  58.9531364  55.8511772  39.7696228  59.3917084  55.5771637
  38.3721199  59.0518265  55.1055183  52.5397453  40.6770935  17.7407131
  52.8653030  39.7770004  17.7494202  53.3275299  41.2173309  17.8021717
  35.3419380  67.1313629  78.0787811  35.4788933  66.2789001  77.6655121
  34.3995628  67.1696930  78.2421570   4.5133290   1.4464084   2.8317177
   4.7001619   2.3608050   3.0443301   5.3703861   1.0646529   2.6421185
  40.3298759  40.5726700  56.3635292  40.4080696  39.8772545  55.7104492
  40.8322830  41.3012733  55.9988899  84.0718918  32.6323471   6.7381344
  84.6967163  31.9306717   6.5551643  84.6006546  33.4302444   6.7369227
  69.5080872  28.7748318   3.2578142  68.9459763  28.0437946   3.0012083
  69.8252640  29.1352329   2.4297185  62.6690903   9.1315632  46.5013313
  62.4504280   9.3007250  47.4177399  63.5529556   8.7652149  46.5296822
   9.8427458  23.8641338  78.3066559  10.4357090  23.9392109  77.5589981
   9.8917866  24.7172966  78.7378616  40.4690704   2.2599831  64.6002350
  41.1278152   2.8637531  64.2570877  40.1091766   2.7079928  65.3657379
  64.7279816   2.9887173  13.3524942  65.0004883   3.1075208  14.2623615
  65.4493484   2.5073657  12.9473238  75.8400650  14.8747931  85.9019089
  75.1473160  15.5172386  86.0555115  75.5075684  14.0662251  86.2916489
  54.7962570  49.0265541  39.5142899  53.9816666  48.5358696  39.6234055
  55.4479103  48.3621597  39.2903366  34.1946831  56.5560417  22.7204857
  34.5014534  56.4205627  23.6170158  34.5678864  55.8258705  22.2267246
  37.1253357  48.2262268  62.0327759  36.3599319  48.3532906  61.4721985
  37.7790298  48.8339424  61.6869469  17.5633469  53.8088989  87.9890518
  16.9200420  54.4097939  88.3649750  18.3659973  54.3265190  87.9253616
  68.0120239   2.4541330   6.6454325  68.8575592   2.1161919   6.9405389
  68.1771698   2.7699885   5.7570677  22.2486820  18.5733986   3.8369014
  22.9488297  18.4566689   4.4790850  21.9602852  19.4779491   3.9587467
  79.9387741  41.3406639  19.4523163  80.5052032  40.9358063  18.7954407
  80.5218124  41.9124565  19.9516697  12.0289383  60.8242493  14.4765158
  12.8125801  60.3598976  14.7706490  11.4249516  60.1306610  14.2112541
  29.5627041   5.8161440  57.9484062  30.4309940   6.0888920  58.2449112
  29.6865845   5.5808115  57.0288963   4.4304790  50.9327774  77.5161133
   3.7697251  50.6178360  76.8993073   4.7896442  51.7176285  77.1023026
  77.7752914   4.2893872  43.2574768  77.3810883   5.0617185  42.8520851
  77.1489410   3.5851240  43.0903358  11.4989462  50.0600586  21.9587631
  11.5900230  49.5136528  22.7393875  11.0094776  49.5162735  21.3415527
  29.0169678  53.9367905  59.8318062  28.8435040  54.7946510  59.4442215
  28.2138519  53.7213783  60.3059731  28.7160034  30.4453011   4.8139892
  27.9355526  30.0071640   4.4746313  29.0770302  30.9101448   4.0591292
  72.5287247  67.6329041  62.4458008  71.8268127  67.3107758  63.0112991
  72.4257812  67.1399231  61.6317940  24.4751282  22.9437351  40.0072441
  24.9495525  22.2900448  40.5209007  24.9249668  22.9570942  39.1624374
  72.2482681  19.8198032  52.0054359  72.8107529  20.5537796  52.2526627
  72.6252213  19.0658226  52.4589272  25.3513241  56.6913834  11.8106108
  25.7986298  56.5208435  10.9817162  26.0253735  57.0741577  12.3721895
  40.5575752  61.2409592   2.1325822  40.6853447  61.7154350   2.9540339
  41.3944016  60.8033981   1.9760703  81.3251495  53.2837715  80.0125580
  80.8886108  54.1287117  80.1209412  81.6966248  53.3174362  79.1310272
  44.0200462  30.0176430  11.3579273  43.6295280  29.4523182  10.6914911
  43.3829575  30.7218895  11.4778614  15.3227262  52.5212059  70.7542114
  14.7377567  52.6901665  70.0156326  16.1756668  52.8433685  70.4627686
  44.6087723  53.7382202  80.3514252  45.1175880  53.7457962  81.1621552
  45.0509911  53.0952454  79.7971191  76.3636093  68.8804855  50.5791130
  77.1352539  68.3872299  50.8574982  76.7172775  69.6876373  50.2054062
  35.6339531  59.6358910   5.9923949  36.2691078  60.3500786   5.9399719
  35.0506439  59.7789345   5.2470622  18.4673767  69.1743317  80.4040833
  18.3360081  69.8423233  79.7312088  18.7621117  69.6631088  81.1725006
  69.5841217  43.5086250   1.2652030  68.8395386  42.9072495   1.2520076
  69.2572403  44.3038063   0.8444136  13.0897436  26.7148056  22.6889153
  13.9768410  26.4570408  22.4382210  13.0583344  27.6570702  22.5234337
  55.8650589  34.3248787  19.6048813  55.5761452  33.5013237  19.9979687
  55.3465958  34.4028969  18.8040428  25.6955509   1.0089574   6.1858149
  25.3274517   0.4715181   6.8871665  24.9516163   1.5112206   5.8533621
  38.7148247  53.8006363  65.6050949  38.0587082  53.8110313  64.9082184
  38.2212105  53.5821228  66.3955612  55.1204376   7.9956832   9.4055367
  55.5261116   7.6789036   8.5984983  54.2558975   7.5849695   9.4162474
  80.5593109   8.9262915  55.8711624  80.8556290   8.5543785  55.0404320
  81.2992096   9.4515915  56.1758766   2.8833170  15.2447395   7.3496733
   2.2057121  15.6624460   6.8180676   3.4840407  15.9554958   7.5737014
  50.1626816  50.2354355  29.5171242  50.7602310  49.9760132  30.2184563
  50.2066307  51.1915665  29.5064545  25.9283485  -0.2372837  71.6851807
  26.6572571   0.2246319  72.0993729  25.2117615   0.3973297  71.6850052
  36.9681015  24.8168755  86.0169067  36.0844841  24.4545193  86.0813217
  37.5396500  24.1084919  86.3131409  11.2717533  17.1744499   1.9393071
  10.9315672  17.8475571   2.5287414  12.2225599  17.2756538   1.9835352
  51.0217857  43.5704689  61.0368881  51.5990486  43.9689751  60.3855858
  50.2725067  43.2548904  60.5316925  52.6236267  11.3059549  79.9528046
  51.9852867  11.0707226  79.2794418  52.1677437  11.1500711  80.7799072
  68.1655273  48.4614410  21.5432777  68.6194382  49.2749557  21.7632694
  68.8029480  47.9619827  21.0329151  34.2505760  54.5429916  64.8786392
  33.5935936  54.4250755  65.5647202  34.1019783  55.4314346  64.5548782
  13.9863205  11.5010328  56.0452995  13.2902689  11.5656624  55.3914146
  14.3914404  10.6495905  55.8805122  49.1456795  21.1626587  29.6259022
  49.8670807  20.5494518  29.4852276  48.7334557  21.2487679  28.7663174
  79.2916794   7.9363461   1.7461779  80.0185623   7.3219147   1.6444707
  79.5633774   8.7120953   1.2556419  32.1069374  64.4106903   4.7088647
  31.4901829  65.1407623   4.7621937  31.5724258  63.6650658   4.4357824
  75.9657593  50.3221512  26.9859924  76.8579636  50.1018524  26.7182522
  75.8525391  51.2332726  26.7153072  18.3567848  40.7296677  67.3701096
  18.8736401  40.9710464  66.6014557  18.6593590  39.8499832  67.5955811
   6.5321498  20.9355736  44.2959251   5.6265378  21.2453384  44.3079491
   6.6639810  20.5472946  45.1608467  23.1773109   2.0391707  36.5354080
  22.4097271   1.6274418  36.9323006  23.6466084   2.4310493  37.2719002
  33.4035645  31.6312599  78.1924820  33.9139557  31.6052132  79.0018311
  33.9260635  32.1685143  77.5970078  24.1089134   9.2233105  57.5543861
  24.3375607   8.4480705  57.0415955  24.9111576   9.7452211  57.5701523
  78.0731506  60.2394371  17.3771458  78.2543640  61.0706024  17.8159561
  78.6391983  59.6067467  17.8193283  49.3554268  36.7486916  86.6902847
  49.1846924  36.0535622  87.3257980  49.2585793  36.3233414  85.8382721
  57.5744972  44.7950706  11.5743532  57.2696877  44.0206108  11.1015558
  57.8193893  44.4665947  12.4394321  17.4680119  27.5752907  16.6304245
  16.7517776  28.2102032  16.6191578  17.0561810  26.7453537  16.3899403
  68.6079865  16.1186161  62.1908264  68.2827225  15.2722721  61.8840103
  68.2456131  16.2092762  63.0721321  38.5540619  40.3559914  74.4810257
  38.0971222  39.5554924  74.2228851  39.4410248  40.2466698  74.1381302
  36.8575668   4.8068452  48.4104004  36.9249115   5.7558002  48.3046608
  36.8589172   4.4655104  47.5161285  11.9355192  62.1322021  84.4330368
  11.6077709  62.8928070  83.9531403  11.9335947  61.4238014  83.7892990
  68.1208878  37.5162048  36.5502319  68.5381165  38.2429276  37.0128632
  67.2423859  37.8359413  36.3447037  84.9338760  10.5066910  25.0621510
  84.7977295   9.5862465  24.8374805  84.8452606  10.5363483  26.0147800
  75.2077713  41.7560463  36.7070694  74.7010803  41.1794777  36.1351700
  74.6025543  41.9863205  37.4119949   3.5874484  39.5483322  13.3353539
   3.4794171  38.7688560  12.7903976   2.7147110  39.7142181  13.6917858
  25.1728802  64.9107208  22.4417152  24.9342880  64.6817856  23.3399887
  24.6235962  65.6663895  22.2331867  52.0936012  19.0052128  21.9682789
  52.1634331  18.1696911  21.5064793  52.9977570  19.2393646  22.1778088
  64.7885208  45.2525368  28.8296528  65.1496964  45.9594650  29.3644753
  63.8401527  45.3679314  28.8889160  50.2971840  67.0661316  75.2374496
  49.7220001  67.0062790  74.4746857  50.8376884  66.2774353  75.1923294
  78.5087891  53.3764496  75.5762177  77.6211166  53.3841400  75.9342880
  78.6815643  54.2890091  75.3446808  56.8526192   8.0286226   7.3576722
  57.4410629   7.8470387   8.0904694  57.4270782   8.0667639   6.5929685
   6.6643181  41.1946259  73.9430466   7.5430746  41.4272118  73.6431732
   6.4997401  41.7818871  74.6807861   1.7703185  59.3372498  65.8492279
   1.8823566  59.1317558  66.7773666   2.1510570  60.2097816  65.7494354
  71.3759613   6.9186702  26.8066387  71.5982742   7.1617198  25.9078979
  70.5368729   6.4642563  26.7312832  46.8537025  52.9231491   2.0292227
  47.6894989  52.5002327   2.2262464  46.6343575  53.4036484   2.8274949
  74.4021912  69.7947922  59.7263718  74.7189636  70.5478058  59.2275124
  73.5195541  70.0434875  60.0008545  31.7708893  57.8103638  30.2872791
  31.7025852  57.1217117  30.9485855  31.1133842  58.4563484  30.5453873
  34.8316307  20.7349072  63.0005264  34.4840050  20.0300980  62.4540520
  34.1473198  20.8935585  63.6507416  85.7642822  64.1750412  55.4228401
  85.7973557  63.3889389  55.9679871  86.6712494  64.3167725  55.1516380
  21.2520256  47.7235413  65.6665802  20.4219246  48.1546974  65.8697281
  21.5723457  48.1761436  64.8863373  20.4239235  57.1965828  21.6252327
  20.9214134  56.7059746  22.2794781  21.0518475  57.3631439  20.9222393
  18.8210144   0.4779347  14.2239361  18.4184456   0.8093304  13.4212236
  19.7618065   0.5796123  14.0797033  21.0239944   5.4114981  66.2691040
  21.0522957   5.3094802  67.2204285  20.4902363   4.6773219  65.9652557
   0.4509112  22.9988117  29.5109673   0.6406615  22.2836437  28.9037113
   0.1382709  23.7105999  28.9525356  67.9739456   4.5186663  60.0959396
  68.2188873   3.6832013  59.6981506  67.3068161   4.2894301  60.7429504
  16.0951614   1.6124763  45.3049431  16.9691982   1.2457397  45.1715431
  15.5051374   0.8641337  45.2150154  24.2469215  17.9765148  59.9621773
  24.1248913  17.4617386  60.7598915  23.4594727  18.5175381  59.9034538
  37.0885963  62.7194138  81.8427124  37.9291153  62.5997734  81.4006195
  36.4656487  62.2239876  81.3110046  53.2256088  66.5021286   9.2253561
  53.7172012  66.9479675   9.9151382  53.5415993  65.5989685   9.2515459
  28.2342072  56.2144394  46.9589615  28.6039677  55.4060669  47.3139839
  27.3994598  55.9472466  46.5742073   6.9128036   4.6871738   8.5022421
   6.0560017   4.4426079   8.8519697   6.7454042   5.4780211   7.9896312
  59.7355499  56.0258408   6.6236544  59.5430641  56.8241119   6.1317730
  58.9531174  55.4847183   6.5177445  15.7021027  48.8223457  30.2816677
  15.8311777  49.1897240  31.1560841  16.5831928  48.5941467  29.9852962
  73.8293152  18.6924706  57.0462532  74.3964844  19.2481918  57.5807800
  72.9412155  18.9689922  57.2721939  22.5271072  68.4830780  46.8894196
  22.1205921  67.7089005  46.5000343  22.8745289  68.9719925  46.1434326
  55.0319595  70.4835052   0.0956580  54.3340302  71.0903778  -0.1509864
  55.3342133  70.7994080   0.9471729  69.1675262   6.6844673  56.5994225
  68.5112381   6.7778563  57.2899284  69.0867462   5.7744851  56.3136978
  75.0414352  61.0691833  24.0186119  74.1616364  61.4455452  24.0417862
  75.5897903  61.7144165  24.4649429  11.0215788  29.8699379  52.5476990
  11.8840151  29.4550781  52.5657768  10.6119661  29.6069508  53.3718872
  51.9198914  65.4300308  67.0186615  52.5044289  64.7244110  67.2955246
  51.1273422  65.3030014  67.5401688   5.0177460  40.0248108  57.8225517
   5.7033176  39.4918480  58.2252617   4.8832722  39.6307411  56.9606590
  49.3089409  38.5009003  57.9053307  49.5371628  39.2142334  58.5014076
  48.8820076  38.9338493  57.1660652  74.3762207  31.0628033  25.4165936
  74.0636826  31.5146389  26.2004299  75.3262253  31.1782246  25.4363632
  77.6804276  27.3669415  14.4642630  78.0062180  28.2418995  14.6753235
  78.3004456  27.0300770  13.8174782  70.6943970  37.6161232  10.5785284
  70.3820648  36.9823875   9.9327288  71.0041656  38.3566208  10.0570507
  70.4491348  61.3149529   2.6496873  70.5815659  60.7778435   1.8685304
  71.2894211  61.2837944   3.1070545  46.2406311   1.8663465  72.9640503
  46.6028404   2.7446578  72.8474121  45.9831276   1.5945266  72.0831223
  57.3399734  50.8327332  35.2865868  56.9218369  50.0244904  34.9897041
  58.2358322  50.5736694  35.5023499  16.0349464  19.5394344   4.6835804
  16.3952599  19.7510357   5.5447607  15.3317108  18.9158592   4.8648133
   7.0974379  37.8435593  58.4926949   7.7322688  37.5997086  57.8190804
   7.2679739  37.2370491  59.2133141  17.6886940  23.1117058  87.7359924
  16.9127674  23.1240864  87.1756210  18.3655376  22.6999321  87.1988144
  49.5443306  24.1335773  87.2712631  49.4500275  24.3936310  88.1876221
  48.7776756  23.5875492  87.0971375  31.7032700  58.2495461  84.2816696
  32.3515549  58.5641747  84.9117203  30.8692074  58.3057022  84.7479477
  10.4063215  45.2869415  84.4479218  11.0714092  44.6010971  84.5071106
  10.5114536  45.6471710  83.5673447  79.3497238  19.4364834  82.1222687
  78.5622940  18.9292965  81.9249115  79.4314346  20.0468140  81.3894348
  79.2792587  21.8195019  74.9916534  79.7455673  22.0558414  74.1898193
  78.4099731  22.2060146  74.8859634  11.9974098   7.9408159  47.2318344
  12.6053381   7.4797306  47.8098106  11.6661596   7.2629247  46.6427956
  70.7554245  52.5703278  16.5903702  70.5379028  51.6990509  16.9217186
  71.0735092  52.4157753  15.7008915  24.6363411  62.3113556  23.5774078
  24.3298473  61.4111443  23.6865597  25.5909843  62.2415924  23.5822525
  36.2542648  13.1085730  89.0495453  35.9622993  12.2130346  89.2198334
  36.0307999  13.2628927  88.1316757   8.9621058  26.2152081  50.0904274
   8.9200697  26.7836876  49.3214684   9.6020594  25.5429001  49.8565598
  86.1860504  55.2485123  12.7950630  86.1570663  55.7918282  12.0075340
  85.6156082  54.5063133  12.5951309  58.5121002  63.9963913  36.6182022
  58.3625946  63.5118790  35.8063354  58.4199753  63.3403244  37.3090858
   1.2125250  18.6781254  81.8872147   0.8643249  17.8730297  82.2703705
   1.5153427  18.4179020  81.0172577  62.7138176  64.5601196  83.7091370
  63.4056511  65.0043564  84.1992874  63.0358696  64.5367126  82.8080444
  67.2494965  18.4345627  46.4314957  68.1092987  18.8536167  46.3946114
  67.3156357  17.6982422  45.8234787  79.5353851  52.4182053  64.9188919
  80.0936661  52.2838593  65.6847305  80.1088257  52.2478981  64.1716309
  55.6139717  56.9968185  23.0415554  55.8216248  56.4742088  23.8161488
  55.5436707  56.3572159  22.3328953  68.9454575  29.8664036  77.7990265
  68.2177811  29.5345516  77.2731018  69.0157547  30.7893791  77.5552902
  16.3358326  56.1783066  52.2473450  15.7563248  56.4941483  52.9406319
  15.8676500  56.3746376  51.4358711  13.4608097  11.2590446  76.9345932
  13.8731899  11.3993702  77.7869339  13.5536060  10.3197556  76.7753601
  52.0871315  63.5589638  28.9644604  51.4391136  64.1933212  29.2708855
  51.6904678  63.1685257  28.1857128  15.5330572  23.1526146  85.6166000
  15.5249653  22.5699997  84.8571777  14.8805199  23.8222713  85.4116974
  45.5728493  45.1808662  78.8327026  45.2390404  46.0738678  78.7469635
  44.9341545  44.7391167  79.3923111  31.3353043   4.5419006  40.9432068
  31.9349804   4.7352085  41.6637993  30.4902287   4.8820887  41.2370605
  18.5375805  51.0351982  48.6265144  17.8685246  50.5494995  48.1441345
  18.0788975  51.3767014  49.3941193  69.9371796  30.4491024  28.5204487
  69.5936966  29.9635124  27.7704811  70.1153717  31.3248215  28.1775227
   6.5378671  67.1022568  44.1205673   5.6081190  66.9948654  43.9198990
   6.5501709  67.5640793  44.9588966   0.5537730  15.3183985  64.4687958
  -0.2511318  15.7753763  64.2248077   0.7285292  14.7316504  63.7329865
  14.2418280  12.7275858  74.0848770  13.9678812  12.3597250  73.2447205
  13.9159031  12.1063156  74.7360535  54.4635277  55.4651146  16.0466652
  53.9985657  55.2613716  15.2351637  55.0073204  56.2217789  15.8276310
  49.1899796  20.3074684  53.6893082  48.2860107  20.0036697  53.7716408
  49.1393585  21.0494080  53.0866508  50.2138672  23.5354443  75.6640244
  50.5894623  24.4157677  75.6502075  49.4958954  23.5714226  75.0319977
  46.9049606   1.3465841  34.2593613  47.5322533   0.8883885  34.8186455
  46.6293716   0.6894902  33.6202164  80.3556442  31.7078114  77.0537262
  81.0648651  31.0649853  77.0492706  79.9314423  31.5905476  77.9037399
  30.9996605  71.0530548   8.5660200  31.7564087  71.1739807   7.9924841
  30.3114166  71.5878906   8.1704140  37.4321785   1.1564801  76.8142929
  36.9117584   0.4262028  77.1490860  37.2597885   1.8731958  77.4248886
   9.3649359  33.5555153  85.4958191  10.1047020  33.1151505  85.0774231
   8.5933113  33.1009140  85.1579361  16.4401855  37.1893845  88.7789307
  16.2653942  36.3157234  89.1287766  17.3581200  37.3544044  88.9943314
  28.6882553  49.6910019  61.7478256  28.0225658  50.2000694  61.2852898
  29.4872570  49.8214569  61.2371330  77.2010422  29.4348125  87.9306259
  77.4892273  30.0463562  88.6082611  76.5346909  29.9167347  87.4407730
  69.2548447  16.7575626  54.3507690  69.7467957  16.7885780  53.5302467
  69.3071594  17.6490955  54.6952438  75.0809174  44.5222397  19.3942966
  75.7132721  45.2381210  19.3321018  75.5887451  43.7823372  19.7272930
  81.2853470   8.5635281   6.1766515  80.8526917   8.1312389   6.9129739
  80.5707550   8.8059464   5.5877328  74.4607086  57.0921593   1.9771827
  74.2991638  57.8983459   2.4672849  75.0904694  57.3444824   1.3019292
  13.2612410  40.0733070  63.8972244  12.3240614  39.9158592  64.0118408
  13.5866547  40.2368355  64.7824326  38.1692696  45.6314468  51.4913177
  38.6236725  46.2420502  50.9108734  38.8017769  44.9291115  51.6426201
  47.8511086  64.3737259  84.1697845  48.2477150  64.8812332  84.8778610
  47.1330338  63.8990364  84.5884399  50.9721909  33.2012749  89.2987747
  51.0885201  33.8681984  88.6220856  50.4602127  32.5140877  88.8722916
  69.4659729  47.6383476  56.4508209  69.0858231  46.8190193  56.7677078
  69.6574478  48.1366196  57.2453575  26.0557747  49.7557335   9.4464159
  26.4334698  49.8401718  10.3218861  26.7933941  49.8962212   8.8527708
  40.2586708  38.8044014  54.2436600  41.0878029  38.4219513  54.5308952
  39.7884140  38.0775909  53.8352013  72.4779129  40.5029259  87.8240585
  73.4345016  40.4688721  87.8211060  72.2665405  41.2490501  88.3851776
  16.2023697  68.0350800  65.0895157  16.1754780  67.2604752  65.6512146
  16.4963379  68.7395935  65.6669846  68.2827148  22.7546272  48.7031631
  67.5346756  22.3366394  49.1297226  68.3820801  23.5904446  49.1589813
   9.1001120  29.4707985  63.8896484   8.2290764  29.7693405  64.1511841
   8.9601364  28.5830212  63.5602684  86.2456970  12.8861198  85.8808899
  87.0195847  12.9713573  86.4377289  85.6203461  12.3947058  86.4135056
  65.7155609  19.6796093  61.5426941  65.3097839  20.0750732  62.3141747
  65.1306915  19.9087543  60.8204384  37.9991150  51.6138229  44.6373596
  37.5279236  51.3919220  43.8342590  38.7972565  52.0470467  44.3348465
  10.9447727  24.0227051  13.2071667  10.6843500  24.5455627  12.4488583
  10.5079489  23.1806984  13.0789442  62.6018105  15.8278046  34.8162041
  62.7799683  15.5217619  35.7054901  63.2411537  15.3680143  34.2720833
  66.7022781  31.5892143  84.4006805  66.0273819  31.7232056  85.0661011
  67.1896973  32.4128609  84.3846588  56.6022186  64.5030594  15.3321514
  56.9014931  64.4422531  14.4249754  56.9934921  63.7441559  15.7648201
  85.9770584  39.4796829  64.7992096  85.3442917  39.0129623  64.2532959
  85.5376205  40.2985725  65.0284271   5.9771490  56.7094307  73.2549286
   6.4920397  57.1754761  73.9136581   5.2941675  56.2637482  73.7560654
  43.9035606  58.5241432  34.6147766  43.4759483  57.8816910  34.0485306
  43.3696709  59.3137512  34.5269585  13.4830551  53.8495102  31.3508377
  13.6935329  53.5523949  32.2360802  13.5690432  53.0656090  30.8083076
  54.2047539  21.6108818  49.9055710  53.3985558  21.1450024  49.6836891
  54.8944054  20.9535542  49.8131828  10.6038198  33.7822380  78.1416321
  11.3937159  34.1582260  77.7531281   9.8945150  34.3485756  77.8376846
  42.1491394  24.0163021  79.1883011  42.5197182  23.3486958  78.6110687
  42.3026581  23.6811371  80.0716629  31.1979523  52.2343292  84.4854355
  31.2370224  51.3471107  84.1283035  31.7346115  52.1976624  85.2771988
  40.4929657  33.1606865  60.2028198  39.9408875  32.7990799  59.5095062
  41.3872299  33.0453873  59.8815308   9.7124100  26.8305798  59.6265564
   9.3625536  27.3419113  60.3561935   9.2524691  25.9927597  59.6789513
  41.1105576  34.5891953  76.1866379  40.9585724  33.9237251  76.8576660
  41.8489685  34.2529564  75.6787720  31.1602364  68.9277573  57.8170967
  31.5717125  68.1452637  58.1840210  30.2404957  68.8569031  58.0726128
  79.0515900  64.1000214  69.3192978  79.1064529  64.7061081  68.5804596
  79.9566269  63.8303375  69.4755630  57.4356194  30.1443405  32.4852715
  58.3463173  29.8632812  32.3965683  57.1652985  29.8137779  33.3419456
  49.9351273  68.2186661  47.2129173  49.6704597  68.4897385  48.0919495
  49.5922623  67.3295059  47.1230736  13.8167982  67.7276611   7.0529613
  13.0583897  67.2294083   7.3575773  13.4448900  68.5301514   6.6870089
  39.9287567  47.2354736  87.0691071  40.2608795  47.0841637  87.9540024
  39.7167740  48.1686897  87.0491562  74.2676086  18.6017151   5.6307869
  73.8417282  18.3194523   6.4402242  75.0091705  19.1319466   5.9226189
  79.7866211   1.5780779  53.8960762  79.5819778   0.7578243  53.4471512
  80.1988983   1.3059874  54.7159729  79.4329605  53.3299255  18.6318264
  79.1418991  52.6217842  18.0573254  80.3370667  53.4977264  18.3660030
  62.1418304  40.5484009  57.5958595  61.9663467  41.0506477  58.3915901
  63.0361900  40.2263451  57.7082558  72.4830170   0.8598156  80.6594162
  71.6934433   0.5810298  81.1231918  72.4859390   0.3384716  79.8566589
  82.2910385  51.7261353  32.7294922  81.6328659  51.2728157  33.2563095
  82.1479874  51.4049568  31.8392067  53.7940216  12.3190937  32.5980339
  54.1726608  11.4463921  32.4919319  53.0879593  12.1982679  33.2329407
   5.6816545  45.3713150  13.0784779   5.7461567  44.7941780  12.3175688
   6.1873336  44.9274635  13.7592974  49.5068016  66.3638535  19.0783882
  49.6212273  67.3113861  19.0054989  50.2896080  65.9958344  18.6685009
  77.5193481   6.6052866   7.6204400  78.3927917   6.9930501   7.6749649
  77.4352875   6.0905495   8.4230671  77.8730621  23.9862137  38.9293633
  77.9937210  23.0398693  39.0075150  76.9258194  24.1014805  38.8540077
  48.1886063  14.3458509  59.8238525  48.3848419  15.0385170  59.1930313
  48.3377151  14.7507639  60.6782799   8.2807646  56.8595810  77.3786240
   8.0360527  57.5656204  76.7804108   7.6557202  56.1593132  77.1910706
  80.2158890  27.9896851  53.8803482  79.8592529  28.5255356  54.5888023
  79.9615326  28.4499664  53.0805550  41.5826187  29.5454712  10.0258341
  40.7450409  29.8905354  10.3350658  41.4001274  28.6307468   9.8108702
   4.7204161  65.5442810  26.4591846   3.9715033  65.9513626  26.8946705
   5.0182071  66.2016525  25.8303623   6.7778397  44.2749748  60.2798004
   7.5751452  44.6371918  60.6662369   6.1801281  44.1682434  61.0197868
  55.8334503  41.8107033  66.8947754  56.6158638  41.9429245  67.4301071
  55.1066742  41.8650055  67.5153275  61.2384529  48.0743942  53.6728935
  60.9322777  48.9806252  53.6377678  61.9215279  48.0262680  53.0040665
  54.5407181   0.9885907  60.3377876  54.6585083   0.6274739  61.2163963
  54.9220695   0.3314138  59.7556190  71.5159225  30.0903397  57.3436432
  71.5903473  29.1364517  57.3155098  72.2120361  30.4020519  56.7652855
  52.1793633  37.4833412  86.3406143  52.4536362  37.6708603  85.4429245
  51.2384109  37.3206329  86.2745209  17.0141411  42.9236565  16.5957756
  16.4747200  43.7133598  16.6360588  17.8730602  43.2346268  16.3097935
  44.8735580  44.6438026  41.4811859  45.4293709  43.8646278  41.4949760
  45.3818245  45.3088226  41.9455605  41.3520432  68.0801315  67.2454681
  41.5765152  67.1782608  67.0163956  41.8493843  68.6152267  66.6269608
  86.2029572  70.6200104  27.6707573  86.1176910  70.2109299  28.5319309
  85.9982529  71.5426636  27.8225498  61.1066322  33.4226341  53.7467079
  60.6790009  32.6753311  54.1649246  61.9290161  33.0690994  53.4076958
  45.9068985  29.2713680  79.1574860  46.4271011  29.7879715  79.7729111
  45.4716644  29.9220505  78.6066513  44.9844780   7.7347045  67.9962921
  44.1528740   7.2609301  67.9820938  45.1196823   8.0084734  67.0890961
  83.4951248  35.8975601  63.4534950  83.6794357  35.4251099  62.6416779
  83.2743835  35.2124596  64.0844803  25.3977547  21.2903347  57.6575356
  25.1711102  21.8292522  56.8996239  24.9447155  20.4609108  57.5057373
  80.7236557  29.6514206  71.2869263  79.8583755  29.2655811  71.1503601
  81.1578293  29.0557880  71.8976212  23.5986137  62.3499413  86.0993652
  24.4202309  61.9741287  85.7832336  22.9898434  61.6115685  86.1201706
  13.1440287  58.1292000  82.6894913  13.0518847  57.7430077  81.8185196
  13.9127665  58.6953239  82.6203690  78.8664169  22.3886833  32.3297844
  79.6874771  22.8493023  32.5027542  78.7831345  22.3974800  31.3762550
  48.0066795  26.4803772  76.2269897  47.6981583  27.3440552  75.9529343
  48.2039032  26.0255623  75.4081650  67.9811935  59.6328583  79.6246643
  68.2043304  58.8385391  80.1099472  67.0267258  59.6112289  79.5557022
   5.7484937  25.5310154   6.9915009   6.7035375  25.4838982   6.9478798
   5.5101924  24.9205799   7.6892190  36.0082321  48.7978439  84.9802551
  35.3715630  48.0851631  85.0347519  36.1121788  49.0957832  85.8839417
  76.8595123  38.8466568  63.6485558  77.4601593  39.5860062  63.7424164
  76.6953506  38.5560455  64.5456772   9.7522545   5.6494989  69.5626068
   9.3046503   6.0137439  70.3262863  10.6794796   5.6618972  69.7999496
  53.1124687  31.0549183  23.8869743  52.5994339  30.8720379  24.6741104
  53.8619461  30.4624958  23.9465618  80.6686172  26.7723618  10.2533045
  79.9125214  26.6214714   9.6860447  80.9000473  27.6892605  10.1050930
  51.4002838  70.7850800  50.1467133  51.3673401  70.7812042  51.1033401
  52.3333130  70.7347107  49.9389839   9.7557507  47.8427429  20.8761368
  10.2502737  47.1040840  21.2311821   9.6798363  47.6528320  19.9410419
  77.5618591  31.8581486  71.1890640  76.8069916  32.3926964  71.4353790
  77.9683685  31.6194420  72.0221329  37.7263184  44.6298599  37.0389061
  38.0080910  44.9047813  36.1664047  38.1666298  43.7916985  37.1797638
  58.3320122  58.2105408   5.3553014  57.5976334  58.8137550   5.2410712
  59.0919342  58.7791557   5.4795189  42.3135262  42.2069969  55.5504074
  42.9639549  42.2714157  54.8511009  42.8281937  42.0541382  56.3428612
  10.4295387  57.1936150  43.8502998  11.1005630  57.5802269  44.4128761
  10.9057655  56.9091873  43.0702095  50.5649338  32.3944359  22.9998322
  50.4073601  32.5252342  23.9348679  51.3508034  31.8491783  22.9633503
  69.9031067  12.3981400  14.5892162  69.9038010  11.4681997  14.8160257
  69.2034531  12.4862823  13.9419489  51.1313591   9.1458616  78.5011826
  51.3487816   8.5487919  79.2170486  51.2425308   8.6203766  77.7088852
  44.1440926  36.1583099  60.6624756  44.2383156  36.2935562  59.7195740
  44.8923340  35.6114845  60.9019508  75.2499237  26.0531693  67.3098907
  74.4986801  26.5745220  67.5928116  75.9092102  26.6999321  67.0583496
  25.5131054   9.7038097  73.7122955  25.9415455   9.1687384  73.0441818
  26.1991291  10.2953529  74.0216217  16.4868622  30.1156540  79.9699249
  17.2208576  30.4188938  79.4355698  15.7189732  30.5359097  79.5826721
  71.0473099  12.0368013  88.0430298  71.4023209  11.4971981  87.3366089
  71.3261719  12.9268389  87.8278503  72.5143127  29.9143906  28.9490089
  71.6016541  30.0784378  29.1864319  72.7331009  30.6181221  28.3381672
  65.1101913  26.9616585  43.3855667  64.2898026  26.6726418  43.7851372
  65.3884811  26.2207184  42.8472443  46.1237106  67.0649185  86.1614075
  46.8247223  67.2464905  86.7873840  45.3919907  67.6063232  86.4575577
   4.6334419  64.0668182  75.4999161   5.1050858  63.3859940  75.0200577
   4.1773324  63.5959702  76.1974106  33.3099327  18.1691914  81.7086639
  33.2562103  18.5601997  80.8366165  32.8982391  18.8126659  82.2854462
   0.4025745  31.5405865  59.1600227   1.0693392  31.7984524  58.5234985
   0.2536972  32.3281441  59.6833000  77.2945404  32.7563782  49.1413803
  77.8439636  32.9134140  49.9093018  76.4157562  32.6269188  49.4980507
  52.4374504  50.7835846  66.9842377  52.3720894  50.5246048  67.9034119
  52.9204483  50.0696487  66.5680084  59.4039650  65.1431580   5.7395005
  60.2193680  64.7791672   5.3947496  59.6365242  65.4712830   6.6081133
  30.2643814  14.2849884  78.3016510  29.4069748  14.3638763  77.8834915
  30.5174065  15.1863279  78.5011520  74.0655746  18.8585739  44.6785049
  74.6094818  18.8549995  45.4661484  73.6528473  17.9949837  44.6685257
  50.6407547  30.4557896  63.8560600  50.0636024  30.6083183  63.1078224
  51.2759552  29.8125706  63.5413742  30.8430901  52.1045494  19.7342606
  31.6761208  52.3661957  19.3420448  31.0811939  51.4412537  20.3820095
  76.2452850  33.5977669   9.7370491  75.4648438  33.4044685  10.2564526
  75.9335327  34.1793785   9.0436735  71.9365005   5.3990541  48.2728691
  72.7331314   5.7858348  48.6361961  71.7087097   5.9669418  47.5367699
  32.5734787  56.1939735  56.2693748  32.6268349  55.8538094  55.3762474
  32.2205086  55.4667206  56.7819672  36.6412430  53.3168030   9.5425863
  36.3561363  52.8609467  10.3345089  37.5966263  53.3238907   9.6011190
  72.7284546  68.3917389   8.5513048  72.3542328  67.9513626   7.7882447
  73.0119095  67.6790848   9.1240263  66.1492844  29.2077961  21.7721748
  66.6147537  30.0164280  21.5584431  66.8407593  28.5547581  21.8800468
  62.6355171  26.8068581   8.8693085  62.7413902  26.0399494   8.3063927
  62.1501808  26.4821053   9.6277390  79.7911224  61.9095459  53.0047264
  80.3055878  62.7157631  53.0444717  80.1518326  61.3606796  53.7010536
   1.5676652  65.2852249  -0.2536356   0.7992106  65.8557587  -0.2396287
   1.9674964  65.4007645   0.6083494  41.8586006  70.8181839  58.3280716
  42.2515411  69.9719162  58.1143913  40.9177475  70.6446304  58.3581924
  87.0157166  60.9758568  82.8788986  86.2982025  60.7084084  83.4532471
  86.7102737  60.7601967  81.9977417  19.3891087  26.3143578   6.6978621
  19.2186165  26.2214031   5.7605662  18.5345383  26.5185738   7.0776515
  23.9422073  29.6106892  54.5552597  24.8169460  29.5126362  54.1791611
  23.8783417  30.5403919  54.7739067  49.3441086  24.6859741  17.7056694
  49.8674164  24.9518471  18.4617710  48.8218575  25.4591770  17.4920235
  67.3628540  33.9988022  83.1321411  66.4500198  33.7163849  83.1887436
  67.3161545  34.8944931  82.7977905   6.5700102  12.0800705  51.1939583
   6.4673090  12.8040056  50.5762177   6.2257986  11.3176050  50.7287712
  59.8525620  37.9412918  16.1245613  60.1706085  38.2914085  16.9567280
  59.9083290  36.9912758  16.2274475  18.4980030  67.9581375  21.0517578
  18.8197956  68.1848831  21.9242649  17.5688763  68.1873550  21.0721016
   0.0366046  49.5031471  13.2905645   0.9619363  49.5196609  13.5349426
  -0.1866452  48.5728264  13.2606239  16.5090561  65.3292465  21.4989758
  16.3511906  66.2723389  21.4555855  15.6353559  64.9425659  21.5569630
  82.2167053  55.2361870  77.5873871  81.8605194  56.1234169  77.5406570
  82.3937988  55.0009155  76.6766129  85.8157043  14.9632587  25.3133507
  86.4751587  14.3896093  25.7035847  86.1888580  15.2177916  24.4694309
  58.1691055  60.5569916  11.3993073  57.9297295  61.1217041  12.1341763
  57.9942856  61.0880051  10.6223297  40.8415756  42.0526581   6.1014528
  41.1309395  41.2739067   5.6260095  40.2056427  41.7230873   6.7364340
   4.7594180  60.7776337  13.5099020   5.6883426  60.9046135  13.3170099
   4.4361672  60.2393608  12.7874060  84.2112274  14.1745291  58.5921936
  84.3492126  14.4969635  57.7015610  84.8014297  13.4249363  58.6696739
  80.4110870  41.9934883  45.7146797  80.8879700  41.7264557  44.9288635
  80.1992340  41.1715660  46.1571655   5.1219244  61.9223480  78.1257858
   4.2622924  61.6086388  78.4065857   5.5112467  62.2945938  78.9170456
  25.9563580  29.6499596   0.8779191  26.8730793  29.9173756   0.8120320
  25.9921513  28.7493229   1.2001044  85.9475632  47.8005981  27.4389038
  86.2911606  47.0813370  26.9089661  85.1956863  48.1252403  26.9433994
  14.8124571  71.7753143  70.2964401  15.7000113  71.4192886  70.3379822
  14.2619534  71.0219498  70.0828476  63.7745743  15.6080914  43.8639641
  64.3819656  15.2525949  43.2151718  63.7886505  14.9719610  44.5790672
  51.8608932   0.5386943   4.5814586  51.6398735   1.0985361   3.8371744
  51.6045609   1.0491368   5.3495560  50.0151443  47.8762283  79.2489090
  49.1928101  48.2673988  79.5438461  49.8725204  46.9327927  79.3252106
  14.0926590  21.4834557  13.1712351  14.7717991  20.8251247  13.3182116
  13.7976294  21.7234554  14.0496368  82.5798721  24.5569096  16.4243908
  81.8070068  24.6883278  15.8751745  83.1930084  24.0801411  15.8649311
  30.8836784  18.1685543  65.7880402  31.7959843  18.2176399  66.0735550
  30.4070969  17.8639374  66.5602570   1.0925124   6.9341836  87.8868942
   1.2551125   7.5265679  87.1528168   1.5376126   6.1226492  87.6429138
  52.8765755  39.9770584  30.6026573  52.4217949  39.2998695  31.1034813
  53.3478355  40.4866142  31.2618217  67.4112854   4.7148948  48.8565216
  66.6003265   4.8040242  49.3571548  67.5112839   3.7715795  48.7285042
  57.3124237  15.3528347  55.9923210  57.0764847  15.2343168  55.0722580
  57.5658875  14.4788113  56.2890892  64.1010284  55.8113594  28.1618271
  63.6156616  56.5380325  28.5524635  64.1567917  55.1581688  28.8593006
  31.2680645  22.7568378  65.8563080  31.5566788  23.1228237  66.6923599
  30.3702126  23.0724354  65.7538834  14.1886091  36.7799301  18.8061581
  14.1786995  37.2187843  17.9555473  15.0369549  37.0105438  19.1847820
  77.1661911  25.8536663  72.7087097  77.2398148  26.5999832  72.1138763
  76.5635452  25.2546597  72.2679749  73.1579514  34.7778549  37.3332787
  73.8728867  34.5726547  36.7307930  72.5116348  35.2315903  36.7923241
  34.7161064  31.3838444  80.7048264  35.3715630  30.7747955  80.3647232
  35.0162544  31.5888042  81.5903397  68.4313049   3.4651585   3.8608723
  67.9113083   4.1795287   4.2289839  67.9178619   3.1548223   3.1150184
  76.9993439  37.5159683   7.6185069  77.6291885  37.8291321   8.2676992
  76.7825775  38.2917671   7.1014242  27.3408508  38.9499855  54.0950432
  26.3981018  39.0735168  53.9846077  27.7023163  39.0672531  53.2165108
  76.2327042  64.0097427  54.1828423  76.2568741  63.5135231  53.3646660
  76.3526764  63.3505211  54.8664093  40.6907234  50.4909744  40.7210274
  40.6907310  50.4897575  41.6782265  40.4741554  49.5901871  40.4803734
  13.0987797  45.8238487  64.5387497  13.4119596  45.3901749  63.7449760
  13.7991676  46.4336548  64.7707443  56.8512268   5.2534618  29.2601376
  57.6985435   5.3308477  29.6986561  56.7624397   4.3187752  29.0738316
  42.2504768  60.6763840   9.0720816  41.8922844  60.1677704   8.3445921
  41.6017952  61.3631172   9.2264891  36.4998169  57.2212067   3.7519290
  37.1661377  57.0894394   4.4263835  36.6341782  58.1212502   3.4551082
   5.0829306  22.5540218  21.2246132   4.7952065  23.1829224  21.8863773
   5.9532886  22.8582783  20.9674435  63.7098923  17.1301289  53.0317039
  64.5013046  17.6661530  53.0824471  63.2091484  17.5100842  52.3098145
  66.5047073  28.2637844  65.6435089  65.7445221  28.3542023  66.2181168
  66.5503006  27.3269978  65.4522400  23.0468254  67.7425613  35.5401344
  22.1098156  67.9170837  35.4518890  23.1533947  67.4604340  36.4485817
   0.6843821  24.2060318  16.7529240   0.1536045  24.6600418  17.4074326
   0.6582877  23.2869358  17.0190296  72.3391037  33.5078201  83.8370056
  71.5959320  32.9417839  84.0456543  72.8027954  33.0464478  83.1381836
  82.9983444  56.7955132  65.2242966  83.5668488  56.2346115  65.7519531
  82.1161957  56.6163445  65.5497894  66.7997742  50.8008347  14.5713701
  65.9044571  50.5922661  14.3046408  66.7328644  50.9904480  15.5072126
  59.9290428  13.7567902   4.8821831  59.6175804  13.6603317   5.7821374
  60.1475258  14.6853161   4.8025708  33.3592377   2.7295551  51.2778893
  33.9450150   3.4859419  51.3091507  33.9320717   1.9914293  51.0698814
  50.3642845  43.7825584   4.7869315  49.5544510  43.8284111   4.2786965
  50.1799431  43.1420670   5.4739699  85.7874451  31.3356915  20.9250546
  85.6343155  32.2412186  20.6552315  86.1887589  30.9225693  20.1605244
  85.3274307  48.3471756  59.4483643  85.8111649  47.5478210  59.6563759
  84.4105148  48.1189003  59.6012764  85.9928970   7.3516831  45.6057167
  85.3678741   7.3509402  44.8807487  86.1082611   6.4267402  45.8234367
  45.1111221  11.3682642  62.0027390  45.8506508  11.6653643  61.4725876
  44.9944191  12.0562487  62.6579399   4.3394070  38.3405113  84.1176987
   4.3388829  38.6616364  83.2159729   3.5419455  37.8154373  84.1854172
   1.2572658   7.4549885  59.9697800   1.2903998   6.7053185  60.5640259
   1.8239440   8.1095057  60.3780861  70.8265305  43.1987228  74.4388351
  71.4789352  43.8960381  74.3728943  70.9579849  42.8295441  75.3121338
  70.0106125   6.1122861   2.6516013  70.8745193   6.4310632   2.9128788
  69.8287430   5.3916183   3.2547545  18.8700390   0.5618657  52.2543793
  19.4735909  -0.1099073  51.9370804  19.4232788   1.3278053  52.4076538
  27.1418552   7.8864717  88.8651505  27.4677963   8.7846594  88.9221802
  26.7680855   7.8226671  87.9862518   8.7726431  62.3454094  59.6025772
   9.4402285  61.7864799  59.2048836   9.2547979  62.8866730  60.2277107
  67.0932617  15.6497240  22.2457561  67.7803726  15.2845192  21.6883125
  66.7158127  16.3598022  21.7265739  21.9168453  20.0532398  57.5335121
  22.7228584  19.7840691  57.0929184  21.7443466  19.3548508  58.1649590
  83.1455154  26.0252018  86.6041565  82.8489609  25.1603031  86.3208923
  83.9468613  26.1793671  86.1038437  23.9420967  44.8695831  11.9298258
  23.0153332  45.0029907  11.7309732  24.1120644  45.4443016  12.6761770
  11.1296387  24.0975685  73.4821243  11.5789709  23.4565468  72.9312897
  10.2023792  23.9849625  73.2729797  23.6348591  51.2285805  59.4744377
  23.4765892  52.1058311  59.1257019  23.9836903  50.7350883  58.7321358
  36.0435944  55.3221130  87.1881561  36.1024857  54.3724403  87.2924881
  36.6164665  55.5175858  86.4466476  10.3576765  48.4331093   9.4720154
   9.8822832  48.1389542  10.2490005   9.7274561  48.3429565   8.7572241
  78.5365753  71.5949020  60.5019493  78.7658081  71.9491730  61.3611221
  78.5833282  70.6454468  60.6141319  19.7976074  64.5128326  34.4081116
  19.3921623  64.4170990  33.5463219  20.5303211  63.8969917  34.3978310
  23.9771900  20.5799789  66.6828766  23.5446110  19.9178982  67.2220917
  24.4659061  21.1157627  67.3076324  80.8454285  10.7223721  11.3041315
  81.4455338  10.4857740  12.0113297  80.0069580  10.3405113  11.5636959
  16.9387283  57.2859459  22.6459389  16.3341312  56.7200584  22.1658688
  17.7777958  56.8268700  22.6079235  81.0705566  59.2787781  62.6458054
  81.4200058  59.1657257  63.5297356  80.7159119  60.1678429  62.6403542
  79.1446457   4.8706632  11.4478302  80.0488815   5.0777602  11.2118235
  79.0729828   5.1249990  12.3678350  17.3331890  48.3804169  26.7561550
  16.5654678  47.9754219  26.3526516  17.3313293  49.2789001  26.4260654
  20.9550171   3.1464674   9.2685328  20.9378643   2.2975180   8.8266926
  20.1415462   3.5730858   8.9992838  75.8820572  70.9834900  77.1771774
  75.6220322  70.2089996  76.6783905  76.8075256  71.1052628  76.9652634
  17.7698498  66.1708527  16.6766186  17.2645340  65.7363892  15.9894991
  18.5203285  65.5948944  16.8225327  44.9302330  54.6964912  36.9708710
  45.3875885  54.6806488  36.1301537  44.8443909  53.7747345  37.2142372
  44.8333206  51.5679588  21.4338017  45.0395851  52.5018463  21.4730663
  45.2219009  51.2032127  22.2289104  50.7172623  43.5164070  50.6304398
  50.7528458  42.8402634  49.9538383  50.4306145  44.3036499  50.1674995
  65.3224335  68.0391235  60.6468544  65.6201401  68.5413437  61.4053917
  65.5376892  68.5908432  59.8948517  86.7069702   7.6889119  17.9037151
  86.1033173   8.1176271  17.2970543  87.2993774   8.3862028  18.1849136
  79.3092041  33.5946503  79.5409317  79.2237015  32.6839104  79.8228378
  80.2459106  33.7087135  79.3802948  78.5707703  43.5588722  81.8328018
  78.5259171  44.0043831  82.6788177  79.5050354  43.5300522  81.6265259
  61.7493553  25.2595882  39.5014839  61.9849472  24.3959522  39.8404007
  62.3540573  25.4044209  38.7737541  16.2568073   5.3361602  27.5248737
  16.4548798   6.1405997  28.0043278  15.4753742   5.5479188  27.0142345
  67.2143326  36.3509254  82.1621857  66.2755432  36.5270386  82.0998306
  67.6212082  37.2173424  82.1600952  42.1580963  54.7119331  28.0241089
  41.4693146  55.3529549  28.1999016  42.3130264  54.2891197  28.8687744
  80.5331497  56.4801636  54.7700729  79.7200089  56.9490814  54.9575691
  80.8520279  56.2010345  55.6283493  77.0589218  58.7386436  45.9570732
  76.7798462  57.8685989  46.2423248  76.3656464  59.3242989  46.2613831
  41.3830414  53.5867386  66.2053909  41.2407646  52.7287865  66.6052780
  40.5670128  53.7728004  65.7409439   8.9858541  56.3951912   0.4405786
   9.9073067  56.1742935   0.3050738   8.6276865  55.6464767   0.9174172
  56.1967735  46.4223213  42.7654305  55.5884781  45.9810257  43.3582764
  55.9706421  47.3496704  42.8369865   0.4171859  19.3720150   1.9388590
   1.3222507  19.0625248   1.9027250  -0.1103574  18.5876236   1.7883190
  66.2591095  53.7730370  66.6068115  66.7220688  54.6105042  66.6300201
  66.7237701  53.2248840  67.2391434  45.1395798   8.1737499  13.5460110
  44.2923241   7.7288032  13.5258255  44.9244499   9.1025333  13.4605103
  85.6094971   6.6446958  62.3487167  86.5449677   6.4462008  62.3904037
  85.2623291   6.3395586  63.1869278  64.5685883  54.4284172  87.5438080
  65.0643616  54.5796547  86.7390900  64.4161682  53.4835281  87.5572128
  24.4630070  64.3825455  10.6895313  23.8890610  64.0321426  11.3707333
  23.9226341  65.0233002  10.2272863  18.3115482  47.0267792  81.3323212
  18.2659264  47.2865372  80.4121704  17.4142685  46.7798462  81.5562592
  78.6215591  44.3884048  36.0422096  78.6071243  45.3196602  35.8213234
  78.9550171  43.9603500  35.2536621   5.3982201  48.1279755  21.8914471
   4.8153043  47.3740578  21.8017349   6.1147304  47.8125343  22.4422131
  69.4716263  27.8093643  84.0257950  69.4050903  27.6444416  84.9663315
  68.5639420  27.8792763  83.7300873  78.0123138  16.2628422  62.9057045
  77.4444122  15.5695753  62.5694046  78.8839722  16.0370255  62.5809746
  36.9321518  10.7204075  13.3975725  36.3710327  11.3411951  13.8623333
  36.3583031  10.3225803  12.7428484  70.4002838  37.5159988  13.3216543
  69.4519958  37.5477257  13.4480305  70.5315475  37.8073997  12.4193869
  11.8481541  51.3929939  58.7806015  11.8416796  50.5454712  58.3357506
  11.7603130  52.0342979  58.0754433  55.1459808  44.3721428  30.0799065
  54.8866272  43.5840454  29.6025448  54.3806114  44.9448547  30.0304852
  68.8469849  23.8522091  86.6616440  69.3474731  23.1401825  86.2631989
  69.2682114  23.9960747  87.5090561  33.8990555  54.7242889  31.3734932
  34.4190331  54.8738937  30.5838890  34.4787560  54.2283669  31.9516296
  77.9098434   2.4957428  52.3331184  78.1543503   3.3555403  51.9907761
  78.6857910   2.1973433  52.8075638  10.1479836  37.1258278  21.1881771
  11.0823183  36.9909363  21.0298882   9.7488165  37.0800438  20.3193836
  34.0282898  25.3088284  64.0287170  33.2385216  25.8016987  64.2513657
  33.7360077  24.6682491  63.3802910  85.4645081  41.1461182  20.0142117
  84.7971268  40.4694519  20.1280251  85.2682648  41.7925415  20.6923389
  75.5712509  49.0610695   2.4904141  75.7501907  49.6943817   3.1854889
  75.0295105  48.3923187   2.9093685  28.1369534  60.8048515   3.2607608
  27.2653961  61.1588783   3.4376349  28.3567009  60.3053589   4.0471783
  54.8184204  48.8459892  66.7137299  54.2217140  48.5868645  66.0115738
  55.5522423  49.2633743  66.2625961   8.4528341  42.1316643  70.1291504
   7.9843516  42.4013824  70.9190903   8.7441578  41.2393036  70.3163834
  83.1934357  58.7702217  27.3453293  82.8795090  59.6259270  27.0530128
  83.3890381  58.2976608  26.5362186  27.9498672  57.9632072  25.6089458
  28.1618156  58.5640259  24.8945732  27.5870171  57.1918755  25.1734943
  67.8479843  49.2274551  28.0178738  68.2154617  48.5888367  27.4068413
  68.4848557  49.2704430  28.7311611  73.8954010  57.8030853  86.5946426
  73.5400238  57.7814674  85.7061234  73.5089722  57.0408287  87.0257721
  73.7598877   0.6663616  74.0788422  73.1651917   0.4203923  73.3702774
  73.1969147   0.7394666  74.8495255  76.4887619  55.9339867  59.5479698
  77.3485718  55.5740547  59.3302536  76.1198044  55.3109169  60.1739769
  38.6861229  38.4379578  88.8636780  38.9477768  37.5359993  88.6786346
  39.4395638  38.8180275  89.3154602  20.8801022   4.5910816  61.6337662
  20.5826149   5.3824944  61.1849899  21.8104992   4.7444353  61.7983131
  14.1545019  67.9288101  12.3908005  13.8962421  67.1683578  12.9116068
  14.3829145  67.5664673  11.5347834   1.8396991  12.9750376  33.4276543
   2.0778224  13.2900772  34.2995911   1.4315220  12.1234417  33.5838814
  78.7344666  58.5155182  19.9227676  78.3996201  57.8386536  19.3345795
  78.4252396  58.2536240  20.7899590  85.9306946   4.5658355  54.6171112
  86.4858017   4.5012035  55.3942261  85.0458679   4.3952899  54.9399643
   8.0558996  21.2604523   3.4209988   7.2791848  21.2618160   2.8615851
   8.1486168  22.1700516   3.7043080  42.7528419   4.0144939  13.9185371
  43.6074181   4.0651917  14.3467464  42.9369011   3.6304519  13.0612926
  75.5857620  41.4259872  15.4932499  75.7720718  41.4851036  14.5562201
  76.1225204  42.1132202  15.8879976  83.2770920  57.2007141  72.2547989
  83.1601486  58.0581169  71.8456345  83.3097458  56.5874176  71.5206146
  49.7612534   8.4988689   0.7717260  49.4224243   9.3193550   0.4136333
  50.2027473   8.7551584   1.5814356  39.2893677  64.2415390  85.2274094
  40.1896248  64.2268219  85.5522995  39.2706757  64.9698181  84.6065292
  57.2320976  66.7737274  14.1139536  56.8808556  66.0988770  14.6948547
  57.0180473  67.5991592  14.5487852   0.8963192  25.7557926  72.4975128
   0.8714995  24.8375912  72.7668076   0.4761205  25.7646122  71.6375198
  58.5765457  63.2279587  69.0733948  57.9544983  63.9389381  69.2276459
  59.3242836  63.4383621  69.6327286  33.7477608  49.1493034  55.3858948
  32.9754257  49.3313103  54.8505402  34.4401436  48.9627342  54.7518387
  72.3060608  69.9333954  44.2087440  71.8580856  70.7759171  44.1331329
  72.1004257  69.4786377  43.3919601  18.6684380  65.4406815  61.5463066
  18.5171127  66.3580933  61.7736397  18.1068459  64.9495468  62.1459999
  28.1673870  53.2556992  36.5645370  28.9427261  53.2374535  36.0035133
  27.5079384  52.7611847  36.0778999  13.9512281  66.9038849  39.6536636
  13.0155926  67.1059189  39.6540909  14.3788443  67.7497330  39.5197983
  28.2091370  62.8275299  67.4147491  28.0039635  62.5955009  66.5090485
  28.3133984  63.7789268  67.4005203  63.5843124   3.4531729   9.3964167
  64.0455933   4.0911007   9.9409361  64.0533218   2.6313486   9.5408745
  42.6319504  26.3670559   0.7755419  41.9868469  25.9617348   0.1960714
  43.2602272  26.7798500   0.1830041  84.8025436  68.2949142  55.5961304
  85.2333069  69.0146637  56.0572662  84.4190445  68.7032013  54.8199463
  72.1307983  52.2091103  81.4398422  71.8076401  51.3086014  81.4694901
  72.3690872  52.3480110  80.5232391   4.2213597  63.5595551  63.1083755
   3.8587942  63.9120255  62.2956390   4.3675489  62.6319351  62.9229507
  14.9561806  25.0751801  10.1894522  15.4208460  24.4879665   9.5932140
  14.3404455  25.5474186   9.6290140  28.8364601  60.1022072  23.7650528
  29.7442951  60.3577843  23.9286041  28.8659210  59.6347008  22.9303055
  77.9464722  31.7002449   3.4817507  77.1430283  32.2158279   3.4118807
  78.3101196  31.7022705   2.5963187   3.0161250  39.9885979  22.6610909
   3.6756761  40.5260620  23.0996761   3.0064824  39.1696205  23.1564827
  39.6846733  57.4839935  74.3874130  39.2251892  57.8611069  73.6371536
  40.5867500  57.3757668  74.0861359  62.0041924  70.2441864  75.4108276
  62.8174553  69.8716278  75.0701828  62.2528229  70.6374130  76.2473602
  30.0406094  66.0794678   5.5033813  29.6117001  65.3260193   5.9090710
  29.6615467  66.1269684   4.6257210  58.9520874  21.5687408  86.4358826
  58.0510330  21.8020477  86.2124939  59.4893875  22.0901566  85.8395081
  80.2153091   3.0806897   1.4195898  80.7795334   3.2607281   2.1715646
  79.6732330   3.8649161   1.3336813  62.8261375  33.1013680  31.8822727
  63.6960449  32.7226143  32.0089264  62.9951210  33.9973564  31.5909233
  32.6983604  67.3912888  78.0164795  32.3469238  67.7660980  77.2088699
  32.4121857  67.9926834  78.7039871  83.4030380  47.2711449  69.4131775
  83.3050308  47.7610664  68.5967178  82.7514572  47.6529541  70.0013046
  83.7730026  44.9535484  24.3746262  82.8497925  44.9067497  24.6230698
  83.8740005  45.8247986  23.9912777  84.8459015  60.2934570   7.3526645
  84.9964600  61.2213745   7.1722856  84.4656525  59.9508476   6.5438004
  16.2777176  30.7910900  66.4357071  16.9000626  30.3237000  65.8785095
  16.3561611  30.3672104  67.2903366  14.6217470  66.1548843  68.8794022
  14.6240864  65.8142319  69.7739334  15.4994249  66.5173569  68.7588501
  47.8166924  55.7565651  45.0215797  47.8540077  56.4582748  45.6715393
  46.8857803  55.5455399  44.9501228  37.1742821  17.6838188  78.1557999
  37.5805931  17.4051704  78.9764633  37.8960381  17.7087479  77.5275650
  81.5525513  39.5131798  47.8976212  80.6002350  39.5276794  47.8021812
  81.7259293  40.0725250  48.6547890  21.3637524  65.0903091  15.9145823
  20.6193810  64.6696777  16.3449440  21.2918205  64.8246536  14.9978027
  54.3506050  12.9149923  18.4853821  54.1643600  13.7031813  17.9751816
  53.4942894  12.5090818  18.6202545  41.1765938  46.6616364  70.7754288
  41.0964966  47.5402679  70.4041748  40.3306313  46.5000839  71.1931305
  70.5217743  54.9348030  44.1474648  70.4273148  55.6133499  44.8159561
  71.4109421  54.6016273  44.2683449  60.5391541  17.6882687  47.7461357
  61.2317696  18.3340969  47.6067619  60.9277306  16.8574581  47.4722862
  85.0534668   2.2916946  75.0275497  85.5808105   3.0757558  74.8746185
  84.1531525   2.6136203  75.0726471  77.9230499  30.7554760  81.5158691
  77.2878571  31.1631985  80.9272079  78.2639389  31.4805012  82.0396729
  72.8656235  10.1844854  65.0791321  72.4542465  10.8928127  64.5838776
  72.7177811  10.4160547  65.9960556  58.0066872  69.5400467   5.6960607
  58.1786499  69.4528351   6.6336403  57.0521202  69.5623245   5.6286869
  79.6682968  56.7015228  38.0974503  80.5442429  56.3418503  37.9575348
  79.8129120  57.4844208  38.6288528  38.0133247  61.3792305  71.6760788
  37.6957703  60.5300941  71.9832535  38.9589882  61.2625465  71.5847778
  76.7667465  40.6172333  81.8558273  76.0820923  41.2495918  82.0740051
  76.2920685  39.8123245  81.6483841  47.4490814   9.1957140  67.5610352
  46.8079147   8.9658909  68.2335815  47.0156746   8.9833908  66.7344131
   2.3099344  54.0388489  60.7020607   2.2004781  53.4155922  61.4202538
   2.7629671  53.5420418  60.0207558  60.4537086   4.8410330  37.9171066
  60.1853409   3.9334667  38.0604057  60.9751358   5.0613351  38.6889954
  54.4739723  59.5009460  40.5443420  55.1578102  58.8403740  40.4337158
  53.6610527  59.0418205  40.3331680  71.9396667  25.8558884  68.1563568
  72.2849884  25.1219349  68.6645966  72.2458649  26.6344166  68.6215210
  46.7594147  25.2270222   1.9901260  46.9621811  24.4174862   2.4589214
  45.9428024  25.5338459   2.3841252  52.9673576  15.4202757  71.9678345
  52.7303085  15.9745626  72.7113419  53.8485336  15.1079397  72.1732788
  70.2362366  64.2776031  32.0498047  70.5508270  65.0682602  32.4881287
  70.8271332  64.1653442  31.3051796   3.4147906  26.9068584  30.8048058
   3.4747422  27.7281876  30.3168945   2.8465474  27.1105080  31.5476780
  48.8938026  62.7752228  11.9291105  48.0096359  62.7773895  12.2958250
  49.0884514  63.6984329  11.7677946  22.6042385  14.5921545  67.8234558
  22.0603523  13.9174213  67.4170609  22.6389656  15.2948523  67.1744232
  46.0960655  49.0638580  85.8694458  46.3596344  49.9192467  85.5302200
  46.7800903  48.4657211  85.5684891  65.2451019  32.0979118  49.8867950
  65.5041275  31.9666119  48.9747124  65.9562683  32.6144981  50.2657547
  69.0595169  65.4027939  22.4939957  69.4085541  64.8513870  21.7937431
  69.1918259  64.8898544  23.2912521  16.6318970  61.4777718  50.5061646
  16.2204514  60.6136017  50.5185890  17.5626678  61.3018951  50.6438713
  11.7081900   1.5940450  34.9162025  11.9567375   1.8519964  34.0285568
  10.8360424   1.2117164  34.8191681  36.9678040   4.7543602  15.3812037
  37.2572441   4.2147379  16.1169109  36.0167046   4.8014402  15.4782944
  37.1492615  20.2442131   3.3306422  36.7127190  19.4428520   3.0417070
  36.6424484  20.5327148   4.0896807  14.4733124   9.2889853   0.3612413
  15.1720476   8.6588392   0.5370710  14.2872200   9.1860466  -0.5720353
  50.3234940  29.5385399  16.8141403  50.8983421  30.3018990  16.7588177
  49.8263054  29.5533466  15.9963255  50.0532875  40.4892387  29.7920551
  50.9647522  40.7805099  29.8170376  49.9111214  40.0740433  30.6427212
  38.3612709  52.0838623  29.7867126  38.3399582  52.6460571  30.5611267
  37.4904137  51.6879120  29.7541409  41.5918732  57.3606262  32.8956718
  41.7204552  57.3210983  31.9479733  40.7513847  56.9264565  33.0416565
  81.8272705   5.2247314  11.0886354  82.3636398   5.6294646  10.4069281
  81.6657181   4.3365188  10.7704954  28.2602978  58.2694778  79.5075531
  27.3229923  58.3498039  79.3308105  28.3935013  57.3363533  79.6742020
  72.9747467  38.4867744  24.4104404  72.9264984  38.1692047  25.3121357
  73.8956528  38.7164726  24.2863560  35.4704285  57.8613853  63.6344109
  35.7712555  57.6894875  64.5267029  34.6540871  57.3675041  63.5575562
  26.5189896  47.0919075  73.1158829  25.8948841  47.0854187  73.8416138
  26.6121655  46.1710320  72.8718796  15.6842699  52.5586624  23.5233727
  16.2467499  53.0799446  24.0961876  15.1790304  53.2053909  23.0307178
  22.3637714  65.6761322   2.7564313  23.1337700  66.2376480   2.6667964
  22.5530624  65.1300735   3.5194640  11.9376345   6.4235454  64.9110565
  11.2933311   6.0321450  65.5009003  12.6984558   5.8456979  64.9700012
  64.2700882  45.2709351  41.1841202  63.3157997  45.2893639  41.2564049
  64.5735474  45.8703499  41.8659134  78.6405258  51.4540977  68.3267670
  79.4217453  51.9408531  68.5894547  78.0233459  51.5851707  69.0465927
   4.3792982   9.8727455  80.8821411   5.3315449   9.9689655  80.8680191
   4.1400189   9.7238903  79.9673615  33.6143723   6.8927994  56.7368851
  32.8910141   7.4459395  57.0318832  34.1585312   7.4735665  56.2050667
  65.2587128  30.9773407  42.1210136  65.0738373  30.1575260  41.6628036
  66.1535034  31.1991882  41.8634033  43.9745255  38.4106445  82.8352737
  44.9040146  38.2706070  82.6545334  43.6026726  37.5294800  82.8741302
  70.3548050  63.9274254  27.1355133  70.6130676  63.0648384  27.4602852
  70.3875961  64.4934082  27.9067612  66.3372192  24.6660881  41.6577911
  67.2010803  24.2819424  41.8074951  66.4401932  25.1831112  40.8588448
  83.9889221  48.2671928  87.8244247  83.9754791  47.3475533  88.0895920
  84.0366821  48.2402496  86.8687973  70.0512695  37.1063881  55.9654007
  69.4325562  36.4060631  55.7581139  70.6811218  37.0905838  55.2447968
  59.8513756  19.5448818  15.0000782  60.0856934  20.0639133  15.7694511
  58.8944740  19.5226021  15.0085554  31.3643188  36.3106575   5.8277707
  31.9497833  35.8947296   5.1949487  31.1347027  37.1488914   5.4266810
  58.0356178  56.7607269  11.7633648  58.8100853  57.1384621  12.1801939
  58.2036362  55.8184280  11.7550917   2.7484984   6.8647966  50.5442505
   2.0994203   6.3886657  50.0263405   2.3979828   7.7531133  50.6095467
  11.2858143  34.8638344   0.7632841  11.1437159  34.0067101   1.1649972
  10.4405441  35.0894012   0.3748638  72.3794022  65.2125015  77.6474762
  72.4934082  64.8178482  78.5120468  71.7131882  64.6717072  77.2232971
  81.9326019  29.5523701  80.0224075  82.7665710  29.2787037  79.6405258
  81.7470779  28.8924732  80.6904984  57.1659050  27.1003761  53.0787392
  56.2485123  27.2160110  53.3262405  57.2385330  27.5242691  52.2235947
  32.3775101  15.5820742  82.4220428  32.0289993  16.0251808  83.1956253
  32.8797684  16.2569389  81.9653931  17.0467014  13.2060566  76.4704208
  16.9463520  12.3201752  76.8188095  17.9551449  13.2442932  76.1712570
  30.3381252  65.3961716  42.8765678  31.0792389  65.5158997  42.2827263
  29.8030205  64.7213821  42.4587631  79.2964783   9.6311369  88.7691422
  78.3958969   9.8852272  88.9707108  79.2080612   8.8616648  88.2067108
  65.4645920  23.8651619  35.0066223  66.3997803  23.9573555  35.1887321
  65.1048279  24.7401409  35.1522522   1.8006010  45.7668419  34.0318985
   2.6361008  45.4486427  34.3738403   1.8240430  45.5478630  33.1003761
  12.9794569   6.5473595  11.6524506  12.3427706   6.7192807  12.3462124
  12.4810410   6.6430254  10.8408709  61.6364975  19.8443146   1.0525556
  61.3873863  20.5912800   1.5968145  60.8042412  19.4503613   0.7910665
  73.6285858  17.9736004  30.8054352  73.6137924  18.4944382  30.0024776
  74.4502716  17.4848366  30.7587757  29.7827530  62.2804756  39.2641678
  30.6258545  62.6587639  39.0145531  29.9831238  61.3693886  39.4786530
  17.9919968  10.1117983  80.2591858  18.1918812   9.2040968  80.4879990
  17.2261295  10.3296394  80.7904282  43.3909454  28.3658981  37.9683304
  43.7722321  28.8081379  38.7267990  43.6532593  28.9032516  37.2208824
  84.0091248  51.2862206  66.0338821  83.1623077  51.0047607  66.3801651
  84.4324112  50.4764328  65.7487411  64.9763641  66.0280457  64.6231613
  64.8380127  65.5798416  65.4575500  64.1294098  66.4259186  64.4216843
  29.5104122  37.4229050   1.9852796  30.4067764  37.7359924   1.8638599
  29.1502552  37.9871292   2.6695087  46.0452003   8.0334253  57.0310555
  45.8014336   7.1200504  56.8808670  45.2288055   8.5206099  56.9197769
   0.8423859  12.9592619  22.6950397   0.7473270  12.0128632  22.8023891
   1.5145692  13.2060442  23.3302574  85.2986069  10.3622608  16.1724758
  85.8844833  10.7917328  15.5491486  85.4944305  10.7791567  17.0115738
  33.2329063  55.2425804  61.4958725  32.4352341  54.7692413  61.7323151
  33.5558052  54.7927589  60.7150841  75.0291443  27.9044361  14.6463137
  75.9803467  27.9405708  14.5456648  74.7493439  27.2229557  14.0351448
  44.8736916  49.5322151  51.8426628  44.2057915  48.8687782  51.6694756
  44.6191711  50.2764244  51.2971344  85.9472885  12.1680460  77.1912003
  85.8891144  12.7273388  77.9658203  85.8786774  12.7734604  76.4529572
   3.4951611  13.5954399  17.0102253   3.9082522  12.8738670  17.4844837
   3.4439025  13.2888002  16.1049213  66.6801834  61.7604332  71.0581131
  66.9794464  61.9940529  71.9368057  65.7589188  62.0197411  71.0420303
  59.9225349  27.1251602  63.0634384  59.6499786  26.2085838  63.0206299
  60.8455887  27.1126251  62.8103676  22.0327759  52.4012146  11.0111837
  21.1370983  52.1542778  11.2414351  21.9331799  53.0031929  10.2736635
  25.6968460  43.4922142  14.5210981  25.4961567  42.7516327  15.0933666
  25.2131538  43.3102684  13.7153893  15.7026615  52.4566536  89.1687698
  16.2116413  52.4679909  88.3581924  16.2851181  52.8430367  89.8227463
  71.9887238  68.4673691  69.6583633  72.7946243  68.2266159  69.2014236
  71.7961960  69.3540192  69.3533707  64.2614975  68.2469940  71.1234741
  63.6267357  67.8099594  71.6911926  63.9938049  68.0077438  70.2361603
  79.1468201   7.3830318  64.0530777  78.6094513   7.3630142  64.8449478
  78.5932465   6.9905639  63.3779793  78.8949203   4.4909987  14.6351671
  78.3258972   4.8894849  15.2936888  79.7644958   4.4962854  15.0352192
  70.1592484  20.3301296  15.8914881  70.4894257  21.1360626  15.4943914
  69.2886505  20.5617275  16.2149925  43.0755730  63.3115959  21.9738178
  42.5480423  64.0933456  21.8100662  43.8343163  63.4098473  21.3985901
  27.5313625   6.5403538  66.5431824  27.2182255   6.8728075  65.7019653
  27.8588657   7.3151369  67.0000076  73.8791199   1.6477773  70.2908707
  73.0790176   1.1422138  70.1478119  73.5796356   2.5537481  70.3667450
   9.8512001  37.2104340  65.5697937  10.4030800  37.1432724  66.3489914
   8.9580374  37.2508125  65.9116440  39.0339584  65.0741196   5.1556306
  39.4623260  65.6387024   5.7990398  39.4972649  64.2392654   5.2234278
  44.8530769  63.1865807   5.1090422  44.4139099  62.5808601   5.7060914
  45.1827812  62.6303482   4.4032583  45.7965546   4.0355401  52.1315002
  45.5809441   4.7401018  52.7425117  44.9864006   3.8844523  51.6446190
   8.2251940  19.0167484  72.5998306   7.8576198  19.8966255  72.5165253
   7.8589754  18.6806431  73.4178391  49.8962631  54.7866478  74.1708984
  49.6005630  53.8979683  74.3684921  49.8594818  54.8445816  73.2161636
  79.2247086  47.7774582  62.7205391  79.2825928  48.7302208  62.6489258
  78.3211441  47.6119537  62.9896393  64.0102081  63.0001221  58.9346809
  63.9410439  62.3303795  59.6150398  64.9313660  63.2600021  58.9471779
  82.7037888  57.1894341  46.5438995  82.3300705  56.3433762  46.2974205
  83.3814850  57.3521996  45.8877945  14.6297483  20.8490505  87.2965393
  14.7127342  21.7238178  86.9169006  15.0222511  20.2672462  86.6456375
   3.0755460  31.2450352  43.6868286   2.1972935  31.3382473  44.0559006
   3.0146656  31.6456070  42.8196106  80.5305405  19.2576542  53.2176819
  81.3383026  19.3591194  52.7142296  80.3337555  18.3221779  53.1687889
  38.2578125  54.9416580  53.4514618  38.8660011  55.3989143  52.8707275
  38.8179855  54.3950424  54.0025063  40.1045952  37.1145401  76.2748871
  40.2962761  36.2209549  75.9902954  39.3343506  37.3678894  75.7661896
  24.3245316  34.0731049  78.5923996  24.3180618  33.5939522  77.7637863
  23.9324551  34.9206085  78.3820648  41.8955116   6.7937031  86.8646851
  42.7689362   6.9905190  86.5261307  41.7086945   7.5072770  87.4747238
  16.2376499  62.1910553  41.0123940  16.6930656  63.0303040  40.9454308
  16.6542397  61.7509384  41.7533302  78.1927414  13.1980934  52.4108200
  78.8950806  13.3331280  53.0469971  77.3882446  13.2566204  52.9261856
  75.9500275  40.1886215   7.0246806  76.1243362  41.1206322   7.1558437
  75.0135880  40.1449852   6.8312912  83.6465378  45.7271500  58.7394905
  83.5825272  45.8736801  57.7957420  84.0242844  44.8514099  58.8208275
  40.7812920  71.3589935  68.3560562  41.7202148  71.4954758  68.2294540
  40.7257309  70.7228165  69.0690918  74.4552765  25.5346241   1.9971799
  73.4990845  25.5672188   1.9675273  74.7335968  25.9027843   1.1585935
  49.2539482  55.8013649   8.8013620  49.7204361  56.4767532   8.3089447
  48.6976318  56.2890167   9.4087658  59.8321953  47.0351486  34.1755447
  60.4367065  46.3482246  33.8945923  59.6031303  46.7996025  35.0745888
  78.8791428  28.1626244  89.4771729  79.3724289  27.4135876  89.1427460
  78.3144989  28.4219418  88.7490540  80.8754807  36.0161171  57.7135277
  81.2377319  36.0514603  56.8282318  81.6269302  36.1700363  58.2861252
  28.7674732  62.4791985  84.6734619  28.4855804  63.2194290  85.2108917
  27.9932785  62.2469177  84.1607285  46.6026344   6.3318620  69.8264084
  46.0884476   5.6672530  70.2848129  45.9539337   6.8504639  69.3505249
  46.0402603   8.2223320  20.1374016  46.7996407   7.9657769  20.6606178
  46.0158157   9.1769819  20.2028122  66.3610764  46.6235924  65.1730576
  66.2916946  45.7354050  65.5231247  67.2661743  46.8804626  65.3492813
  10.2106028   3.6600103  48.0948753  10.1384163   3.1674712  48.9124489
   9.3534670   3.5625720  47.6800766  86.6318512  24.3463173  86.1759949
  87.3576660  24.8735504  85.8421555  86.0726242  24.1984482  85.4133453
  24.9314327  30.6203651   8.5775681  24.9643745  29.8319645   8.0357466
  25.6446247  31.1672897   8.2482300  57.9768639  38.0933762  71.3233109
  58.4051971  38.1304741  70.4681015  58.2103500  37.2326622  71.6709976
  76.7615204  28.7181244  28.1121922  76.5789337  27.9914055  28.7078190
  76.7209702  29.4977474  28.6660633  33.9192467  28.8651676  87.7454758
  34.1563416  28.2663479  87.0373611  33.6803703  29.6787148  87.3012848
  71.9593811  43.1841431  53.7883186  72.5940552  43.8701439  53.5813866
  71.4284439  43.1021805  52.9960899  53.3501396   5.9224448  21.9951515
  53.6302338   6.7502851  21.6046925  53.2998428   5.3145790  21.2574520
  21.8363190  69.2145538  30.7781487  21.0398540  69.1382599  30.2527390
  21.5950336  69.8010864  31.4950809  56.5094719  28.1004200  39.2969971
  55.9800987  28.2400131  38.5118179  56.0185013  27.4547386  39.8052063
  72.4724197  40.7356644  12.7480850  73.2356720  41.2412415  12.4686632
  71.7403641  41.1214485  12.2669525  74.1003647  13.5704889  58.6854744
  73.3664703  13.8637638  58.1454582  74.0092773  14.0629044  59.5012321
  25.1452103  20.4154053  79.8148727  24.3379688  20.1263237  79.3893967
  24.8625298  20.7388611  80.6702652  76.2126999   9.3369617  18.8923016
  75.7443237   9.7256851  19.6310501  76.8206024   8.7162256  19.2940102
  37.4649086  51.5216980   0.9901313  38.1092453  50.8385773   0.8046432
  37.9632187  52.3380127   0.9507570  54.0669708  56.2205963  88.9549484
  54.2410049  55.9324532  88.0588913  54.9346657  56.3340836  89.3428345
  75.0688171  47.4045258  70.9605789  75.4752350  48.2659760  71.0552444
  75.1084366  47.0233154  71.8376999  55.0928612  57.0501823  36.2642746
  54.9060555  57.4725266  35.4258461  54.8185959  56.1414299  36.1410561
  31.7471790  63.6434517  70.6255417  32.0811119  62.8527870  71.0492935
  30.9259930  63.8303909  71.0804443  44.0918465  42.3363647  11.9607458
  44.3843231  42.7077560  12.7930679  44.6906281  42.7041283  11.3107891
  58.4795723  22.3005676  78.1330109  58.9168892  22.1637516  77.2926178
  58.5243454  21.4489632  78.5677490  85.5336685  25.6864738  79.2238159
  85.4157562  26.5768108  78.8927155  84.7033691  25.4783211  79.6521912
  45.9579926  30.1980648  16.4737930  45.0306435  30.4077148  16.3628922
  46.0551186  30.0299530  17.4110966   3.9055345  47.7658386  43.5539207
   4.1530762  48.3145027  42.8096581   4.7278376  47.6045570  44.0165634
  72.6953354  26.9699249  28.2113647  72.7470551  27.9056568  28.0165157
  73.0325089  26.5423565  27.4241333   6.1921849  48.0393906  88.8506393
   6.8436699  48.7367477  88.7765350   6.6014485  47.2835312  88.4294357
  71.1190186   6.7917213  36.2890892  71.1272430   7.3773842  37.0461655
  70.2051544   6.7809281  36.0045357  12.4219847  64.7586975  11.1720276
  11.8561954  64.3103027  10.5434904  11.8163490  65.2107697  11.7594500
  32.5416908  57.6055222  77.4799728  31.9368725  57.6577950  78.2200317
  31.9874077  57.3789673  76.7331924  18.9426556  56.1392479  68.5713730
  19.3046188  56.0094147  69.4479294  19.7035103  56.3353882  68.0246887
  34.3262749  28.9276123  77.1576767  35.0642662  29.1569633  76.5928802
  33.9507790  29.7696781  77.4148941  22.5293026  63.2430763  12.6426764
  22.1720161  64.1121216  12.8252602  21.7590084  62.6846085  12.5378351
  51.5360336  61.6932449   4.0845332  52.0228424  60.9778824   3.6752543
  51.8518867  62.4814453   3.6427145  76.3834915  60.8157463  39.0781479
  76.7099838  61.4115639  38.4038849  76.6400681  61.2253494  39.9043579
  46.9698563   1.0394759  38.5832214  46.7962303   1.7855126  38.0091858
  46.7428741   0.2735737  38.0558624  18.3091488  31.8544426   7.5511155
  17.4290085  32.2197800   7.6412024  18.5145683  31.5077000   8.4193344
   5.6665339  29.3655281  10.3313560   6.4696555  28.8694820  10.4899902
   5.9527349  30.2780285  10.2905607  78.4338684  56.1739006  68.7341614
  77.6621475  56.1480217  68.1684647  78.4286652  55.3296204  69.1851578
  36.1813698  46.2429314  63.6397171  35.5722122  46.6668510  64.2442474
  36.5237083  46.9583321  63.1037712  34.4499855  41.1971016  88.8177185
  34.0039291  41.3247719  87.9804840  34.1893501  40.3192940  89.0965500
   7.3468938  48.8227730  17.3626690   6.5308433  48.6912956  16.8799610
   7.1351471  48.5757408  18.2628746  63.2031059  43.8352699  22.5404186
  63.3400841  44.7814255  22.5879173  64.0416336  43.4581947  22.8067322
  80.8214951  36.0461044  15.8101978  80.3135529  35.2868080  16.0960274
  80.3361359  36.3905220  15.0605116  79.1763992  69.3207092   7.3844872
  78.8541183  69.3426743   6.4834418  79.8273773  70.0214005   7.4231658
  16.9974384  63.4878006  67.7336578  17.6195812  64.2097015  67.8232651
  17.3846436  62.9191322  67.0681381  20.5488873  47.8407478  20.3682632
  19.9944267  47.6154175  19.6212482  20.5428429  48.7976570  20.3910084
  54.4364777  24.9047508  57.2187500  54.5829124  24.2555885  57.9067764
  53.8573418  25.5526428  57.6200943  67.2440109   6.3778877  16.9441624
  66.3224335   6.4873109  17.1785889  67.6989212   6.3147836  17.7839890
  54.6960068  47.6752586  29.7084904  54.5903091  48.3567924  30.3722477
  54.8709450  48.1546822  28.8986874  38.7551384  56.8069954  10.7304621
  38.1134148  56.8669052  11.4381552  39.3628807  57.5276070  10.8965921
   7.3562417  36.1210709  86.8664703   7.5628743  36.5134506  86.0181961
   7.6193814  36.7822380  87.5066681  61.1130676  63.5031128  62.1713791
  60.4314880  63.0335999  62.6522560  60.8683243  64.4253082  62.2481384
  46.6483688  32.7046623  86.5741425  46.4160042  31.8884811  87.0169601
  47.1576843  33.1919212  87.2217712  17.8258343   1.7094873  83.4832077
  17.9968987   0.8904848  83.0182343  18.6537991   1.9161984  83.9167709
  70.9318542   6.2305927  68.8199463  70.9423370   7.0504608  68.3260422
  70.2790604   6.3723078  69.5055161  54.0664291  38.8245010  14.8045216
  53.9594650  38.8045311  15.7555161  53.2855682  39.2766800  14.4851131
  11.5406342  66.3523636   7.8988237  11.6872301  66.9554291   8.6275578
  10.6029396  66.4183502   7.7182479  20.4160824  63.1175728  66.8837891
  20.0415955  62.7689209  67.6927643  21.0853806  63.7359924  67.1767502
   3.5868039  60.5671616  40.4571304   3.4930367  61.5120201  40.3359528
   4.5133719  60.3949890  40.2896194  49.3691444  69.4586792  82.9358902
  48.7755241  70.2095795  82.9359055  48.7907257  68.6960983  82.9243622
  14.8463812  62.0007362  57.7592468  14.9863300  62.2132607  58.6820030
  13.9278421  61.7357788  57.7111282  58.9284592  55.2429810  47.1970520
  59.4717865  54.6187248  46.7160797  58.4317436  55.7005539  46.5187225
  18.4583454   9.0331669   7.0769119  19.2061272   8.6690292   7.5506821
  18.8007278   9.2320242   6.2054410  27.2706165  39.4242249  80.0633392
  26.6214771  39.9270592  80.5552826  28.1110802  39.6844559  80.4403458
  61.7940674  68.5820160  56.4409370  61.2258911  68.0845261  57.0290794
  62.6810799  68.3153915  56.6825027  71.8236008  24.3171558  33.5860291
  71.4852982  23.4225368  33.6239853  72.1544113  24.4857559  34.4682808
  83.8787842  63.5850525  68.9350967  83.3453293  62.9786568  68.4213486
  84.3055191  64.1404572  68.2826843  77.2753220  34.0306740  19.4095974
  77.8920059  34.5475883  18.8912029  76.4411316  34.4912033  19.3187008
  48.7033195  36.9660110  27.2964153  49.4325752  36.6793137  27.8461609
  49.0592995  36.9673729  26.4078732  69.1165695  34.8181343  65.7747040
  69.1027145  34.8431587  64.8179321  70.0028915  35.0936432  66.0086975
  85.9256821  57.1136818   6.4372268  85.7086105  56.3639870   6.9913669
  86.7307129  56.8548622   5.9887037   9.1601048  26.4629478  84.1351624
   9.9427176  26.2601814  83.6226807   8.8057127  25.6080208  84.3795776
  75.6526337  47.3333321  36.2469406  75.5286865  46.4500923  36.5944405
  75.1419983  47.3460617  35.4374199  84.4160919  50.4734917  33.6463852
  83.6632233  50.9512558  33.2983093  85.0893021  51.1430092  33.7678909
  84.0103455  14.5012875  81.3035965  83.6831360  13.6341505  81.5428467
  83.2652283  15.0855408  81.4438629  25.6911526  14.3836584  72.1972122
  24.8965263  14.1594486  71.7129288  26.1639862  14.9813566  71.6180649
   4.0222440  31.6537609  59.2513008   4.0740867  32.2362366  58.4934998
   3.8784974  32.2397346  59.9944038  73.0496063  10.3194609  52.4699669
  73.1271133  10.5289402  53.4007454  73.8012695   9.7554398  52.2880058
   1.4568459  29.5694256  35.6921043   2.1240611  29.3466835  36.3412895
   1.3932000  30.5236835  35.7317810  77.6207657  18.9466572  14.7899218
  77.7604523  18.8665543  15.7334814  77.9336472  19.8254318  14.5752335
   3.4794450  46.1060753  66.7576599   4.4084873  46.3312225  66.7084656
   3.3683853  45.4056244  66.1147995  18.7633171  17.5936985  13.9226856
  18.2247200  16.8513603  13.6486759  18.6664486  18.2332516  13.2171221
  10.9130745  35.8299065  54.1552315  10.5039253  35.5867844  53.3247375
  11.1492262  36.7509842  54.0452995   3.3160055  33.6387596   7.8844228
   2.6442256  32.9569244   7.8912883   3.8831568  33.4088020   7.1484265
  73.7651215  23.3822842  37.0844917  74.1446152  23.5398693  36.2199821
  74.2669983  23.9463921  37.6728210  66.6774750  48.1835175   9.9189310
  65.7788391  48.3528023  10.2018366  67.0167923  49.0437202   9.6716528
  63.5023499  65.4222717  80.8846893  62.6015625  65.1870575  80.6622391
  63.7141304  66.1448364  80.2936859  77.4024734  39.6054955  59.4999504
  76.5538406  39.9742088  59.7451096  77.4815674  38.8128586  60.0307083
  82.9116516   4.3620577  89.0541458  83.0578918   4.7705874  88.2009506
  83.7903214   4.2291393  89.4098206   0.8149877  28.6470051   3.2517271
  -0.0025060  28.6406479   2.7538359   0.9525043  27.7323303   3.4980807
  18.2673550  69.2519302  61.3890152  17.4925671  68.6930847  61.4492569
  17.9859276  69.9947739  60.8549728  46.8925362  71.3509521  87.7350845
  47.4986458  71.1276779  87.0286713  46.3711090  72.0728455  87.3840714
  77.2903442   5.5528054  32.4145699  77.6994934   6.3997407  32.2370110
  76.6790543   5.4253306  31.6890965  79.9470062  36.0306931  34.1737709
  79.4827194  35.2258492  34.4037437  80.0052795  36.0090027  33.2185936
  63.8548050  63.0364189  88.6961975  64.6062469  63.5751648  88.4485779
  63.9351234  62.2504539  88.1557922  85.4123611  24.0106201  43.8548012
  86.1289215  23.9233551  44.4834175  85.4069977  23.1790581  43.3807678
  59.1954803  56.1379585  74.1575699  59.8543053  55.7822189  74.7539139
  58.8537178  56.9088287  74.6105423  66.6781158  61.3829498  20.3586712
  66.2686157  61.6510391  19.5360699  66.3531952  62.0110130  21.0038052
  70.7261429  10.2446527   3.2616508  70.5916977   9.5681686   2.5979295
  71.0809250  10.9893932   2.7761407   6.7648339  41.7436752  86.7496185
   7.0516019  42.5072327  86.2486420   7.2893310  41.0206718  86.4055328
   8.9513769  21.3455582  22.8277569   9.2965727  21.0060387  23.6534672
   8.2763920  20.7162724  22.5735359  57.0937881  34.9640465  11.4132996
  57.9959145  34.6713753  11.2838898  56.7336845  34.3531303  12.0562143
  86.3614120  19.4802933  35.9214211  86.8626404  20.2053738  36.2945900
  86.2470627  18.8687649  36.6488762   8.8679848  21.0232620  87.5650864
   8.8754730  20.3914375  88.2840958   9.5911808  21.6186485  87.7618942
  81.2043686  53.8473473   7.1649489  81.3164444  54.3880081   7.9468431
  81.9456482  54.0788918   6.6053748  67.5328217   6.1825700  88.4896393
  66.8190613   5.5752139  88.6843338  67.5109329   6.2806129  87.5377274
  45.8707619  17.7666569  11.7439585  45.9450951  18.5336323  11.1761074
  46.0687675  18.0972672  12.6201563  24.1810455  62.3627701  56.5568504
  24.7369194  61.6002884  56.7176628  23.8501453  62.6046448  57.4218559
  58.4326553   5.2967625  67.0721359  58.9144707   5.6200228  66.3108292
  57.5185928   5.5113106  66.8858871  49.1830521   0.9254330  81.7534103
  48.7737007   0.9307002  82.6186447  50.1062317   0.7408448  81.9263229
  57.1551285   3.3835454  41.8832779  56.9432564   2.5001090  41.5818100
  58.0545311   3.5277278  41.5891418  19.1167316  31.6726017  78.6368713
  18.6259193  32.4750061  78.4594421  19.8786774  31.7253685  78.0599060
  49.7421875  27.8985386  32.0862885  49.8979111  28.3028927  31.2327805
  49.8284531  28.6181450  32.7115555  13.8358698  65.9753494  14.5362835
  12.9003210  66.0343246  14.3426294  13.9126358  65.2200775  15.1192932
  19.1463871  21.6481419   5.6864634  18.8682957  22.1501656   4.9203892
  19.0473900  22.2554722   6.4196625  53.3958969  38.1725731  60.9621086
  54.0094032  38.7680283  60.5316734  53.7509956  38.0589790  61.8437157
  52.9102478  23.4927330  81.4678268  52.2037735  23.9160080  80.9800110
  53.3039665  22.8858471  80.8410110  68.2994461  26.5033798  86.4698868
  67.4098282  26.7953892  86.2710571  68.2777939  25.5567665  86.3295822
  86.0857697   2.9654624  42.6128807  86.9654922   3.2988288  42.7894707
  85.8585281   2.4629788  43.3952522  32.2448349  70.0382919  43.7921181
  32.9055977  69.8950806  43.1145401  31.5761414  69.3757935  43.6184006
  22.3409729   5.9837413   6.1494246  22.8528786   5.3620849   6.6668496
  22.8211555   6.0618005   5.3250685  46.2719460  64.9861908  35.7643585
  46.4251976  65.8282471  36.1929436  45.8960915  64.4335556  36.4496078
  55.7594452   5.8309965  70.4342194  56.2135086   5.4285469  69.6938858
  55.7510986   6.7662048  70.2303925  19.7558212  71.6472321  20.2687511
  20.4282532  70.9974365  20.4732819  19.4863930  71.4396133  19.3740253
  32.9084625  18.1000195  67.4470139  33.3140755  17.2340679  67.4898758
  32.4245758  18.1788101  68.2691345  56.1086578  19.8773270  58.9797363
  56.6274261  19.9577122  59.7801437  56.7077332  20.1351795  58.2791290
  79.0232315  46.1786575  79.9838943  78.9984894  45.2314682  80.1197357
  79.9175568  46.4303741  80.2142181  62.1403694  61.5717506  77.6644669
  61.2443542  61.2683144  77.8104553  62.1318283  61.9244118  76.7746429
  14.9342728  67.4358597  82.0735703  15.4870071  66.9768372  82.7060394
  14.9385033  66.8733215  81.2991257  77.1810532  61.1386375  60.1154861
  77.2172775  60.4974174  60.8252449  77.1272354  60.6110802  59.3186073
  83.7851791  31.1646576  73.0165482  83.2587967  31.9144306  73.2940140
  84.4575195  31.5410690  72.4486465  49.0222435  35.9734497   0.9597770
  48.9359932  36.9246521   0.8964815  48.3345604  35.6320343   0.3881499
  80.0329819  20.8549175  25.6418819  80.5924683  21.4873257  25.1910210
  79.9747391  21.1835213  26.5390205  74.9235840  34.3622742  15.2851677
  74.2247009  34.2129059  14.6483936  75.1910400  33.4844933  15.5575609
  18.7900410  50.0066605  29.6249313  18.4463062  50.4877396  30.3776836
  19.3849449  50.6231575  29.1980190  24.2420712  70.4798660  67.4981003
  24.5749340  69.8184052  66.8915482  24.8627872  71.2049484  67.4259949
  85.7402802  22.7305546   4.9166985  85.3410110  21.8753471   4.7572117
  86.6789627  22.5506363   4.9689851  57.4758415   3.8498361  16.8025646
  57.2875862   4.7404709  17.0984726  57.9175606   3.4388905  17.5456924
   5.3956881  19.5987186  64.5881348   5.4634728  20.4704189  64.9777145
   4.4578643  19.4071293  64.5915146  47.7897873  56.5074844  82.2141647
  47.9721069  56.0626831  81.3864288  47.6172905  55.7987595  82.8339920
  57.4893188   4.6431546  35.3742180  58.0226631   5.3710670  35.6934662
  57.6970444   4.5850096  34.4416389  30.2205677  33.9049225  80.0619354
  29.5032654  33.9782677  80.6914902  30.8569241  33.3318634  80.4895935
  50.0672455  40.8667374  82.2342682  49.4817848  41.0329094  82.9730835
  50.0652199  39.9145432  82.1365204  34.1697922  47.9825249  18.8991318
  34.5143585  48.2833633  18.0582962  33.3092651  47.6196175  18.6893120
  78.6686935  29.7931366  64.4918671  78.8524551  29.8518162  65.4294281
  78.6374664  30.7030907  64.1965103  64.6132584  48.3425179  25.6750050
  64.8941498  49.2571373  25.6467381  63.9165382  48.3261070  26.3311634
  87.0059357  12.2926455  82.2461014  87.0996857  12.2060356  83.1947479
  86.1419067  11.9269781  82.0564346  23.1376438  69.2401505   8.9021330
  23.8613129  68.8888779   9.4209223  22.3504105  68.9062958   9.3322887
  68.4794693  42.6910667   8.6431799  68.9812012  43.0288429   9.3850746
  69.1378479  42.3088837   8.0629158  77.3271561  24.1571865  33.3992920
  77.8049164  23.4943275  32.9007034  77.5230789  23.9559689  34.3143654
  15.9404488  32.8452682   5.3514352  15.3114338  32.3479500   4.8287063
  16.3907394  33.4032555   4.7173066  79.7725906  11.8912401   5.8893714
  80.6906891  11.6979494   5.6997337  79.7954636  12.7247038   6.3595276
  71.6673584  45.4119644  34.3444824  71.6308899  44.6572113  33.7569046
  71.0379028  45.2077293  35.0360756  11.5034561  55.7903633  60.7654991
  11.0840673  56.1427841  61.5504456  11.4558859  56.5028915  60.1281052
   1.1992683  42.9645729  42.7838669   0.8938829  42.4646606  42.0268593
   1.8783534  43.5404282  42.4324837  60.2914238  12.2111435  37.5305672
  60.7879181  11.8993874  38.2872238  59.5932312  11.5657787  37.4198036
  69.5913315  51.5509071  10.9721355  69.2767944  50.7728577  11.4325047
  70.1188126  51.2060356  10.2516804  31.8906918  65.5804138  19.0068550
  31.3774281  66.3883743  19.0083313  32.1098404  65.4341965  19.9270859
   5.0374618  54.5886726   6.6475177   4.1266665  54.6043930   6.9415188
   5.5014648  54.1051903   7.3310213  34.1183319   2.3133008  21.6941242
  34.0009727   1.4769189  22.1445942  33.5196037   2.9119284  22.1406651
  52.1325150  70.2465820  83.3603134  51.9931297  71.0999146  82.9496689
  51.3658867  69.7316055  83.1086884  45.6831093   5.1803174  44.5658646
  46.1481743   5.9952006  44.3763580  45.7673912   4.6644006  43.7640190
  23.8453445  10.4429655  63.1810608  24.2523975   9.8302860  63.7935638
  22.9331856  10.1577520  63.1276588  30.5332870  69.4181595  14.0085840
  30.4936676  70.0173111  14.7540226  31.3774891  69.6032562  13.5971298
  38.0166473  48.7756462  17.0693512  38.6379967  49.3590088  17.5050621
  38.4658165  47.9311447  17.0333176  48.3204880   3.9785464  23.1705914
  48.0985565   4.4277129  22.3549767  47.9224663   3.1124399  23.0830116
  21.8507328  36.8334999  13.0623751  21.6607971  37.7420578  13.2962036
  21.2090893  36.6215019  12.3844500  27.6129608  32.2228203  80.8471832
  26.6643887  32.0952530  80.8602066  27.7409687  33.1039848  81.1984634
  59.6453857  16.3462353  15.7780066  59.8777657  17.2735729  15.7303038
  60.4844894  15.8869581  15.7433977  18.9970818  34.5152206  19.7410927
  18.7384987  34.3977470  20.6551857  19.9525394  34.4588089  19.7533207
  54.0689163  48.6531944   5.3702178  53.3799858  48.3405724   4.7838106
  53.9368210  49.6003418   5.4114280  72.4415436  35.1867104  88.2796173
  71.5690308  34.8923874  88.0182266  72.9392014  35.2160530  87.4624863
  51.7565918  18.1747665  78.1014557  51.4185028  18.7977180  77.4581375
  52.7066650  18.2065201  77.9892731  25.8619595  32.9461479  72.1474304
  25.9672394  32.0050659  72.2871246  24.9754524  33.0387917  71.7985001
  74.5309830   4.0256200  87.4789810  74.8284073   3.9877381  86.5699539
  75.0290451   3.3391593  87.9227524  37.8923187  62.9244194  32.0970955
  37.2542725  62.4772758  31.5410461  37.9499855  63.8077469  31.7329025
   9.4400558  34.6562805  70.2128143   8.7264156  35.0676498  70.7003860
   9.7207088  33.9284134  70.7675018  19.8307400  39.5734367  15.1780548
  19.9845123  39.7411652  16.1078148  20.7053127  39.4500847  14.8090839
   0.5249621  25.6039314  38.5357857  -0.4179958  25.7395115  38.6289520
   0.8667779  26.4622765  38.2855110  33.6416283   1.6967639  14.5221453
  32.8875999   1.1077191  14.4956579  34.3027840   1.2639273  13.9819975
  23.1809177  11.9108248  56.1408768  24.1373234  11.8999748  56.1034355
  22.9671803  12.7427835  56.5632439  38.7548409  59.0017471  64.8229218
  37.9362946  58.6398506  65.1623993  39.3360558  58.2454453  64.7427597
  62.2890053  68.8581543  35.4292564  62.5128632  68.0192261  35.0263634
  62.1998482  69.4618149  34.6917763  21.0242825  40.9439545   3.2937529
  20.1315098  40.8796654   2.9545560  21.2255993  41.8792229   3.2625115
  19.6987343   1.7350466  85.5126190  19.3240814   2.3279021  86.1640701
  20.2553654   2.2948787  84.9713364  80.3420868  33.1533394  53.6766357
  81.0802765  32.6747513  54.0538025  79.7889938  33.3706436  54.4270363
  23.1836033  58.1153336  86.0271454  23.2645111  57.3380623  85.4743958
  24.0807076  58.3116875  86.2971115  54.9552155   3.2306237  11.5983028
  54.1051559   3.2396355  12.0382462  55.5797729   3.4817245  12.2788200
  15.0441093  60.3703766  33.8765335  14.2944937  59.8123245  33.6694412
  14.7846651  61.2412949  33.5758324   1.2261261  57.7487450  52.0200615
   1.2847259  57.7305107  51.0648308   1.7031405  56.9690361  52.3042145
  56.5653191  36.1494255  81.9708862  56.9854736  36.2644081  82.8232269
  57.0647316  35.4495735  81.5501404  47.4052391  60.6804314  35.7270622
  47.2275963  61.2491379  34.9778976  48.3464012  60.5118713  35.6819572
  50.0562096  63.6489105  82.7257996  49.3436203  63.8816299  83.3210220
  50.6086235  64.4300690  82.6965561  17.4301491  68.4945984  84.1898041
  18.3852482  68.5575867  84.1825790  17.2520103  67.5542374  84.1746826
  25.4720631   0.9247485  14.9980860  26.4250946   1.0078915  14.9656515
  25.2785530   0.1690454  14.4433804   6.4544630  44.3770752  55.6037674
   7.2383318  43.9863052  55.2176590   6.1096616  44.9493675  54.9183273
   7.7220712  20.2163696  67.2245560   8.0649481  19.6873779  66.5042572
   8.4876642  20.4089050  67.7658844   3.5662358  12.2856607   3.7956886
   3.3284786  13.1612654   3.4906955   2.8018675  11.9881439   4.2891016
  26.2416954   1.6890156  39.3582382  26.8871517   2.3906183  39.4441071
  25.4408989   2.1330876  39.0793915  61.3833847  14.6555996  67.4450912
  61.8485298  13.8466787  67.2317429  61.9309387  15.0795813  68.1058960
  76.8432083  43.2683487  77.4361038  77.6689224  43.3573036  76.9601746
  77.0046616  42.5666313  78.0667801  75.1462936  43.9908218  75.2855606
  74.9118195  43.1242676  74.9533844  75.8352814  43.8225479  75.9283752
  63.6349258  60.8114395  84.0653000  64.2593231  61.2883987  84.6119919
  64.1568222  60.1263275  83.6475906  18.4024982  67.1020432  49.6643410
  19.0317421  67.7709427  49.3944054  18.9031925  66.2862549  49.6593056
  63.8104706   5.8134408  57.2539825  64.3730240   5.5122328  56.5405159
  64.3729858   5.7914391  58.0281410  40.1069984  32.3533516  14.0740566
  40.1082611  31.4196968  14.2850523  39.1853218  32.6077881  14.1188908
   8.6696930  17.0328236  77.0382767   8.0656338  16.6100235  77.6486664
   8.1054363  17.3949356  76.3551025   0.6641197  54.2523422  20.3604717
  -0.1447157  54.7632103  20.3925972   1.3291644  54.8332825  20.7298679
  28.1408157  20.8257427  79.0537415  27.6507645  21.6267834  78.8682327
  28.9000034  21.1204720  79.5567398  16.7082348   5.1856933  10.3434849
  16.5456200   5.9950433   9.8589849  15.8621969   4.7380738  10.3528938
  65.7472229   6.6215262  29.7884274  64.8244095   6.7226195  30.0216999
  65.8235931   7.0350180  28.9285278  31.1034412  23.4645634  11.4153748
  31.1893349  22.6922092  11.9742336  31.7143688  23.3082752  10.6952543
  25.1503563  45.5521927  68.1930008  24.3716984  45.8818169  67.7443695
  25.3091412  44.6946945  67.7984009  68.6811142  65.2334976  18.8780594
  67.8112488  65.4775696  18.5618420  68.5137024  64.5917435  19.5682430
  41.9763794  70.0617905  22.1882839  42.2456589  70.3401871  23.0636215
  41.0410690  69.8767014  22.2729664  54.3059235  68.0541763  11.1438856
  53.6968498  68.7205658  10.8257856  53.8792000  67.6904373  11.9196672
  60.3987999  33.4614372  38.4406586  61.2866821  33.3768768  38.0931664
  60.2503433  34.4056969  38.4913101   5.5931206  67.2318573  73.6695328
   5.8545170  67.6205750  72.8347855   4.6701398  67.4670029  73.7646484
   0.2397497  37.1993713  53.5029106   0.8928429  37.5301285  54.1195984
   0.2841770  36.2476082  53.5945740  31.4370403  40.0195007  10.7358742
  30.9517460  39.9157791  11.5543871  31.5850658  39.1245995  10.4301453
  20.4753094  39.0712128  87.5966187  19.6488762  38.7447319  87.2407455
  20.9871826  39.3175011  86.8261948  81.4783859  66.8188782  53.2972298
  81.4617310  65.8648529  53.3732758  81.4331055  67.1319885  54.2006340
  81.4889069  13.2076683  57.3363953  82.2889481  13.0566282  57.8397293
  81.7965546  13.5219984  56.4862289   7.7148285  55.8050919  22.5295620
   7.4351406  55.5492554  23.4085121   7.6997771  56.7620850  22.5424938
  35.4711685  65.0967026  57.0532074  34.8617592  64.6804276  57.6627693
  34.9235039  65.3733902  56.3185349  83.1226578  13.4981089  84.6510239
  83.3145523  14.4215536  84.4877472  83.9085236  13.1628389  85.0825729
  60.8266029  27.7261429  57.4446182  60.4727287  28.1271114  58.2384872
  61.6475792  28.1921844  57.2863998   0.4873682   4.6991706  24.5498333
  -0.3416023   4.3850441  24.9108944   0.2606740   5.0269098  23.6795292
  49.0091133  19.6811657  18.7957649  49.6006165  18.9566307  18.9992409
  48.2700462  19.5617256  19.3922100  49.1349182  20.3227654  87.1981735
  49.1094208  19.9357624  88.0732803  48.4850807  21.0249538  87.2277985
  19.6339245  53.7938995  75.7918015  20.4942398  53.5769768  76.1510162
  19.0698376  53.8852386  76.5597229  67.6197052   8.9176741  35.1690140
  67.7197266   8.2897158  35.8844833  68.2241440   8.6096525  34.4937325
  71.6230240  14.7939024  28.3515320  72.4311218  14.6402540  28.8410244
  71.2690582  15.6026917  28.7213993  61.4087486  22.0027771  27.5513802
  61.7439041  22.5365963  28.2717552  61.4883995  21.1015472  27.8639069
  41.8209877  67.4229736   0.1958359  42.4604988  68.1146164   0.0258978
  41.2527084  67.7841034   0.8761821  24.2023888  54.2646255  13.1865559
  23.8098431  54.8401260  12.5300961  25.1211185  54.1965065  12.9266977
  86.4190063  54.3393822   2.5807347  86.6625290  54.3242531   1.6551538
  86.0774002  53.4619446   2.7528958  15.4382000  51.8883667  44.3363609
  16.3315659  51.6995735  44.6235619  14.8945704  51.2668991  44.8205910
  65.9355774  24.9540787  58.3217812  66.5130081  24.3159199  57.9027824
  65.2383881  24.4265862  58.7115364  41.5184555  66.5235748  24.1287174
  41.3449478  67.0502777  24.9089165  42.3056793  66.0246201  24.3467789
  38.3048286  71.5494843  67.1384735  38.6011581  70.9687958  66.4376068
  39.0658569  71.6406021  67.7118530  31.1281948  62.3524246  62.8207970
  31.2405739  62.9357300  63.5713692  30.4409294  62.7649765  62.2976379
  52.7645645  45.7047920  32.2007065  52.4088058  44.8198776  32.1195259
  52.3149223  46.2069817  31.5211010  48.2085190   8.0663042  16.2962360
  48.1595650   8.4579945  15.4242191  49.1140404   8.2083015  16.5720940
  60.7975922  23.1523762   8.1523199  61.5391045  22.5646400   8.2970972
  60.8964424  23.4439030   7.2459688  11.1517124   3.0893788  56.6016884
  11.3909626   3.6047881  57.3719749  10.3590460   2.6210737  56.8636055
  33.0958481  15.3553400   4.2253990  33.3979492  14.4661055   4.0403938
  32.6165390  15.6140795   3.4382849  42.5519981  52.8697586  81.9415588
  42.0113297  52.3833122  81.3192368  43.2687645  53.2206001  81.4129868
  43.4791870  29.6352749  85.8184814  44.1196289  29.9808865  85.1966934
  43.0488472  28.9217758  85.3473587  28.9728374   2.5837028  21.6621342
  28.2728672   2.8214848  21.0540791  28.9563065   3.2718301  22.3272953
  21.9348564  47.1821480  62.0281563  22.4625778  47.7679863  62.5708656
  22.5216122  46.9191208  61.3190956  40.4099960  18.9938755  83.6760864
  40.3983917  18.0619431  83.8942566  41.1507225  19.3461685  84.1694870
  61.7263794   8.6651192  79.0562973  62.5015984   9.2156258  79.1668015
  61.0021172   9.2050362  79.3727875  76.9521790  50.2705536  39.8147812
  77.7449188  49.7481956  39.9369659  76.5139084  50.2432671  40.6653175
  10.8555288  11.2424831  59.1330376  10.7673721  11.0780230  60.0718765
  11.7831345  11.4449310  59.0114098  81.7988052  67.7671738   8.5377769
  81.6894989  67.7135773   7.5883508  82.3046341  66.9869690   8.7650547
  51.7931709  29.6891918   7.0146656  51.1302261  29.1094341   7.3896513
  51.6145210  30.5433464   7.4080291   4.0470581  48.4809265  49.2541161
   3.6624961  48.6245117  48.3894043   4.0677948  47.5289688  49.3519516
  64.7113190   8.3904543  82.5924835  64.8780975   8.9948797  83.3157349
  64.9014740   7.5251260  82.9548111  31.1928291  27.3267975  77.1209030
  31.3870239  27.1498432  76.2004623  31.4356155  28.2443676  77.2447968
  11.1003332  65.7094345  18.7644405  10.7590342  66.5968781  18.6540508
  11.2813644  65.6372910  19.7015934  72.5870667   5.0317326  62.6315117
  72.3930969   5.9061394  62.9691772  72.9929352   5.1888027  61.7789650
  27.3129883  67.7981033  48.1149940  27.3421268  66.9324951  47.7074356
  27.1283627  68.3972855  47.3917160  65.6153870  64.4477386  54.8564415
  66.2328491  63.7777061  55.1497536  66.0589600  64.8789139  54.1259880
  66.6156006  20.6637115  23.3701725  66.2081146  20.1461563  22.6756783
  66.4391251  20.1705475  24.1713467  66.3546219  55.4107170  15.2215672
  66.2126236  55.7991295  14.3583155  67.3030548  55.2949257  15.2790413
  10.1772165  53.1823997   4.0226445  10.7256842  52.5106163   3.6175230
   9.4383402  53.2824059   3.4224000  25.7168102  58.0826492  82.8335876
  24.9064465  57.8461456  82.3823547  26.4097614  57.6884766  82.3037949
  28.0967751   2.9395218  43.9064713  27.8159981   3.1812265  43.0238762
  27.7883129   3.6564109  44.4606857  15.2899609  67.1909027  52.2640533
  15.7995567  66.3826599  52.2067337  14.6129255  67.0951920  51.5942078
  55.4056778   7.6161757  83.4846039  55.3714218   8.5082922  83.1393738
  54.4880905   7.3614178  83.5814056  51.2842598  50.1072693  81.2466202
  52.1252098  49.7882042  80.9191513  50.7043228  49.3473167  81.1978760
  30.7249584  38.6167221  64.0604782  30.2216702  39.3254700  63.6597137
  30.6908932  37.9066238  63.4195099  22.1373558  61.5702286  64.7261047
  22.6143799  60.9239311  65.2466583  21.6161480  62.0554504  65.3657455
  61.0630455  48.7786102  37.2523270  60.3240089  48.5460014  37.8144226
  61.7213402  48.1074028  37.4322166  52.0344849  30.5358639  85.7127609
  52.2976799  29.6159935  85.6844940  51.4795799  30.6024475  86.4898605
  39.1011086  55.8344955  15.6396151  39.2540359  56.7451668  15.8916483
  39.3207893  55.8035507  14.7084789  50.6500816  13.6544371   3.0281010
  51.4895744  13.2685003   3.2781658  50.8708153  14.5383215   2.7344081
   8.8894873  12.0333824  63.5289764   8.6454153  12.9565258  63.5958138
   8.2480841  11.5760813  64.0727692   3.4628155  35.4973412  74.5772095
   2.9997072  35.5557518  73.7415314   3.5052164  34.5591965  74.7624741
  59.1974068  61.7129517  73.5545959  59.5838699  61.3755798  74.3627167
  58.3416862  61.2872238  73.5023880  32.5143661  11.4787779  45.7290535
  33.4633675  11.3570862  45.7577438  32.1733627  10.8544073  46.3694496
  83.3167953  19.0391903  26.1560974  84.2679749  19.0019436  26.0555859
  83.0597534  18.1355553  26.3394127  60.7072296  37.2700157  70.8197861
  60.5845032  36.9998474  71.7298279  61.1412354  38.1211052  70.8790588
  33.3700409  51.8418007  18.6959305  33.9901505  51.5315857  19.3558254
  33.9169197  52.2618332  18.0320587  74.8310013  44.5050049  72.0448837
  75.6173782  44.9712944  71.7612991  75.0325928  44.2142944  72.9343109
   2.2524385  47.0945358  69.0356827   2.2860682  46.3913689  69.6842575
   2.4477217  46.6627922  68.2039948  41.6761627  50.4614525   7.0727005
  42.3949356  50.2754402   6.4685521  41.6667595  49.7143517   7.6710181
  51.9516029  46.7790833  85.9793167  52.1690598  46.3884544  85.1329422
  51.0549583  46.4921112  86.1522598  48.6734772  69.3604660  14.2807417
  48.1801605  69.5447540  15.0800591  48.0966454  69.6457520  13.5721436
  12.0743666  13.7187233  77.0921173  12.2502069  12.8134975  76.8354568
  12.9140873  14.1654997  76.9849167  78.1738663  46.0818329   4.5128813
  78.0410385  46.4270325   3.6300297  78.9568634  46.5315132   4.8305874
  18.7198334  58.8823776  76.4039917  18.7764091  59.4435616  75.6306152
  18.7142315  57.9916115  76.0536499  84.2355804  32.7676773  42.6112366
  83.9233780  32.5580025  41.7310104  84.7915268  33.5375671  42.4911156
  40.0353699   5.0008945  23.0676003  39.8470116   5.9392157  23.0501156
  40.2158241   4.8099399  23.9880371  26.9940758  56.3079643  81.3389969
  26.3437881  56.1457214  80.6556015  27.6693306  55.6463242  81.1890106
  54.7906570  21.3414745  28.2811337  54.1573181  21.3785801  28.9978905
  54.7448311  22.2074757  27.8759499  33.0228424  36.5966339  12.2694340
  33.6270638  36.1382294  11.6854696  32.7828751  35.9433250  12.9265757
  31.1808167   1.3743044  55.7770042  31.4106674   0.4475263  55.8439560
  31.8469219   1.7450627  55.1981506  10.9426622  53.6297646  38.3629646
  10.1603022  53.9749413  37.9328537  10.9457712  52.6982422  38.1427612
  48.6804314  47.5370407  85.9150467  49.0793304  46.7207375  86.2163010
  48.6643562  47.4580383  84.9612427  45.2381210  32.9477768  64.9650040
  45.3817368  32.0398903  64.6979065  45.5145302  32.9745293  65.8810349
  48.4161606  30.5138893  12.4566689  47.8159752  29.9520054  11.9664688
  48.5269623  31.2867107  11.9028625  14.2277126  65.9510803  50.0505333
  13.7282190  65.8096771  49.2463303  14.3085861  65.0798035  50.4385757
   3.0467761  19.0518684  19.7844601   2.2765286  19.0966587  19.2179413
   2.6894832  18.9579849  20.6675014  65.4851456  60.0724030   6.7522497
  64.8501740  60.3988419   6.1146846  65.2687683  59.1454086   6.8527069
  77.7004471  22.9898548  12.0762606  77.4320145  23.8946247  12.2361546
  78.4974442  23.0656452  11.5515909  21.7503376  37.5467491  31.1772346
  21.6054134  37.1854095  32.0516853  21.3060493  36.9360809  30.5890827
  14.3237877  60.3215332  26.6483440  14.9793167  60.0284195  26.0154171
  13.8524103  59.5246887  26.8913860  79.8097839  38.0560646   8.8060741
  80.1185608  37.9813080   7.9031348  79.9983521  37.2020836   9.1951637
  47.2798767  47.6355972  66.3663025  48.2036934  47.8452950  66.5034943
  47.0390549  48.1199036  65.5765686  65.0173950  27.9906445  88.0777359
  65.4544983  28.7718773  88.4166336  64.6869888  28.2545586  87.2190094
  59.6825600  45.6518097  15.6462898  59.1162758  45.2136345  15.0110302
  59.3928566  45.3183174  16.4954586  22.2719193  68.2528305  70.2729340
  23.0246220  68.5482178  70.7851944  21.9396896  67.4933395  70.7514954
  59.2722282  59.2158508   0.7673467  59.4167976  60.0675774   1.1795323
  58.3928223  59.2765007   0.3942551  39.1587677   9.0187531  14.0805731
  38.3985634   9.5948210  14.0001812  38.8187065   8.1450739  13.8875055
  33.3018150  32.0590782   3.4969378  33.4762459  31.1975212   3.1180885
  33.4993591  31.9558372   4.4278240  58.5064316  59.6340637  43.4253387
  58.7036743  59.1608047  44.2336426  57.7210274  59.2069931  43.0833130
  18.4783821  40.4211388   0.3949390  18.9924011  39.6419945   0.1829156
  19.1314087  41.0915642   0.5957325  40.2825127  43.3533020  51.6444130
  41.0066681  43.7609520  52.1194420  40.3124161  42.4330101  51.9059563
  33.0567169   1.6788322  78.8528748  33.6675682   2.1011875  79.4567795
  33.5645828   1.5459493  78.0524673  54.4765205  14.2555399  36.0274048
  54.1196899  14.9343386  36.6002388  54.9489822  13.6682568  36.6174126
  65.1794662  50.0997620  60.6714554  65.8199234  50.8106499  60.6976395
  64.4594193  50.4056625  61.2229881   6.3167901  12.7517061  15.8766527
   5.6522999  12.4803123  16.5099220   5.8219104  13.1839008  15.1805687
   6.5944586  10.4130592  60.7932854   5.9604783  11.0740013  60.5149765
   7.4203973  10.6919861  60.3979912  21.7880001  33.8197861  72.3741302
  22.1470318  33.1163177  71.8333359  21.7694397  34.5815544  71.7948227
  54.8663521  37.8571243  29.6391048  54.0300484  37.4033928  29.5344257
  54.8633614  38.5259018  28.9542942   2.8390625   9.0386820  83.1373215
   2.6660757   8.1073360  82.9998398   3.5826693   9.2310486  82.5661163
  63.0297279  41.0404129   1.7978441  62.8583336  40.5074844   2.5742738
  62.1659317  41.3477631   1.5228466  18.0265198  13.0206022  10.4475403
  18.4965763  13.2697029  11.2432957  17.9117565  13.8422146   9.9700308
  47.5209923  49.2599258  77.2935028  46.7634544  48.6779633  77.2328033
  48.2651329  48.7110291  77.0461121   0.8920720  24.5940838   1.8160889
   0.1218494  24.7234001   1.2626752   1.4487559  23.9971409   1.3160952
  52.3440666  30.3401451  32.3191071  52.8967934  30.6321831  31.5942364
  52.5190277  29.4018021  32.3907547  84.5940628  28.9425640  61.4796562
  83.9803467  28.2096405  61.4305305  85.0615768  28.9198589  60.6447029
  69.2856522  21.6865959  24.3833122  68.7981415  22.2136822  23.7502689
  68.8083420  20.8578415  24.4230080   0.9771432  59.8477287  70.4054794
   0.9309026  60.4065552  71.1812439   0.8434743  58.9611435  70.7406387
  11.6681671  41.2292328  23.8379211  11.5014467  41.9228859  24.4761066
  10.7979479  40.9133034  23.5947342  70.8053665  52.0974731  49.8106346
  69.9004440  51.7854958  49.8055801  71.0916672  52.0166359  48.9008369
  56.2669563  65.3247452  69.2021561  56.2366638  66.2728500  69.3302689
  55.6367836  64.9774933  69.8334579   6.8661165  62.3069191  13.1194487
   7.4283266  62.5706177  13.8478823   6.3012257  63.0643730  12.9665003
  68.1437531  23.4750576  14.2582512  69.0529938  23.7598782  14.1665936
  68.1410675  22.5744038  13.9341412  13.7798500  64.5675583  71.6201248
  14.5353918  63.9884567  71.5199585  13.2699337  64.1755447  72.3290329
  55.9481506  62.6258049  34.0063591  56.8330841  62.2778015  34.1159668
  55.6581726  62.2811890  33.1617393  16.8560600  63.0354118  75.9383163
  16.7183876  63.9805107  76.0020676  17.1923962  62.7838058  76.7984314
  83.3197098  36.6144333  16.5352745  82.4444046  36.2824364  16.3356628
  83.7935715  36.5543861  15.7057676  67.2101135   2.2857339  12.1261034
  67.6860352   1.9293085  11.3759766  67.5596848   3.1703627  12.2331839
  50.4444427  54.8333893   5.0664859  50.3353729  54.4209366   5.9233513
  51.2320175  55.3697662   5.1573644  58.7778320  45.3785400  26.1530342
  58.6946030  46.3223305  26.0167904  59.6054802  45.1477165  25.7311897
  51.3770103  64.5013351  46.6691780  51.8994904  65.2315063  46.3373680
  50.5735092  64.5261688  46.1495628  71.3892288  17.2870846  81.5783310
  71.2389755  16.6185436  82.2466888  70.9604263  18.0705624  81.9225998
  61.5140038  71.5346985  55.5250397  61.9598923  70.7345505  55.8028641
  61.6791420  71.5863647  54.5836105  45.8482475  41.8274345  81.0570602
  45.0416908  42.2545433  81.3456421  46.1361542  42.3432426  80.3038788
  68.5185089  10.0760365  30.1503105  69.3224564  10.5462770  29.9294491
  67.8283081  10.5511618  29.6875877  20.9347000  12.4223728  66.8374100
  20.5463886  12.8505878  66.0744705  21.4827251  11.7289972  66.4698105
   8.9626198  36.1256218  31.1439209   8.3456602  35.4929848  31.5118389
   9.5998135  35.5910721  30.6701374  72.1250381  32.5030289  17.6114655
  71.6075439  32.8700981  18.3281898  72.6970749  31.8617306  18.0330563
  79.1878204  29.4282856   4.7014399  79.3861465  28.9202023   3.9148357
  78.8920822  30.2763844   4.3705268  77.0793304  62.6618156  25.2667713
  77.8466644  62.8962746  24.7447910  77.4331970  62.4476814  26.1299953
  46.9305725  53.4721031  61.4570045  47.3847046  54.2504883  61.1343384
  47.4660263  53.1691513  62.1903114   3.3375411  11.3121519  48.3033218
   3.2495916  11.1315842  47.3674316   4.0988646  10.7998161  48.5755920
  47.1007843  31.4932384  36.6112862  47.1687660  32.2930641  37.1327133
  47.9991951  31.3089104  36.3372192  73.4132690  60.6291389  55.3842239
  72.7981033  60.2987137  56.0389137  73.6421661  61.5062065  55.6917763
  70.9156723  22.6158810  84.8238907  71.3983383  21.9884624  84.2857361
  71.5574036  22.9275761  85.4620590   5.3106799   3.5694170  37.8454895
   4.7609587   4.2410440  37.4418106   4.7926297   2.7668984  37.7836838
  24.6093731  54.3486481  38.9264297  25.2483864  54.9035110  39.3736649
  23.9888477  54.0983734  39.6109314  54.2902756  18.9211807  45.9207268
  54.2291985  18.1969643  46.5436325  54.3992310  19.6990681  46.4677658
  60.0499382  66.9365692  13.6038408  59.1193695  66.7160263  13.5634766
  60.4762459  66.2776184  13.0558605  73.1228333  58.0206566  71.1496277
  73.5843964  57.1852875  71.0764847  72.2101746  57.8079071  70.9546127
  11.3387356  45.3719711  74.7209244  12.1572275  45.8597565  74.8124008
  11.1061134  45.4655380  73.7971497  75.1556396   3.1689684  16.2538242
  75.3675308   3.7251861  17.0034618  75.0562744   2.2927852  16.6261959
  38.2044640  33.0845299  77.9656677  38.0790596  33.8911285  77.4657669
  37.4186745  32.5677567  77.7875824  85.3712769  65.0673904  73.8691864
  84.4435730  65.1786346  74.0770569  85.3758469  64.5529633  73.0619812
  25.1921921   4.4958043  10.8244410  24.9343643   4.9014969   9.9966917
  24.3771076   4.1450453  11.1833811  80.3296890  49.5157852  37.1356888
  79.4314041  49.1990585  37.2305260  80.2378998  50.4584084  36.9968643
  23.5530090  59.2413330  31.0915241  24.1129780  58.7274628  31.6734200
  23.9103756  60.1281662  31.1367950  86.2709961   4.4647102  74.1450348
  86.0015640   4.9531517  73.3671722  86.7349701   5.1068416  74.6822739
  63.6704407  45.0932465  73.9136810  64.0743332  44.4234848  73.3618469
  63.7326393  45.8975563  73.3984680  15.2913847  39.8964005  37.8451042
  16.0314751  40.3282928  37.4185295  14.6480017  40.5936317  37.9722290
  23.5559235  20.4391632  62.4808998  22.7570057  20.8931217  62.2127953
  24.0821457  20.3889370  61.6829033  13.4861412  55.4706764  86.4256592
  14.3140907  55.5098686  85.9469147  13.7096996  55.7486076  87.3139191
  57.1700134  63.7887497  64.9830856  56.3529892  63.4827194  65.3768539
  56.9210091  64.0697784  64.1026077  34.2978058  57.2951736  68.0514069
  33.9104271  56.4673119  68.3356781  33.5995674  57.7310638  67.5628433
  17.7778168  57.4791145  42.6412201  17.0016155  58.0346603  42.7127380
  18.3706589  57.9682045  42.0706406  74.3254776  27.1582794  19.2791691
  74.9249420  27.6005783  18.6781254  74.5193558  27.5403442  20.1351299
  36.1647453  16.1710320  85.2433548  36.1184769  16.7123260  84.4552612
  37.0889893  16.1881771  85.4917755  77.4873199  47.1582870  73.6036758
  76.6336670  46.8681717  73.9251404  77.6846695  46.5648651  72.8790131
  49.6342545  34.4672890  16.1626434  49.9566727  35.3575745  16.0223808
  48.7886620  34.5842361  16.5956936  34.7421379  54.3251190  13.6407032
  33.8205643  54.5761948  13.7030926  35.1599503  54.7610168  14.3834419
  58.3331146   1.5573926  51.9179001  57.6343384   2.1555095  51.6529427
  58.1748314   1.4016271  52.8489838   9.6165705  69.7318192  28.4225445
  10.2597847  69.1592712  28.8405094  10.1407032  70.4100952  27.9965649
  40.7540092  50.1480637   3.1562042  40.3858833  50.6464043   2.4265664
  41.1918640  50.8046112   3.6979244  46.1079178  63.3212013  85.9364853
  45.6309586  62.4933052  85.9941635  46.4876633  63.4399948  86.8070679
  70.9992981  45.3183250  51.4602203  70.5370712  44.4838295  51.3814850
  71.0762024  45.6353645  50.5603294  30.2798958  46.9542999  83.5809021
  30.1750832  47.2164803  82.6662903  29.3849735  46.8677368  83.9093094
   2.2479177  29.5109348  55.1690865   3.1498430  29.8314953  55.1709595
   2.3061168  28.6342163  54.7893372  70.2936401  71.2921066  66.7388916
  69.4139786  70.9195175  66.6788940  70.1827698  72.2094345  66.4889755
  56.5123634  49.8523064  58.8031654  56.8128586  50.7603226  58.8411789
  56.6166229  49.6037712  57.8846931  46.3406296  49.8819962  38.5989418
  47.1712646  49.4202194  38.7131462  46.1558533  49.8144226  37.6621819
  65.7152863  17.4110203  67.4726257  65.4971848  17.7230682  68.3508606
  66.6412277  17.1742821  67.5256424  36.8268318  67.0727997   5.3094621
  37.5936775  66.5526657   5.0693898  36.3130608  67.1280136   4.5037160
   1.3375785  61.4686241  35.7068100   1.2633216  61.2469101  36.6350136
   0.4704458  61.2834663  35.3462143  17.2350864  54.5926666  46.7295570
  17.0442905  54.6468086  45.7931290  18.1621780  54.3582802  46.7719383
  16.3495026  15.1328402  16.4502316  16.5514069  14.5441961  15.7229328
  15.3961926  15.2172127  16.4325180  73.0308228  43.5983887  48.9085693
  72.3558731  44.2341652  49.1461754  73.0817566  43.6485901  47.9540443
  83.4986191  27.1767101  71.9377518  84.1151886  27.8534336  71.6582642
  83.5917892  27.1462803  72.8899155  71.1639252  45.7166901  38.1096878
  70.6606979  45.1794891  37.4977989  72.0634003  45.6699371  37.7856712
  85.0522003  56.6445999  57.2963715  84.4713898  55.8877831  57.2181473
  85.3614807  56.6165924  58.2017975  72.0806427  42.5910912  36.7735596
  72.7030258  42.1526451  36.1933556  72.4662857  42.5073891  37.6456261
  73.5720520  24.9120750  75.2586670  73.2521362  25.3468990  76.0491180
  73.8660049  24.0525570  75.5604095  36.7576675  19.5204144   8.0543289
  36.8343239  19.4841633   9.0077648  37.6439781  19.3489208   7.7360907
  51.6194763  17.7780533  16.8138371  51.3028526  17.1479492  16.1665726
  51.0803223  17.6173210  17.5882473  29.7829418  33.2658844  75.1102829
  28.9983120  32.8330231  75.4467621  30.2135487  33.6198578  75.8884277
   1.9422752  60.0021172   8.9300518   1.7011317  59.1062775   8.6943541
   2.8093963  60.1261635   8.5441170  69.3976669  70.2020721  39.9158669
  68.9757156  69.6007919  39.3021431  68.7068253  70.4351044  40.5360832
  25.5779495  40.2730980  86.2829361  25.1065674  39.9628525  87.0560913
  26.4326401  40.5455818  86.6168365  78.3616257  66.5919952   4.9930382
  78.4626999  67.5258179   4.8086767  78.9122543  66.1582031   4.3412218
  34.5972939  64.5859833  17.5261688  33.9067459  64.9927444  18.0495434
  34.9753151  65.3087234  17.0251904  29.9849548  41.3498726  69.8513870
  29.7432613  41.8163948  69.0512772  29.5328674  40.5088463  69.7841110
  81.5642853  71.1235809   6.6747913  81.9809570  70.9921875   7.5264654
  82.1914215  71.6510925   6.1801591   4.5979877  53.1682014  79.2814102
   3.8203614  53.3209267  79.8182602   4.4902220  52.2759171  78.9521027
  21.1341782  15.8140430  79.0389175  21.5925694  16.3193207  78.3675003
  21.0874538  14.9274120  78.6812439  35.1471405  29.3856010  64.9741821
  35.1221199  28.9577942  64.1182709  34.5813255  30.1513767  64.8758240
  12.7332258  52.7838974   0.6003817  12.6554508  52.4576035  -0.2961192
  13.6760521  52.8627510   0.7456162  64.7284012  67.3872910  83.9811859
  65.3339539  66.6634521  83.8211746  64.7645950  67.5250702  84.9277267
  69.7296982   0.8881039  83.1477432  69.8078613   0.7991488  84.0975952
  69.9972153   0.0355400  82.8045197  44.6235161  57.9826698  21.2102757
  45.5086823  58.2623024  20.9767876  44.2016068  57.7977409  20.3712120
  12.4329863  48.9365044  25.9498119  12.9567194  49.5632744  25.4507179
  12.4110909  49.2954102  26.8369083  75.5410309  51.5535812  57.2833824
  75.2180176  52.2551003  57.8488617  75.2092667  51.7753448  56.4133339
  72.6320114  26.6644325  41.3892708  73.4462967  26.1697426  41.4812622
  72.5532684  26.8233395  40.4486427  60.8625412  19.3249722  12.4895372
  61.0219460  20.1983261  12.1316624  60.6091118  19.4814816  13.3992138
  78.2580566  53.6903610  58.5537262  79.1540680  53.9381218  58.7817612
  78.1859436  52.7754631  58.8257446  74.5363541  63.0364799  26.4526043
  75.4119263  63.0381813  26.0658340  73.9790878  62.6414108  25.7820721
  39.8199768  65.9315414   7.5802350  39.9952354  66.8244705   7.2832537
  39.0014725  65.9989624   8.0718966  10.0281687  51.3756332  46.4391441
  10.4538002  52.1202965  46.8640518   9.9117775  51.6528320  45.5303841
  71.1721420  42.0199928  56.4282608  71.2676010  42.3014450  55.5183678
  70.7170792  41.1797295  56.3725739  63.5829697   5.1928043  75.3561630
  63.3545837   4.3933048  74.8819580  62.7634583   5.6850486  75.4044037
  46.2611618  62.6245537  13.4217625  46.3813629  63.1247101  14.2289953
  45.4710884  62.1067200  13.5762463  69.3374863  68.0625763  82.7746582
  68.4838333  67.7547455  82.4701233  69.2789612  68.0251846  83.7293320
  35.0970497  48.3440247  59.8268089  34.2686272  48.2321968  59.3605003
  35.7673950  48.1201744  59.1812401  20.7596111  45.3008194  28.6006527
  20.4675999  44.5550499  28.0764523  20.8544121  44.9489670  29.4857750
   1.5425051   6.3570313  34.4151039   1.4192603   6.4538131  33.4708176
   1.9594386   5.5013065  34.5157700   4.2608290  67.2197266  80.8630066
   3.9578657  67.4421082  79.9826736   3.6297109  66.5721970  81.1770554
   1.3403736  34.5719032  72.6758957   1.4816666  34.7014694  71.7380905
   0.5278267  35.0420456  72.8628922  13.3261318  11.0062704  28.9815197
  13.3821802  10.3140287  29.6402225  14.1597366  11.4715061  29.0514622
  80.3985519  65.5983582  62.0311279  79.7320709  65.8709183  62.6618004
  79.9279480  65.0414200  61.4109764  82.9295197  32.6064873  70.1942291
  83.1102600  31.7434406  70.5666733  82.6188660  32.4243431  69.3073578
  49.5156288  38.9295235   6.7690721  48.9040527  38.4699631   7.3444066
  50.3815460  38.6681328   7.0822663  12.3577423   7.4708552  74.0424957
  12.9014740   7.6127529  73.2676086  12.6243525   8.1594896  74.6515427
  52.8286667  53.0756149  88.1623077  52.5256882  52.1683731  88.1256638
  52.0259895  53.5969238  88.1487350  77.2180023  38.5367203  85.1243668
  76.9875641  39.4342728  84.8845215  78.1443253  38.5823936  85.3611679
  57.7899895  49.6271973  28.8059597  57.5979424  50.2903900  29.4689255
  56.9301529  49.3257790  28.5125961  75.2201538  37.8281212  37.7573128
  75.8048553  37.0954018  37.5637207  74.7233582  37.5420494  38.5238609
  73.9430923  59.9883766  21.3665962  74.5244675  60.3610802  22.0294170
  73.5826340  59.2030869  21.7784443  74.8208160   0.7214623  45.2571716
  74.6612701  -0.1247048  45.6752396  73.9487991   1.0452788  45.0314178
  31.9489498  41.1782837  23.1655521  31.5661011  40.9904900  22.3085861
  32.8907509  41.2270393  23.0016460  77.6546097  69.9060516  47.3513947
  77.7122803  69.4815826  46.4953957  78.5593262  70.1307373  47.5687561
  86.8950348   4.2686563  58.6268349  87.2835236   3.9505727  59.4417763
  85.9728699   4.0194221  58.6878357   7.3676968  16.6146965   7.7891765
   7.9115605  15.9244652   8.1686831   7.8474259  16.8966122   7.0103216
  56.3110924  39.7172813  34.4593201  56.7842255  39.1720467  35.0878868
  56.5942535  39.3964119  33.6031113  75.2453690  51.9854164  67.0451126
  74.6687927  51.2365379  66.8935318  75.4477310  51.9465561  67.9798660
  24.7189369  28.2284832   6.9909782  25.0674229  27.7224560   6.2569981
  23.9359055  28.6521797   6.6394472   8.3771772  22.1255283  16.7394466
   8.8078022  21.3428001  17.0831509   8.9738150  22.4506149  16.0652256
  31.6912689   5.0044761  62.0707359  31.1453819   4.4846773  61.4807816
  31.0688667   5.5366077  62.5664024  79.7058640  25.4226036  73.3075485
  78.7552948  25.5294132  73.2723160  80.0344391  25.9634037  72.5893478
  86.2603836  40.5450706  35.8631783  85.7230072  39.7798309  35.6585464
  85.8564911  41.2598763  35.3710823  86.2720490  44.4266243  17.8816605
  87.2284775  44.4643745  17.8889580  86.0693283  43.5553474  17.5410557
  76.6480865  63.3784256   1.2811507  76.2908401  63.0686798   0.4488846
  77.4407883  62.8576508   1.4101782  74.8776703   1.1755053  25.3120708
  74.2154465   1.5836971  25.8698082  75.6917648   1.2553881  25.8091583
  34.6235466  47.9154129  65.1821899  34.9976120  48.5876122  64.6125793
  34.7531891  48.2531624  66.0683899  65.5527039  49.9346809  23.2468376
  65.0462036  49.1943054  23.5808105  65.1096878  50.1811600  22.4349155
  75.8632126  27.6621552  25.2827950  75.9290543  27.8282490  26.2231731
  76.1852646  26.7672882  25.1745071  80.7797089  12.6149940  28.4535351
  81.1170044  12.1714010  27.6752758  80.9892807  13.5382881  28.3126850
  20.9626007  51.9246368  18.0088730  20.9381828  52.8218918  18.3413887
  21.8935509  51.7032814  17.9850693   1.4611045   4.5927310   6.6310558
   0.6607340   4.2189350   6.2623887   2.0494998   3.8447685   6.7338905
  75.8592300   9.0537281   8.6810064  75.4687042   8.4501905   9.3130369
  76.4565430   8.5096312   8.1677780  65.8180923  41.0435753  57.7876854
  66.5475998  41.6072617  57.5301666  66.1884460  40.1609535  57.7951088
  39.3565674   6.5021486   3.5339804  38.6603889   6.5777626   2.8814058
  39.2165489   5.6444907   3.9352918  74.9251099  70.1047897  28.2428589
  75.4627075  70.7408447  28.7147198  75.1797867  69.2577057  28.6086769
  62.0262566   6.0293913  14.4269562  61.3537865   5.5837879  14.9421749
  61.8725052   5.7371283  13.5285273   7.6111531  55.3017578  25.0854549
   6.9021511  55.4785194  25.7037621   7.9785299  54.4665337  25.3747082
  58.5824318  46.0731583   6.3370914  58.9253616  45.2409286   6.0114694
  57.6514359  46.0516357   6.1156960  66.6748962  70.5644913   9.1534777
  66.0491028  69.9429169   9.5253019  66.8401031  70.2379150   8.2690086
  48.4312401  38.7487488   0.8353603  49.2453766  39.2453156   0.9179973
  47.8699265  39.0916214   1.5307709  26.6173382  57.9313850  71.1356277
  27.0449924  58.0286293  70.2848129  26.1563587  57.0945015  71.0777359
  44.7963638  37.7319946  19.5174561  44.4874840  38.4644547  20.0506783
  44.1368065  37.6415482  18.8296795  15.3839264   0.2594845  39.8768272
  14.7294626   0.7855035  40.3364105  16.0847645   0.1362630  40.5170441
  81.7084961  67.1687164  84.1131973  82.6391907  67.2376556  84.3260117
  81.4044266  68.0754013  84.0719757  41.5263596  29.8402748  83.1680450
  40.5745811  29.8718796  83.2647476  41.6678200  29.3834553  82.3388596
  69.0005569  52.1861382  72.0152664  68.8949356  52.2034645  72.9664688
  68.9334183  53.1034164  71.7500839   1.8165523  54.2453346  17.6294632
   1.0917265  54.5937195  17.1103401   1.4718183  54.1988258  18.5212173
  74.8144379  35.7830124   7.5764160  75.3732681  36.5520782   7.6881552
  74.8973007  35.5593872   6.6494007  78.9855499  53.4248772   0.5027001
  79.0532684  53.7598953  -0.3913963  78.4964066  54.0988693   0.9746140
  69.5822830  45.6208534  40.8335953  69.9515381  45.9601555  40.0182686
  70.3271255  45.5750694  41.4330559  84.8791199   1.7440182  25.2993546
  85.4177780   1.2107142  24.7148304  84.0721436   1.8974276  24.8079491
  42.3952255   5.9633493  36.7426453  42.9367142   6.1995292  37.4958000
  41.7363586   6.6560445  36.6947250  65.2376938  54.8726082  61.9103241
  65.4950180  54.7988510  62.8293343  64.2865982  54.7650108  61.9185371
  80.1153870  49.1481972  45.3255157  80.2555923  49.4371338  46.2272301
  80.9202271  48.6842575  45.0947914  59.3777924  48.0849228  47.4107056
  59.7390633  47.4340515  46.8089676  58.7313690  48.5606041  46.8890800
   9.3486710  42.2220039  73.3521271   9.8878250  41.6639938  73.9126358
   9.9499617  42.5349960  72.6763229   1.1388086  20.3538837   8.3273830
   0.2043836  20.3134632   8.1237946   1.2263268  21.1154633   8.9005919
  81.2790909   5.3685298   5.3879948  81.6354675   6.2477841   5.5150280
  81.0123825   5.0893431   6.2638674  71.6985245  58.3278427  61.5440712
  72.4312820  58.9381905  61.4617577  72.0996094  57.4614410  61.4754524
  58.6039009  67.4675903  22.2868595  58.5698128  66.9456711  21.4851952
  58.5611763  66.8237228  22.9938488  58.5530090  32.4246368  70.3125916
  59.3723259  32.8600235  70.5479355  58.8008080  31.5120869  70.1639862
   5.4243226  39.3705902  25.3160095   6.0795102  38.7151260  25.0765781
   4.7188468  38.8668861  25.7219849  74.8464966  24.3743649   4.8123808
  74.1858139  24.7824860   5.3719916  75.0367661  25.0345249   4.1458840
   5.2720304  55.2546730  21.0199680   5.9204984  55.6932030  21.5707989
   5.6919913  55.1880493  20.1623993  68.3166962  55.7333374  53.7059441
  68.4439850  56.5558205  54.1787491  69.0451813  55.1799622  53.9875641
  15.6581621  28.1743259  77.8587799  14.8440933  28.3441772  78.3327789
  15.8670254  29.0070248  77.4354324  43.9976082  50.9323311   9.9393253
  43.3905563  51.6718788   9.9113140  44.1242256  50.7616119  10.8726292
  60.3891830   8.4737911  56.8795738  61.0513725   8.9495964  57.3809166
  60.8211365   7.6581545  56.6258316  22.1273575  51.0025864  73.1484985
  22.0571918  50.2115402  73.6828766  21.3104763  51.0282669  72.6502304
  14.7478561  42.9177895  78.4655762  15.2613707  42.3409538  79.0310822
  15.3189468  43.6697540  78.3086090  32.6137733  70.7937469  16.8551311
  31.8529339  71.0711746  16.3448486  32.5307655  71.2647705  17.6842709
  83.5109100  35.4566803  22.3807907  83.2354507  36.0321503  23.0943642
  82.7158585  34.9845695  22.1333332   4.9126501  59.7343674  69.9388885
   5.6377749  60.0782928  69.4172211   4.5605879  60.4996147  70.3935089
  83.3372574  36.7158394  59.1727943  83.5292130  36.4300003  58.2796631
  83.9485397  37.4353256  59.3306046  69.2197800  37.3979645   0.3546193
  70.1768188  37.4067841   0.3697430  68.9962540  37.2287369  -0.5606009
   3.1094656  20.4275932  80.9917526   2.7573178  19.7386036  81.5552368
   3.6387029  20.9689083  81.5775146  67.4467392  46.3560715  13.0534801
  68.3691864  46.6092796  13.0882311  67.1502380  46.4060860  13.9622250
  83.1767197  30.7400112  24.5540123  83.6695480  30.0989761  24.0417404
  83.1094437  30.3495941  25.4253807  60.1076965  23.5077343  25.7126465
  60.3549843  23.0734844  26.5290451  59.9999352  24.4277592  25.9538364
  69.9582062  39.8327446  24.1355896  70.7408981  39.3026237  24.2858734
  70.0967712  40.2254677  23.2737293  71.3553391  43.2389984  32.5033417
  71.0738678  43.7555809  31.7482567  70.7794800  42.4744110  32.4985390
   1.1314052  12.4695835   8.0104074   1.9999344  12.4878244   8.4123478
   0.9899035  13.3656912   7.7051201  54.0441170  61.8200302   8.5462704
  54.5212059  62.5753136   8.2025232  54.1847878  61.1317329   7.8961239
  60.0765190  58.8275986  36.5000992  59.6044922  58.3362236  37.1723862
  60.9945641  58.7763100  36.7661743  37.3853111  64.9375076  64.6912384
  38.0455933  64.4210281  64.2291641  36.9835663  65.4770432  64.0102539
  39.6338806  49.6391907  52.1297531  39.3459206  48.9772034  51.5011902
  40.4739685  49.9449005  51.7876587  78.7098160  38.3212128  32.5801010
  78.9698257  38.2992554  33.5010490  78.1239166  37.5711060  32.4786911
  23.9927444  64.8556290  37.2428398  24.8883972  65.1037979  37.0138206
  23.5580349  65.6847687  37.4423027  59.5386429  18.0915852  69.6996231
  59.0499382  18.8033428  69.2863388  58.8671494  17.5468044  70.1101608
  56.3239975  10.7512646  49.6271095  55.9852180  10.9571428  50.4983559
  57.1263504  10.2563229  49.7929153  10.4821777  12.3151817   2.6463773
  10.1138515  11.6224642   3.1947482  11.3383636  11.9801073   2.3801031
  61.3896255  23.9940052  23.3343849  61.9289284  23.2090855  23.4307499
  60.7234764  23.9121780  24.0168686  24.7741051  55.0151863  76.1142197
  24.4406567  55.5907936  76.8024902  25.5950699  54.6713600  76.4664001
  77.9540329  26.2573471  82.1913071  78.7100754  25.7835655  81.8446579
  77.3140259  25.5740681  82.3906784  38.8513107  17.5249863  63.0410881
  39.0774727  17.0727444  63.8538361  39.4999084  17.2178974  62.4076462
   5.9566689  71.1087875   5.2089729   5.1095424  70.8079224   4.8802066
   6.2814655  71.6991730   4.5291276  62.9754486  53.6960297  39.8629379
  62.8148460  53.3384361  38.9896889  63.7787933  54.2077789  39.7681694
  68.9264526  13.5723114  66.9520187  69.2569962  13.8305082  66.0916061
  68.7037201  14.3985796  67.3808517  39.4486542  25.3262329   2.2371857
  40.2314568  24.8334064   1.9910613  38.7715302  24.6592464   2.3505971
   9.1134224  29.2761364  84.0066147   9.6785278  29.3790169  83.2409134
   9.5709887  28.6418743  84.5585022  22.3441467  70.0018616  40.8058510
  21.9566612  69.3738174  41.4154778  23.2545757  69.7197342  40.7178078
  53.4827614  17.2544022  27.2814445  53.4191170  18.1775131  27.0363979
  54.1742477  17.2292957  27.9428444  59.0387917  57.2065659  85.5468521
  59.4277878  57.1327171  84.6753845  59.2546539  58.0947609  85.8310165
  78.8693848  45.9841270  13.6586981  78.3882828  45.8910141  14.4809542
  78.2112885  46.2760468  13.0278864  34.7489777  69.5128021  82.2092667
  35.1116829  69.7580643  83.0604553  34.9642487  70.2486420  81.6361771
  29.9059925  47.0718689  19.6292286  30.7277031  46.9251938  19.1607056
  30.1740818  47.2722740  20.5259991  49.6911049  48.6239510  73.3873672
  49.9163361  47.7057991  73.5373535  50.3647270  48.9405861  72.7855301
  58.2422600  33.6445274  18.2689915  57.4463654  33.8979874  18.7364712
  58.2323837  32.6874504  18.2806721  17.1695328  38.7608719  15.3139925
  17.3909149  38.0296326  14.7373571  17.9909611  39.2411880  15.4178429
  74.6122818  70.2919998  52.6343193  74.9820862  71.1643448  52.7702675
  74.9704895  70.0084229  51.7931824   8.5450802  64.0954285  63.6038475
   8.5169907  63.7422676  64.4930725   7.9458928  63.5390968  63.1061478
  57.7461395  19.5090542  54.2291489  56.8953171  19.3531113  53.8192482
  58.3021545  18.8011398  53.9036713  59.2804451  49.9114532  14.9680309
  58.6715279  49.5706024  14.3128433  60.0555840  49.3557854  14.8866253
  26.7002068  67.0372620  31.9253235  26.3535614  67.6106262  31.2417126
  26.4284534  66.1582565  31.6612492  38.4815788   2.9670644  60.3745613
  38.7326584   3.2683074  61.2477417  38.0175743   2.1442688  60.5292892
  37.7726440  31.2640038  64.8117447  36.8978157  31.0901146  65.1591339
  38.1505585  30.3962097  64.6691132  41.2063217  64.5090561  55.5783691
  41.1509819  64.9637833  56.4188385  42.1234779  64.2439117  55.5094337
   2.4977334  23.7574959  13.3939543   2.9805920  23.7813129  14.2200975
   2.0644970  22.9039497  13.3942709  68.8747787  15.4302187   6.9762759
  69.1427383  14.5300045   6.7917652  69.2896576  15.6367207   7.8138113
  70.3362045  51.6977806  25.8385544  70.5781021  50.9778709  26.4211788
  69.3808289  51.7333794  25.8857021  21.6050167   4.9752703   1.7897642
  22.1059856   5.5007453   1.1659547  22.0538883   5.1031327   2.6254666
  69.9553986  58.1478233   3.0086408  70.7493820  57.6192093   3.0886185
  69.8757019  58.3198624   2.0704074  47.1293831  51.4875145  75.7384109
  46.3532677  51.0194778  75.4304810  47.4046402  51.0071716  76.5192642
   7.6458497  67.2343826  53.3563766   7.7748256  67.0006485  54.2755966
   8.2949324  66.7135468  52.8834572  41.9724312  69.8026962  41.4151154
  42.4562035  70.4520721  40.9047203  41.8157349  69.0845032  40.8020210
  48.6952591  39.7917290  62.0014420  47.8693619  39.4214668  62.3129387
  49.1993713  39.9567757  62.7982254  68.9112701  36.1535950  52.4889603
  69.3170319  36.0653267  51.6265221  69.4355850  36.8198624  52.9332771
  78.2952576  58.8070412  12.0551004  78.8102875  58.0064545  12.1552887
  78.5026169  59.3242073  12.8334122  58.9885979  11.7216558  50.1921463
  59.6998711  11.1354866  49.9338341  58.3780670  11.6966238  49.4553566
  39.7559929  50.7363434  66.9588852  38.9711342  50.9687614  66.4626846
  40.1113701  49.9741211  66.5017700  15.4761477  10.4049244  50.3914223
  15.1020317  11.0536308  49.7952271  14.8561583  10.3630991  51.1194992
  56.4574928  45.7636299  79.8401642  56.0093155  45.7391052  80.6856079
  57.2556114  46.2651558  80.0066299  57.4221344  10.0563803  27.7747726
  57.2905502   9.1299381  27.5732212  57.1807747  10.5134020  26.9690990
   8.0383673  12.7389936  87.0421219   7.9557195  13.6908188  86.9835587
   8.8064098  12.5988932  87.5959396  61.8027306  30.5523109   2.8622618
  61.5320320  31.4638615   2.9719403  61.9981537  30.2520390   3.7498865
  12.8008127  25.6957397  79.3100204  12.7708960  24.8139935  79.6813126
  11.8961058  26.0051861  79.3545227  85.4532928  36.1014290  66.0268250
  85.7286148  36.9253807  65.6249161  86.2601547  35.5927429  66.1071320
  40.3294296  57.8856735  41.9031830  41.0311279  57.9934654  41.2611275
  39.5766792  57.5943413  41.3886681  41.9286613   4.7656455  88.8046875
  41.8583107   5.2640743  87.9905319  42.8597565   4.7963004  89.0245895
  84.6422119   4.4482403  13.6454821  84.5155029   4.0626917  12.7785740
  83.9828720   5.1401072  13.6986122  56.4103317  66.9782486   4.2221017
  56.9016151  66.1852493   4.0075645  55.7625427  67.0555267   3.5216539
   3.4750581  10.4514341  35.3835564   3.5357342  11.4064598  35.3617401
   3.8107774  10.1706018  34.5322876  14.8043861  34.1321220  63.7197495
  14.7182560  33.4096336  64.3417053  13.9118404  34.2917671  63.4129829
   9.1123466  40.1722946   2.5307596   9.5009680  40.4361877   1.6967542
   9.4547024  40.8025742   3.1646116  83.0471420  16.2279549  40.3040466
  83.9218140  16.6163616  40.3221512  83.1656036  15.3536282  40.6751976
  72.6279907  16.6120186  52.5978584  73.1040421  16.5906296  51.7677078
  73.3088837  16.5368500  53.2664185  32.8578491  69.8438492  12.5986023
  32.9683228  70.3976822  11.8257542  33.2529411  69.0074844  12.3523712
  33.7931366  63.7694550  58.7044220  33.8092842  62.8538208  58.4258766
  32.9980392  63.8453369  59.2319565  85.8609314  40.7354698  71.8408279
  85.4043121  41.2797470  71.1993484  86.6671753  40.4695396  71.3986816
  80.0753708  13.5273695  11.8459835  80.3692322  12.6183786  11.7858591
  80.3333969  13.8048582  12.7249908  82.8383408  47.5169106  85.2581558
  83.5709305  47.7464943  84.6864548  82.8262405  46.5597878  85.2593079
  63.8162575  56.6817665  83.8318329  64.5902710  56.1195869  83.8648682
  63.0806198  56.0847740  83.9684525  26.6950436  15.3414793  53.7021027
  25.9291515  15.9031754  53.5831947  26.4426727  14.5059958  53.3090286
  28.8180008  14.9726152   6.3089228  27.9867935  14.6255732   5.9850602
  28.5774174  15.4961157   7.0733166  23.2187099   2.2993736   6.8400636
  23.3297291   1.4746692   7.3131065  22.4747601   2.1435091   6.2582765
  50.2832146  55.1717682  58.6081390  49.4732513  54.8218880  58.2369576
  50.9347305  54.4891472  58.4475517  23.9671669  58.0453033   4.4107885
  24.0365276  58.5062218   5.2468371  24.7821465  57.5478401   4.3432117
  42.1084709  47.6141129  34.9070206  42.8815079  47.6163940  35.4715080
  42.4007835  47.1860619  34.1023102  63.0446510  11.2055197  44.8967361
  62.6238098  10.4370613  45.2822151  63.8650436  10.8722458  44.5332565
  68.8892136  10.9630756  58.3029289  68.8203049  10.6084566  57.4165154
  69.3181763  10.2703924  58.8053322  39.6164551  56.7399521   1.6744277
  38.6682472  56.6149559   1.6355923  39.8291893  56.6711426   2.6051483
  48.8825531  47.7016411  69.6982956  49.0875740  47.6582909  70.6322708
  49.4134178  47.0094872  69.3041687  85.6820374  12.5212526  70.0068741
  85.7827911  11.9748392  69.2274475  86.3005447  12.1540384  70.6384048
  69.2909470  16.1232109  18.1442490  69.2050476  16.8421593  17.5181770
  69.0431061  15.3428888  17.6483631  62.6649590   0.4292015  53.1248627
  63.4687500   0.7979908  53.4911156  62.9300537  -0.4204428  52.7726402
  19.1467972  29.4454479  84.5027771  19.8691788  29.0173874  84.9623032
  19.4210892  29.4595737  83.5858307  36.7259483  63.2190437  74.1039810
  36.3271217  63.2608032  73.2348328  37.6011467  62.8637009  73.9490891
  70.1227722  27.3922825  44.5108452  70.4537201  26.5061283  44.3644371
  70.0866699  27.7818451  43.6372490  85.3589249   7.7071176  24.7800388
  85.0695038   7.5425787  23.8826008  86.2216110   7.2957444  24.8327084
  10.8457661  48.8265572  56.6890030  10.2960033  48.9122086  57.4678841
  10.3634443  48.2265091  56.1202011  33.2442589  29.6025505  70.9082642
  32.7123108  29.2232227  70.2087097  32.6203537  30.0902767  71.4459381
  41.7830238   0.2456614   9.3510237  42.4550781   0.9236994   9.2814436
  41.2576447   0.5059246  10.1076412  27.0448856  54.7128868  77.3691330
  27.4448090  54.7864380  76.5025940  27.7674789  54.8591919  77.9796143
  82.8074265  11.1021357  66.1717987  82.6040421  11.3585482  65.2722855
  81.9704361  10.8096972  66.5325623  56.6577797  33.2372627  26.8134327
  55.9825821  33.8906517  26.9962425  57.3653450  33.4470100  27.4230118
   9.8616247  63.7586288  75.4205475  10.1922474  63.7383575  76.3186035
   9.0893621  64.3226318  75.4623032  53.8613548  51.6598549  32.3631554
  53.1244392  52.2095184  32.0965843  53.8045502  50.8912811  31.7954388
  48.2083435  34.1608086   2.9831872  48.5859261  34.6728859   2.2680354
  47.8386574  33.3883820   2.5554919  47.8987961  56.2800789  49.0570450
  47.6058540  56.7679214  49.8267365  48.1602516  56.9551506  48.4308243
   1.1368818  44.8712578  47.5434418   0.4807145  45.4825020  47.8781853
   1.6370720  45.3818130  46.9067497  38.7311668  17.8432388  75.8976440
  39.3365326  18.2551975  76.5141296  39.0675583  18.0841122  75.0344772
  13.8184357  40.1022148   2.7051826  13.8114243  39.3850517   2.0712621
  14.3117123  39.7586403   3.4500756  22.5238571   5.4726238  70.9213562
  21.8440590   6.0125346  71.3245926  22.9109020   4.9898677  71.6516800
  59.3768959  33.2979927  45.7848663  58.8656502  32.4903412  45.7343216
  59.3843689  33.5188370  46.7162132  31.1963520  59.0269089   2.2285314
  31.9550552  58.9244232   2.8030720  31.5094261  58.7514572   1.3669374
  60.1412544  65.9800568  61.9925575  59.9046097  66.5966034  62.6854477
  59.6794815  66.3013153  61.2181015  52.3513947  44.1600456  45.4166603
  52.3507347  44.1987305  44.4602432  53.1335983  44.6472549  45.6755371
  83.0516434   5.7496419  61.5904694  83.9230270   5.9975181  61.8994637
  82.4502411   6.2366071  62.1538658   2.6021690  57.1910362   2.5142052
   3.1766994  56.8010712   1.8553635   2.9958673  58.0432816   2.7010560
  27.6365528  55.8586502   9.8656244  28.5359745  55.5914040   9.6762714
  27.5210361  56.6737556   9.3772736  26.6367912   3.4589925  76.8830872
  25.7515793   3.3564506  76.5336380  26.7125854   4.3941498  77.0727386
  37.3564644  54.0670662  50.3506660  36.7653809  53.4918900  49.8648415
  37.8248405  53.4816589  50.9457779  79.1272125   0.2874331   4.5022807
  78.7546616   1.0584388   4.9300485  79.7946243   0.6393712   3.9132695
  26.9060516  52.4097786  74.7288742  25.9552898  52.3037834  74.6964645
  27.0387936  53.3529472  74.8239975  27.9060383  46.4077911  68.5875168
  28.0501556  45.8231812  69.3316193  27.1025448  46.0838089  68.1804962
  50.0748329  27.4674797   7.9492588  50.5089264  27.5379467   8.7994528
  49.1971092  27.8189411   8.0986195  52.3036461  42.4894371  10.7374010
  52.6977348  42.5760689  11.6054001  51.6909790  43.2224960  10.6782742
  31.3732872  58.1566277  36.0410194  30.8203850  58.9206963  35.8775368
  31.0100918  57.7635612  36.8346329  81.7686996   5.7281752  21.8050747
  82.6110687   5.7967210  21.3556843  81.8578873   4.9567890  22.3647537
  68.7252884  22.7170544   5.0651650  69.4314728  23.2426071   5.4411120
  68.6491776  23.0283184   4.1631932  42.9881058  51.6812401  77.3186722
  43.5726776  51.7676468  76.5656509  43.4084740  51.0247459  77.8741302
  77.2622452   3.2067804  78.2049026  77.1128845   2.5926697  77.4860229
  77.1701431   2.6761696  78.9962311  20.0535812  43.6125069  76.2542343
  20.9877815  43.8054962  76.1751328  19.8251781  43.8933716  77.1403351
  47.5555420  37.3695107  83.4482422  47.6173019  38.0416946  82.7695847
  48.4563560  37.0703011  83.5716782  23.1387730  13.1833553  15.5274296
  22.2579880  12.8548584  15.7078199  23.4120426  13.5979366  16.3457680
  67.8617935  63.5716896  15.9216270  67.1049194  63.5797882  15.3357019
  68.1617508  62.6627464  15.9128771   5.3826394   1.3828343  69.2650375
   6.1765871   0.8726293  69.4249420   4.9217978   0.9000174  68.5789261
  50.7285881  36.7744331  37.9667931  49.7719307  36.8010101  37.9484024
  50.9852333  37.6279106  38.3159904  62.7580681  19.7018471  20.1132507
  62.4651604  19.9691486  19.2420521  62.7336388  18.7452164  20.0911064
  57.1842804  71.2309265  78.7089996  57.3266144  72.1644745  78.8654480
  57.0825195  71.1599197  77.7598801  60.1672287  29.7455730  12.0538712
  61.1022263  29.9071178  12.1800356  60.1235695  29.1828709  11.2807655
  83.7317200  10.7053957  76.5355377  83.8253708   9.7897091  76.7981720
  84.5992050  11.0847979  76.6760712   6.5198965  44.6855507  65.5825272
   7.4537196  44.4769897  65.5558929   6.0883894  43.8384705  65.6942902
  75.1227951  53.6671219  61.0537529  74.8413315  53.3984680  60.1792030
  74.4960175  53.2509117  61.6454811  19.2379284  12.4243002  19.6559372
  18.6964703  12.7078962  20.3925705  20.0920200  12.8247910  19.8183193
  22.2955952  37.1765518   0.1004186  22.7989845  37.5254669   0.8360078
  21.7540817  37.9108810  -0.1889883  51.4096909  52.7694206  21.6237831
  51.2665138  51.9610405  22.1159782  50.5295219  53.0771370  21.4073467
  35.0184479  46.3742561  27.0499897  35.4743767  45.8290901  26.4087715
  34.8714294  45.7936287  27.7966423  56.6907883  44.2407455  61.0360146
  55.7461014  44.3850250  60.9813843  56.7962646  43.6130753  61.7509537
  63.5040436  65.9957352  76.4936523  62.5951347  66.0689926  76.2025299
  63.7410545  66.8827286  76.7643967   6.5887856  41.9028244  44.2104340
   6.2028532  41.1652298  44.6829224   7.1042643  41.4973183  43.5132408
  71.9847336  16.1259251  59.3329964  72.0366364  16.5142498  60.2063484
  71.0513840  15.9609146  59.1993294   6.8584385  56.7800522  13.9950409
   7.6013036  57.3392601  13.7677288   7.1862979  56.2208176  14.6993122
  51.4892998  35.4377136  64.2867126  51.2274590  35.0492859  65.1214600
  52.1045609  36.1303673  64.5273666  46.5792923  47.8672104  62.2417412
  46.4829407  47.0772705  61.7098198  47.5181351  47.9230576  62.4197426
  36.6304436  15.6311083  66.7069626  37.1621017  15.6791115  67.5014801
  37.1809959  15.1644344  66.0782013  86.1739960  13.6189890  35.4036140
  85.5273514  13.8623772  36.0660744  86.2158966  12.6638031  35.4493828
  82.0899734  22.1479130  47.4733353  82.7422180  21.8512440  46.8386726
  81.2576904  21.8204346  47.1323090  68.4620438  41.5962257   4.5793290
  67.7453613  41.0128136   4.8287764  68.2355804  42.4371910   4.9764776
  11.6166391  41.3565521  56.3289490  12.4371138  41.8480797  56.3670998
  11.7058516  40.8013344  55.5543480  50.9630051   0.9595949  30.6934185
  51.8477364   0.7297515  30.9774170  50.8159485   1.8346355  31.0524597
   7.6538696  20.1185322  19.3349209   7.3748240  21.0241108  19.1996746
   7.3886752  19.9176960  20.2324562   5.6577153   5.4563870  87.2961731
   6.3643775   6.0227413  87.6061783   5.4545622   5.7845354  86.4202271
  73.7159653  19.0367298  82.0936890  74.5364151  19.2753525  81.6622238
  73.3492050  18.3438759  81.5444412  44.4883003  58.8030396  88.1668549
  44.8338432  58.0549965  88.6539459  43.6887856  58.4731560  87.7567444
  83.4291992   6.9390106  87.6070480  83.8861237   7.3337951  88.3497391
  83.4679871   7.6049118  86.9205322  22.5075607  54.8893967  84.6443558
  21.5588150  54.9965057  84.7124786  22.7992859  54.7590866  85.5466537
  24.4517632  19.0119648  43.8895874  24.3792686  18.3715134  44.5972595
  24.1735649  18.5364819  43.1068039  64.7070541  47.4439125  79.9704590
  64.2774277  46.9187126  80.6456070  64.6641922  46.9023705  79.1823425
  57.2798309  44.2743759  49.4261284  56.4833107  44.0323257  48.9536858
  57.0962448  44.0467224  50.3375549   9.8829050  15.7355175  79.4786987
   9.2619667  16.2802429  79.9623718  10.1486139  16.2772923  78.7356567
   7.5603733  65.6044540   3.3619866   8.2718296  65.0456772   3.0492187
   6.7956038  65.3216629   2.8606040  79.8456573  23.4918365  10.5498085
  80.6825943  23.7068386  10.9615641  79.9522858  23.7589264   9.6368322
  70.5759048  59.4572868  36.7186432  71.1211777  58.8714294  37.2436943
  69.7000198  59.0738449  36.7637634  50.4199905  20.4483261  84.8029938
  49.7630043  20.2925587  85.4814758  50.6529922  21.3713741  84.9026260
  11.4673166  67.2254105  80.8585892  11.7390890  68.1386032  80.9505157
  11.5206146  66.8692245  81.7454529  45.6514816  10.3581171  17.0112324
  45.9194679  11.0857162  17.5724945  46.4027824   9.7650061  17.0129261
   7.4754610  32.0240784  36.6704102   7.3194041  31.2791729  36.0898972
   7.3643985  32.7919731  36.1098404  47.1197395  67.6869049  83.5924377
  46.6789093  66.8865204  83.3073425  47.2935600  67.5460968  84.5231323
  71.8607712  67.2668457   0.6647329  70.9322891  67.2055054   0.8892086
  72.2969131  66.6868439   1.2889255  70.2269669  32.0598335   0.0575821
  69.9874115  32.8079910   0.6044862  70.2376251  31.3162594   0.6602556
  52.6304207   6.9220290   9.8098755  51.9849052   6.9816737  10.5141392
  52.3453636   7.5723805   9.1679888  28.8836079  57.4542122   1.8486456
  29.5250893  58.1238022   2.0861018  28.0587597  57.9323082   1.7633100
  44.1791954  34.6701202  75.3513336  44.0879555  35.5049438  75.8106537
  44.9089317  34.2334938  75.7907333  13.7345619  42.0878944  73.2543106
  13.7318678  41.9294815  74.1983032  14.0467834  41.2666092  72.8745193
  73.3900833  65.7272339   2.4206741  73.3662415  64.8008041   2.6602392
  73.8332138  66.1530609   3.1545258  52.7245255  67.9681396  66.9600677
  53.3712273  68.2910538  67.5875473  52.6541862  67.0323639  67.1487732
  79.6062012  14.1581497  41.1739845  80.2821503  13.8992949  40.5476341
  80.0009766  13.9998093  42.0314865  51.3632278   1.4666927  59.6511688
  52.2156143   1.1581421  59.9585228  51.5533180   1.9127328  58.8258514
  49.6245422  39.9681854  27.3558407  50.5180931  40.1837234  27.6229401
  49.2001228  39.6680145  28.1595783  77.0791321  19.2724361  59.4912376
  77.0541153  19.1002998  60.4324989  77.2488327  18.4174061  59.0958138
  77.9305954  13.4583244  36.4042473  77.3297501  13.3420248  35.6682472
  77.6051712  14.2354269  36.8586121  82.3255768  70.4095535  19.5760021
  81.6710815  71.0277176  19.9011841  82.0091705  70.1604919  18.7076168
  75.0981369  27.8429451  75.9907761  74.7483368  27.6759071  76.8659744
  75.8150635  27.2158890  75.8956833  16.3243465  59.2205925  24.5241203
  16.6359863  58.8591690  23.6943703  16.9196129  59.9474335  24.7073936
  85.2170563  49.3352699  44.5526810  84.4555893  49.6044197  45.0664482
  85.0324097  49.6501617  43.6678162  21.2348537  21.1597767  61.7593613
  20.6518116  21.3754578  62.4872169  20.7901382  21.5058327  60.9855995
  76.5500183  47.5176201  20.6800289  76.5808182  47.4118690  19.7291870
  77.4594955  47.6760368  20.9329834  78.4439774  26.7694931   8.8302698
  78.6263580  26.4992504   7.9303055  77.5332184  27.0634823   8.8121605
  43.6290054  39.0732117  88.5043106  44.1862297  39.8501549  88.5500107
  43.9877853  38.4818954  89.1660233  46.4193611  43.7235222  55.3934708
  45.6244049  43.9962044  55.8516426  47.1279755  44.1701012  55.8567963
  23.1570625  39.8044815  31.2838516  22.7477188  38.9545403  31.1217728
  24.0301952  39.5909538  31.6129112   6.4693475  41.9927330  83.0928421
   6.9029679  41.9602585  82.2401123   7.1720533  42.1921883  83.7114334
  64.9663391  47.4596901  53.9101295  64.5454254  47.7083931  54.7330589
  65.8107300  47.9101753  53.9272842  36.7316475   7.3364811  60.5731125
  36.7893829   8.2588720  60.3239288  35.8647614   7.2492805  60.9695129
  48.9624786  43.3213844  80.9648972  49.4553604  42.5485115  81.2405167
  48.1456108  43.2742233  81.4616241  82.4136581  61.5849266  79.9838867
  81.6251373  61.5360909  80.5243378  82.8035660  60.7132263  80.0497894
  66.9620667  10.8204288  21.4004974  66.6650314  11.4393587  22.0675278
  67.1990891  11.3693457  20.6530075  52.9429169  57.6574440   9.2487421
  52.3846588  57.6930161   8.4720078  53.8172760  57.4706535   8.9069252
  30.2337017   3.9084361  38.5434875  30.3577423   4.5268612  37.8234901
  30.9146309   4.1375446  39.1760025  83.9806061   8.3197680  26.9187317
  84.5391159   8.0190392  26.2018909  83.0978928   8.0519619  26.6631527
  70.2857132  67.4568253  15.3487711  70.5351639  68.3743591  15.2385845
  70.3403320  67.3054199  16.2923412  65.4807739  67.6067505  33.2541046
  65.8278656  66.7634201  33.5448837  66.0097122  67.8324661  32.4889183
  36.6101227  43.9813957  14.6997585  36.2157288  44.8387108  14.5394592
  36.6445274  43.9081421  15.6535301  59.5876732  38.4083443  38.4437981
  59.1172218  39.0424423  38.9849319  59.7774963  38.8798256  37.6326828
  44.6632957  54.8485107  14.4635363  45.5337601  54.4672928  14.5784321
  44.7196960  55.7058487  14.8854637  50.6152992  17.5340443  12.9841824
  49.9957085  18.2450275  13.1480169  50.0876541  16.7377338  13.0450811
  36.1595650  40.7247314  85.3031006  36.9079170  40.4268875  85.8202972
  35.4998703  40.0412140  85.4207382   5.2163396  44.2266235  42.8062744
   5.7142258  43.4282875  42.9823303   5.8628411  44.9300270  42.8653870
   5.0161557   8.8120880  66.1092987   5.4431915   9.1505156  66.8962784
   4.7356658   7.9290991  66.3498993  21.2058716   3.4860356  84.0316315
  21.5008335   4.1397614  84.6655655  21.9064903   3.4507463  83.3803864
  44.7029228   4.4863172  20.5322018  44.7636375   5.2581868  21.0950184
  45.5941734   4.1381311  20.5062313  12.2645426  23.1120796  62.4532051
  11.4472809  23.4604168  62.8095436  12.0978041  22.1760483  62.3424225
  35.3122368  27.2004089  62.8760338  34.7960205  27.1123753  62.0747833
  34.9802780  26.5114841  63.4517250  30.1155052  48.5208817  86.4180832
  31.0213795  48.2200432  86.4896393  29.9121017  48.8762474  87.2832870
  45.4605064   4.4680567  32.8900185  45.4752312   3.6997843  32.3192520
  44.5431976   4.7413154  32.9002075  77.8410110  54.7961311  15.5991745
  78.7179031  54.4127731  15.5811481  77.2742767  54.1148262  15.2374163
  81.2695770  17.6297245  62.6416817  81.9562378  16.9698505  62.5452309
  81.0924377  17.9234371  61.7480469  18.1667824  47.5832596  34.6068001
  18.8699398  46.9635468  34.8011131  17.8094292  47.2854309  33.7702446
  46.8723831  16.4292278  67.7612000  46.7695694  17.2896919  67.3546753
  46.9444046  15.8230610  67.0239029  15.7205877  55.7939262  20.7709942
  15.2256298  55.0479393  21.1097431  15.2650118  56.0376167  19.9652042
  42.2217789  57.5059738  66.0022736  41.6749802  57.7064018  65.2426224
  43.1040802  57.7662697  65.7376709  67.7488937  42.7345772  57.0941277
  68.5427246  42.6869049  57.6268501  67.9966049  43.2735519  56.3428764
  50.0620422  14.4993849  30.7723694  50.9853020  14.2511759  30.7253304
  49.7342224  14.3723812  29.8820686  18.8353996  46.6908875  56.4579964
  18.6365433  45.9065018  56.9692955  18.7744007  46.4045792  55.5466576
  52.7649002  25.0612659   2.9743509  52.2444763  25.6559048   3.5145311
  52.5422974  24.1879482   3.2968383  46.9339790  17.8056679  72.5942078
  46.4018707  18.2844639  71.9587250  46.3550606  17.6817741  73.3463669
  47.1726532  20.0455761  68.9595108  48.0104790  19.7689667  69.3306808
  47.2159653  19.7749462  68.0423889  11.2524271   3.1846611  64.7749252
  11.9839697   3.2223160  64.1587524  11.4148493   2.3954260  65.2916031
  66.7009125  26.6318989  81.8657761  67.0390091  26.0087872  82.5089340
  66.4886551  27.4126263  82.3772812  62.9170799  34.3668709  43.9729424
  62.0970993  34.5476074  43.5133781  63.2084465  35.2223473  44.2883759
  57.5302963  26.3601322  36.9895172  57.3219757  26.6985531  37.8603249
  58.3272018  25.8454094  37.1169205  65.9153442  10.3787336  51.8142281
  66.0285339   9.5556345  52.2895470  66.4456329  10.2740040  51.0242577
  49.6316032  15.9013987  52.2044144  48.9153671  16.2393970  52.7419968
  49.3789673  14.9991331  52.0086479  14.9005079   2.1268675  66.7968521
  15.6951284   1.6309342  66.5997238  15.2143211   2.9174945  67.2357864
  78.3325806  18.3065968  28.7194557  77.9041443  18.5509586  29.5398026
  77.9339676  17.4696121  28.4811287  76.4979630  29.8285427  32.1663666
  76.9052505  29.3730793  31.4295483  75.5659943  29.6245728  32.0884438
  45.6440086  28.3909874  67.6220245  45.0618668  28.8910027  68.1941528
  45.9831924  29.0366745  67.0021210  51.6951942  18.3400726   3.0647197
  52.1748314  17.5685921   3.3663745  52.1238632  19.0751457   3.5030613
  32.4445877  26.6845970   4.8564072  32.8305206  26.3570385   4.0440063
  32.7772675  26.0959892   5.5339737  73.8365097  14.2579212  14.8915558
  73.6696930  13.5440750  14.2760639  73.0044174  14.3792152  15.3488770
  68.2024536   9.2755365  23.1888065  68.8362732   9.9647961  23.3873882
  67.5654526   9.6952553  22.6106205  43.7215958  16.9744072  66.6590729
  43.5108986  16.8101311  67.5782318  43.7984924  17.9265213  66.5974426
  52.8149261  27.0976562  79.0511017  53.4051399  26.6796436  78.4240875
  52.3776283  27.7841778  78.5474319  64.5083313  37.3062401  28.5981884
  64.9440308  36.6720810  29.1676140  63.9751205  36.7724762  28.0091133
  31.9736004  35.0409241  69.4704514  31.0555592  35.2526054  69.6396408
  31.9568233  34.5338821  68.6587524  29.5257721  47.7759247  63.9658432
  30.4357319  48.0426826  64.0963974  29.2724686  48.1854248  63.1385727
  59.6390038   7.5759740  59.7536659  59.8492050   8.1685486  59.0319290
  59.2041092   6.8332253  59.3348274   1.1698015  34.5099831  34.9137459
   0.9612478  34.2230492  34.0247002   2.0793285  34.8040123  34.8633652
  57.2352943  32.5001678   8.7560129  56.7743492  31.7320404   8.4187527
  57.5748444  32.2214661   9.6064625  66.1496429   7.0201340  78.1189880
  66.8124619   7.3006740  78.7500229  65.7678680   7.8355861  77.7941589
  37.7754517  50.5583725  24.0479336  37.4724846  49.6592865  23.9210949
  37.9459534  50.8807640  23.1629353  67.8148727  21.0123692  84.3517380
  67.2167892  20.2694607  84.2704163  67.6556244  21.3528080  85.2320633
  57.5018501  56.4710693  78.3044205  56.6954117  55.9612808  78.3818970
  58.0867233  56.0956078  78.9625854  61.7898598  43.1548615  46.4458427
  62.6668472  42.9289589  46.7558289  61.3087158  43.3903732  47.2391052
  68.9278641  64.4461060  46.4026184  68.6521606  63.6744690  45.9078522
  69.7480698  64.1826401  46.8198433  78.0379868   4.1509137  29.3360329
  77.2658997   4.4010119  29.8435421  78.6511383   3.8079114  29.9861279
  47.3533821  64.1461029  48.3412323  46.6091690  63.5522728  48.4399529
  48.0537300  63.5961037  47.9901657  16.1319466   5.4740491  87.0766602
  15.8926134   4.8466926  87.7588425  16.2752628   4.9372478  86.2972107
  55.8345642  27.7508373   5.1649361  56.6719246  27.3404732   4.9489245
  55.7921791  28.5212288   4.5984263  27.7941399  52.9117317  25.9178619
  27.7697277  53.2313309  26.8198013  27.7231731  51.9606018  25.9987831
  44.8736877  64.7645721  68.1562195  44.8365479  63.9269447  67.6944427
  45.6289482  64.6836777  68.7386856  58.4924889  21.0528660  49.1079941
  58.3256874  20.9688206  48.1691933  59.0363426  21.8367424  49.1853943
  56.2204132  61.9144974  31.0261040  56.8642731  61.2317390  30.8376350
  56.4932327  62.6565208  30.4864731   3.3301229  20.7936554  59.5770607
   3.4539919  20.0578556  60.1766319   3.4188600  20.4094505  58.7048531
  82.4156418  14.2583742  24.0044346  82.2840652  13.3264084  23.8302002
  82.5705490  14.6437302  23.1420326   7.5684004  39.9862022  29.1655083
   7.0129943  39.4088440  29.6893520   7.5487695  40.8231812  29.6295242
  29.8414192  65.9869919   2.6735632  29.5547829  66.8982849   2.6133664
  30.6733189  65.9658356   2.2005656  49.4511070  11.1933308   4.1868920
  49.6213875  11.9144917   3.5809517  48.5338135  11.3026676   4.4375982
  76.3690948   0.4564029   3.1729777  76.9422607   0.0671669   2.5125206
  76.9583282   0.9597580   3.7348168  15.1155157  57.0121498  39.6227150
  15.5811672  57.7056580  40.0900955  14.7082338  57.4562569  38.8789940
  18.5851536  42.8087540  21.8071480  19.5315037  42.8802872  21.9317913
  18.4102020  41.8681183  21.8359699  12.3331594  56.6248856  71.6233521
  12.8263578  57.4149361  71.4024353  13.0013514  55.9892845  71.8797989
  37.7528305  27.6545219  10.6903343  38.7084198  27.7097034  10.6963835
  37.4769897  28.1955452  11.4302254  66.6395264   6.1210623  10.0836029
  66.5908356   6.6091151   9.2616148  65.8573685   6.3872700  10.5669098
  71.4484940  52.5130272   6.0670018  72.1236801  51.8366966   6.1212640
  71.8699265  53.3003654   6.4115629  70.8542175  43.7143631  10.4971294
  70.3244705  44.1953125  11.1329660  70.7694397  42.7976799  10.7593155
  42.0583229  64.8178024  36.0376015  42.5614624  65.1240311  36.7921257
  42.2192268  65.4744263  35.3599625  77.7711105  54.4248314  70.5864334
  77.5577469  53.8393402  71.3130035  78.4613724  54.9917679  70.9304581
  58.2072220  42.2399864  -0.1843908  58.7995224  42.4072533   0.5487071
  57.4834518  41.7457085   0.2004209   2.0211122  68.0801926  44.7684555
   2.1564353  67.6913605  45.6325951   2.3221362  68.9839249  44.8626595
  74.9597473  38.0513840  34.0629501  74.0242386  38.1790085  33.9055672
  75.3026199  38.9348106  34.1979523   0.1452056   6.8345304  52.3468132
  -0.1289493   6.0892754  52.8812904   0.8124689   7.2744575  52.8735542
  23.4370365  42.9604416   2.9257908  23.9241295  43.4114380   2.2361710
  23.6085148  43.4739532   3.7151794  25.0503025  57.1001930  56.4195023
  25.3842506  57.5110588  55.6220665  24.1478634  56.8624763  56.2066002
  54.3235245  58.8575058  74.6670609  53.7762032  58.1065979  74.4372635
  54.9650612  58.5062485  75.2845459  54.6816292  19.4868927  22.0404758
  55.3640518  20.1524525  22.1274281  55.0427399  18.8531494  21.4206371
  70.9542618  12.5244255  52.4030876  71.7010574  11.9427233  52.5450478
  70.4025345  12.3986320  53.1750984  17.2735157  65.6450958  24.9145565
  17.9727669  66.2573242  25.1435871  17.6970997  64.9976730  24.3509464
  85.2018661  59.0310516  61.3672180  85.4551239  59.9466629  61.4844589
  84.3493652  59.0719566  60.9338493  11.7252245  60.8695793  11.1026449
  11.3275251  61.5973434  10.6247034  11.0613861  60.6118546  11.7422771
  12.8295298  60.6382790  43.3726273  12.1586790  60.9276466  42.7541962
  13.0837393  61.4340439  43.8399277  35.7677612  44.1304665  74.8532562
  36.6737061  43.8794136  74.6730576  35.4263611  43.4209785  75.3975983
  69.1553497  13.1045828  40.4045486  70.0857010  12.9137011  40.5239143
  69.1158676  13.6026497  39.5880928   4.7077446  25.0688896   4.4263654
   3.8285737  24.7825413   4.1787882   4.7320600  24.9718113   5.3783193
  47.2413292  43.5317841  21.4359512  46.5008926  44.1374969  21.4028034
  47.7662811  43.8355255  22.1764870  55.3128204  11.6221180  66.0272675
  55.3512344  11.9580441  65.1317673  56.1848526  11.7909641  66.3840256
  38.3383064  27.4799099   7.3465385  37.4582443  27.1485443   7.5251942
  38.8111229  26.7259789   6.9940257   2.0167263  26.0308704  84.9936295
   2.6576068  26.0568047  85.7041473   2.0533426  26.9053097  84.6060181
  31.3773289  69.9321289  70.5921555  30.8691921  69.1769409  70.8883286
  32.2703056  69.5994492  70.5018616  14.2524538   6.2128148  76.6519394
  13.8848038   5.3622026  76.4121017  13.6211634   6.5808682  77.2701950
   5.1577210  66.7186050  14.2365303   5.3948874  65.9961395  14.8179264
   4.5187855  67.2276459  14.7354002  32.5407333  26.2323780   1.5890442
  31.9614239  26.9059753   1.2328190  32.6945648  25.6365757   0.8558404
  82.9111710  11.3842545  36.6753159  82.5329742  11.8599787  35.9357986
  82.3204727  10.6433420  36.8107948   7.5972729  55.9915352  83.4427948
   8.3444958  56.5496407  83.2273636   6.9293180  56.5982857  83.7620544
  60.2720985  63.5111885  15.1168127  60.4271278  62.8544540  14.4379196
  60.9535561  63.3472519  15.7687120  46.7231522  46.9124146  88.2940063
  46.4364433  46.2894859  87.6261826  47.0640945  47.6561584  87.7971802
  16.0220699  59.0466003  57.7906685  16.2601223  58.3553276  57.1728439
  16.7621918  59.6531830  57.7682266  12.8346510  57.2078476  80.1545258
  12.1931591  57.7742386  79.7256699  12.6340218  56.3300209  79.8298798
   3.0900900  30.0566158  19.1294384   3.9210026  29.8837261  19.5720730
   2.7812078  29.1934509  18.8541775  59.2077789  55.1454811  61.8623276
  59.4281960  55.1102753  62.7931366  58.9688797  56.0593071  61.7071571
  79.2811508  43.4543037  62.4515190  79.9881134  43.2006187  61.8581581
  78.7292023  44.0377846  61.9308167  32.1366615  36.0510597  73.8415146
  31.2805367  36.3519135  74.1460953  32.3831673  36.6784782  73.1619492
  65.9236679  64.1661377  80.9058609  65.0813370  64.5518265  81.1465912
  65.7717056  63.2215309  80.9352036   6.8975024  62.6463242  61.9739952
   6.8526783  62.3885918  61.0532341   6.6713653  61.8512001  62.4565620
  83.0882950   8.9814787  16.7637711  83.8344040   9.4307985  16.3666992
  82.3285675   9.5017805  16.5023670   4.4531045  64.5302963  82.8384171
   4.6859293  63.7298012  83.3087769   4.3366547  65.1865234  83.5254593
   1.2442545  49.0605354  25.4278603   0.4651274  48.5079193  25.3661709
   1.9019840  48.6069221  24.9007397  24.6887436  33.9497070   0.9253427
  24.3126831  34.0302773   1.8018806  23.9306126  33.8985748   0.3432300
  32.4777374   2.0439436  67.1550598  32.5151634   2.8575213  66.6521454
  32.1873016   2.3140252  68.0262299  66.9721909  65.6866531  -0.0822169
  67.5668106  66.4093399   0.1187265  67.4650421  64.8994827   0.1494976
  29.2854118  60.4922791  64.2785568  29.5166512  61.4183807  64.2072067
  28.3649998  60.4545021  64.0184708  13.6791258  15.4552250  73.4854202
  13.4073038  14.6083689  73.1316147  13.9835052  15.2581453  74.3712769
   3.5946319  16.1095467  62.5548859   4.4775238  15.8703547  62.2728920
   3.5345204  15.7863169  63.4538536  28.9299164  63.9238052  14.5179043
  28.0651951  63.7235069  14.8761950  29.4070168  64.3164139  15.2489758
  50.8749275  25.1172199  48.3444710  50.0230789  24.9166832  47.9566994
  51.4677925  25.1886158  47.5963783  13.1427679  17.0724030  17.7539539
  12.4831514  16.4307804  18.0175037  13.6948290  17.1802940  18.5284348
  66.2174072  36.5259209   9.0621901  65.7334824  35.8186607   9.4886045
  65.5396576  37.0829735   8.6793242  57.5399055  64.3562469  39.9970245
  58.3635178  64.7138672  39.6653633  56.8618126  64.8703842  39.5587502
  48.1583443  37.2733459  73.1287918  47.5116272  36.5682068  73.1564560
  47.8371887  37.8663750  72.4495239  69.7920761   4.2997594  50.9766426
  70.7323074   4.2712345  50.7994690  69.4354553   4.8606205  50.2878113
  66.0445633  17.5132809  88.9657440  66.0619278  16.6203747  89.3102036
  66.1349106  17.4065037  88.0188217  45.8785706  49.7508469  35.8885689
  46.2857704  49.1843758  35.2331810  45.5372276  50.4909477  35.3866081
   7.5633259  20.3276005  55.9668999   7.1126533  21.1608028  55.8294220
   8.3553677  20.5607605  56.4511909  31.4183331  47.9321632  43.1318932
  30.9568310  48.7324142  42.8811951  32.3344879  48.1064568  42.9162102
  38.6225967  48.7916832  83.9589920  38.5266609  49.0724907  83.0489502
  37.7642899  48.9524918  84.3510208  59.8642387  64.7185287  74.1949158
  59.3604736  65.2641068  73.5909348  59.5594673  63.8274307  74.0237656
  51.3192635  54.3016357  53.7197418  51.2218513  53.6198845  53.0549393
  51.4172096  55.1117821  53.2194443  73.1994934  65.1474304  16.3892460
  72.2916183  65.0088882  16.1194248  73.1836243  65.0516357  17.3415089
  70.8615341  38.6954079  45.0099335  71.5757828  38.7051773  44.3727646
  70.8044128  37.7824059  45.2917137  72.0440063  19.7278252   9.7009563
  72.7741470  19.3063507  10.1542578  71.9988480  19.2831802   8.8545027
  81.8040085  59.2205467   9.7643805  81.5664597  59.1139679   8.8432693
  81.4885712  58.4217491  10.1870527  49.3288841  63.9153328  65.0399399
  49.6805267  64.7259521  64.6718674  48.7548141  64.2037354  65.7495193
  69.7245407  67.0994034  26.4019127  69.4347687  67.2113190  27.3073082
  69.0519333  66.5484848  26.0015240  20.6057987  17.4374828  43.4224930
  21.1204987  16.9466705  44.0631332  20.0654278  16.7753220  42.9914780
  36.1140594  31.9052982  71.1409149  35.2984314  32.4034538  71.1940689
  35.9249687  31.2017365  70.5200500  41.1192169  30.6790199  69.8587952
  41.9278297  30.2449341  69.5868607  40.4459457  30.3118286  69.2859879
  17.6813145  65.0903091  43.5359764  18.1917858  64.3754578  43.1556625
  17.2773075  64.7080612  44.3150101  83.4848404  69.5607605  31.1272850
  83.2787933  69.2161179  30.2583790  82.6471329  69.5592270  31.5903969
  80.4781342  26.9039726  44.6431694  80.5786133  26.2417068  45.3269386
  80.3665619  27.7260990  45.1205482  34.6579666  67.1139755  52.8086014
  34.5128784  66.3496628  52.2509155  34.1318130  67.8060532  52.4080811
  67.3192444  36.2948227   2.8037677  68.1220474  36.4162407   3.3107204
  67.5914154  36.4089622   1.8932021  83.0900345  25.3596191  38.1477356
  83.4588242  26.0849495  37.6436348  82.2757874  25.1421452  37.6939201
  57.1809845  54.9553604  26.1831169  56.9112053  55.8117599  25.8514061
  57.6477623  54.5513535  25.4515915  36.5280228  69.1401901  86.9305725
  37.0418739  69.7789688  86.4364548  37.0863800  68.3637924  86.9715118
  70.4931488  32.2239609  32.6177979  70.7509384  32.7596474  33.3680115
  71.2403107  31.6443577  32.4693298  76.4429474  35.5101395  13.2922850
  76.8212280  34.6919975  12.9701433  75.7788467  35.2345123  13.9241371
  76.4796982  48.0579605  33.0381279  76.6062546  47.1408310  33.2812042
  76.1383820  48.0239906  32.1444969   6.7549696  53.4138374  56.6085854
   6.1630254  53.6790543  55.9046707   7.6299105  53.4941292  56.2287636
  65.6926498  11.0510092  12.9929256  66.1406479  10.2344770  12.7720232
  65.6845551  11.5485573  12.1752386  66.2887115  30.9418011  79.9729080
  66.6813507  30.0893059  80.1608429  67.0337143  31.5119534  79.7828217
  11.2483625  68.0784531  50.0355682  11.0533543  68.8816376  49.5527687
  12.1595421  67.8828964  49.8170662   2.2882733  68.6496124  24.6235886
   3.2003407  68.3808365  24.5134754   2.2350554  69.5003891  24.1881771
  22.8452168   6.6432648  89.0574875  23.3562603   7.4158988  89.2985306
  22.9739723   6.5560322  88.1130066  73.5479507   2.4731877  61.6036758
  73.6179428   3.3084981  61.1415176  73.2347870   2.7082257  62.4771271
  83.3669968   1.9948838  41.2822456  84.0760956   2.2520783  40.6929588
  82.6567307   2.6047723  41.0827980  65.4499207  58.7608604  82.9364090
  65.0180969  57.9199677  83.0869141  66.3224869  58.5285568  82.6187592
  34.5286674  42.8824768  67.1555557  34.2187538  42.7259979  68.0475769
  33.9482841  43.5639420  66.8164444  32.3378296  59.7590942  10.4558401
  32.2093811  60.4987259  11.0497046  33.2474442  59.8378868  10.1683960
  76.0501099  69.4242935  61.9200783  75.6820068  69.5016785  61.0398827
  75.4580078  69.9341354  62.4729881  55.1732178   7.2984586  34.3138847
  54.3422852   7.7608633  34.2044945  55.8117065   7.9906216  34.4855728
  75.3636169  33.9180565  28.2518559  75.0316010  34.8010559  28.4140415
  76.2124023  33.8963928  28.6938152  49.2716293  41.6301956  74.0843353
  48.5629959  41.5575371  73.4449615  50.0620308  41.4084015  73.5920868
  10.2885866  21.3308182  12.8832006   9.4082375  20.9612503  12.8151140
  10.7941847  20.6617584  13.3446770  73.5100403  53.6989937  83.3839111
  73.0168457  53.1358185  82.7873993  72.9815063  53.7240791  84.1815643
  38.7653656  30.3245449   1.6979623  37.8437424  30.1399441   1.8789710
  39.1468468  29.4689808   1.5011961  69.2929993  23.5739002  27.4940758
  68.6667175  24.2973366  27.5194111  69.8580246  23.7722931  26.7473373
  27.4338837  45.4107056  13.3207006  26.7498188  44.9183578  13.7744389
  27.4507122  45.0398750  12.4384117  58.5958710  41.9588356  18.9567833
  58.8558502  41.1570930  19.4104939  58.7813072  41.7829018  18.0343437
  40.8127747  32.5589828  77.7301178  39.8695755  32.5258369  77.8898392
  41.1610451  31.7971325  78.1932831  40.1820602   8.5156088   2.0418081
  41.0713120   8.3507166   1.7283255  40.0596390   7.8893561   2.7552876
   6.8330388  28.4455204  50.6532326   6.6739635  29.3894081  50.6528664
   6.7740793  28.1930523  51.5746536  45.4779472   3.7589331  83.4745178
  44.7714310   4.1071424  82.9306335  46.1952553   3.5983043  82.8614120
  77.4212875  34.9493446  42.1998634  77.3390808  35.5055008  41.4251595
  78.3632660  34.9049683  42.3639870  11.6224918  40.1468582  67.5444412
  12.2666245  39.4695892  67.3379669  12.0088882  40.6302299  68.2747040
  50.9330635  17.9303074  83.4074173  50.6249771  18.6561279  83.9500961
  50.7256432  17.1462669  83.9158325  85.7230988  11.6757793  58.7380295
  85.9138947  11.2904005  57.8828583  86.4505844  11.3968849  59.2941055
  45.8044434  31.5167027  13.9458227  45.0083733  30.9851894  13.9451170
  46.4433060  30.9905529  14.4267120  40.7900810  47.8436966  39.1629944
  41.6216507  48.1049805  38.7674522  40.7100868  46.9119263  38.9589348
  59.9517632  29.6002808  46.3579292  60.0486565  28.6615925  46.1976013
  60.5171318  29.7743416  47.1104546  11.1750040  62.1576881   7.2343936
  10.5714149  61.4228134   7.3433552  10.8019285  62.6696930   6.5168290
  82.1660309  11.0096874  53.9034958  82.9113922  10.4138250  53.9784393
  81.5028915  10.5056152  53.4319153  31.3859634  71.1169968  48.9707909
  32.1942482  71.5224380  49.2846832  31.6696796  70.5257187  48.2735634
  79.5135727  22.5160599  59.5121193  80.4278412  22.3076153  59.3200378
  79.2357025  21.8338661  60.1233749  22.0324631  26.6977577  26.7074184
  22.1201363  27.4225407  26.0883579  22.1424065  25.9114590  26.1727428
  23.9208412  48.9467239  81.3865662  24.3194008  49.6063957  81.9542084
  23.7625332  49.4050102  80.5612488  20.8521442  20.2123623   0.6528591
  20.3449631  20.8564148   1.1470201  20.4543896  19.3710976   0.8771265
  75.8168869  53.1813011  76.4577255  75.5199738  52.3358231  76.1212234
  75.9756165  53.0261345  77.3888321  49.7428665  14.7121859  27.4585819
  48.9732590  14.1466312  27.3946514  50.0429535  14.8113356  26.5550632
  85.1517334  18.0929832  23.3432465  84.2148514  18.0727310  23.1481438
  85.4428177  17.1902847  23.2142563  32.9915695  51.2187424  32.8359528
  33.7429619  51.7362785  33.1254387  32.6427956  51.7013474  32.0864983
  58.3752708   7.6022010  54.7543755  57.6025772   7.9966326  55.1588516
  59.0407181   7.6192188  55.4422150  77.1040726  28.1742535  44.4380150
  77.1837463  27.3349304  44.8912468  77.7237625  28.1136398  43.7110023
  12.8378487  56.6548538  13.7998571  12.7696142  55.7169609  13.6211615
  13.2275524  57.0221100  13.0064554  17.6843529  50.0239677  43.9724388
  18.1594353  49.4358864  44.5595398  16.9288273  49.5131989  43.6816978
  28.8124847  25.5430279   2.3320711  28.8971310  25.3434563   3.2644007
  27.8765411  25.4543095   2.1521547  54.7018127  68.9300232  78.8386536
  54.8029594  69.8817596  78.8245239  54.7094765  68.7021255  79.7682953
  83.6754150   2.6061585  11.7596731  84.4632874   2.7048466  11.2251158
  82.9735184   2.4561923  11.1263599   9.8970537  33.5678864  10.5025091
   9.0941362  33.6039658   9.9826498  10.2273035  32.6790276  10.3717623
  84.0500183  42.1518059  81.2673569  83.7374039  42.7020760  80.5492325
  84.0927887  41.2716484  80.8935623  51.0141258   5.0789981  36.8816261
  51.8554993   4.8285561  36.5000458  50.5581932   5.5377674  36.1760139
  85.2942886  19.6210690   7.9854374  84.7213516  20.2073174   8.4796934
  84.6970978  19.0092010   7.5550780  41.3873062  28.7874184  88.1995316
  41.1725121  28.0382843  88.7553177  41.0503922  28.5492649  87.3358154
  12.6228685  45.5720482  10.9712992  11.8712225  46.0233612  11.3554592
  13.2982960  46.2468834  10.9032583  52.6415291  69.1761246  85.8148575
  51.9658432  69.5489349  86.3811569  52.5409546  69.6408386  84.9840927
  19.2369442  65.7560196  68.7485046  19.7204437  65.3287048  69.4555130
  19.8444939  66.4108505  68.4045258  28.4967575  54.1837654  64.9029465
  28.7758694  54.7217712  64.1620865  27.5676804  54.3875160  65.0103378
   3.8308694  68.7935333  21.6718464   4.3943424  68.0688858  21.4005241
   2.9765582  68.3890762  21.8228397  75.8921967  54.6151772  81.2851639
  76.2228622  55.3727646  81.7678146  74.9534225  54.6034775  81.4716797
  47.1283569  58.8253288  20.2038326  47.7435265  59.5050888  20.4790115
  47.4590721  58.5325394  19.3546371  64.7350845  41.6869392  88.9063950
  64.4699707  40.8397865  88.5482330  63.9640732  41.9984131  89.3804855
  55.6033592  14.7233334  79.3556900  55.7980766  14.1606951  80.1051941
  55.7766342  15.6104412  79.6707230  40.7282181  58.4059296  36.0581779
  40.5553246  58.6469917  35.1481094  41.4027901  57.7290955  36.0026627
  81.3638458  48.5116768  57.6604042  81.6355362  47.6012268  57.5441971
  82.0772476  49.0248070  57.2809639  61.0218887   6.4703526   8.4894390
  61.5086517   6.8533316   9.2192478  60.8471642   5.5702329   8.7641897
   3.2048213  59.5052605  80.0780487   3.0862682  60.0617561  80.8477859
   3.6434481  58.7232399  80.4131393  24.9943104  59.3622513  14.1145992
  24.2943249  59.4441299  13.4668732  24.5568981  59.0325241  14.8995705
  58.7273674  51.3327026  67.9273148  59.2404976  50.7915649  67.3272324
  57.8312454  51.2740021  67.5960236   2.2121882  25.5626106  77.9223480
   3.0890889  25.3960323  78.2680817   1.6363391  25.0149632  78.4559326
  69.9351730  22.0730247  31.2494831  69.2344437  21.4349670  31.1149673
  69.4952164  22.9224815  31.2163620  16.8449020  18.6413174   2.1058645
  16.4731064  19.3384056   1.5654290  16.7252274  18.9459667   3.0053639
  40.3021011   8.3081245   6.9860682  39.5872650   8.7636690   6.5414085
  40.9484520   8.9916544   7.1628461  56.4746895  35.1681442  47.1590118
  56.6891632  35.4093094  46.2578621  55.8210297  34.4743004  47.0721664
  20.1374416   9.0612993   4.4888043  21.0242577   9.3595638   4.2867498
  20.0967827   8.1732025   4.1340332  71.1210098   4.8737559   8.3329668
  70.2801437   4.5193067   8.6219959  71.4770584   5.3080006   9.1081400
  71.0200958  46.6315422  16.0070705  71.0188675  45.7289696  16.3258038
  71.6623154  47.0791893  16.5578880  19.8605556  53.3549309   1.7947398
  20.0177536  52.4321556   1.9947522  20.6224613  53.8107147   2.1524971
  46.8787766  64.9524994  70.2275009  47.7074585  65.4299316  70.2671738
  46.8638535  64.4314957  71.0303497  45.2527275   6.3556166  84.1511536
  45.6027184   5.4732261  84.2741394  45.6849403   6.8807430  84.8246994
  85.9510422  53.5262680  43.9304314  86.6292114  54.2007065  43.9684715
  85.8311462  53.3596230  42.9955063  82.7543945  14.8910122  76.3348923
  83.3989639  15.0444183  77.0257111  82.5322266  15.7657824  76.0160675
  12.5678978  35.6055984  12.6667833  12.9105244  35.4263306  11.7911682
  11.9192457  34.9176140  12.8156481  68.1664963  16.6143188  51.0335808
  67.3557281  16.4846935  51.5256004  68.8012619  16.0403728  51.4624062
  57.0480957  14.9977055  31.0688725  56.3451653  14.9333210  31.7153797
  56.9938850  14.1802092  30.5739040  77.4594574  59.9024162  57.6371651
  78.0241699  59.6754875  56.8983574  77.0993652  60.7594490  57.4089928
  25.5289440  46.8782578  23.3151379  26.3113060  46.9085655  22.7644806
  25.5936775  46.0426102  23.7774544  66.9270020  16.1759949   5.0290046
  67.7696304  16.1638451   5.4829354  67.1220932  15.8434229   4.1528964
  20.0190277  58.4256287  44.4729843  20.8497524  58.3804245  44.9463615
  19.7360973  57.5142632  44.3981628  75.8802948  51.2598534  47.3558044
  76.1538315  50.3426094  47.3642616  75.7129974  51.4683838  48.2749100
  62.0574608  32.8055191  34.6124687  62.0865173  33.0172539  33.6794319
  61.1850090  32.4354553  34.7470360  45.6063042  34.6027298  82.5206680
  46.4071770  35.0396690  82.2309875  45.9099693  33.9116707  83.1092758
  30.8302441   5.8131418  84.4625397  30.3180618   5.0107508  84.5628815
  30.5589199   6.3638921  85.1968994  63.6347275  50.7041512  66.3131027
  62.7583122  50.6679306  66.6962738  64.1320572  50.0393486  66.7894745
  24.8362637  46.4416580  18.0727882  25.5787086  46.7787971  18.5741310
  24.1700172  47.1254044  18.1423492  86.1951599  46.1008186  35.1367531
  87.0403214  46.1145744  34.6875992  85.9323120  47.0201683  35.1807518
  24.0868587  12.1454554  60.8119125  23.7360287  11.6204300  61.5312843
  23.5853539  11.8671989  60.0455589  60.4749222  13.2971954   8.9563923
  61.3889503  13.5627575   9.0576687  60.1034393  13.9420605   8.3544111
  57.2495880  43.2993546  21.0299072  56.4586945  42.7994919  20.8277721
  57.9345322  42.8871651  20.5034275  82.5381775  45.8836174   8.1061878
  81.6198425  45.7222862   7.8896832  82.5456161  46.7666512   8.4755478
   5.5146952  14.6957893  84.8665390   4.6829967  14.3247185  85.1611862
   5.5268688  15.5790663  85.2351913  77.0759583  58.0246086  43.1028557
  76.8989792  58.2009354  44.0268784  76.4900131  58.6154404  42.6297722
  37.1385460  61.9433708  84.5588913  37.8149796  62.6042480  84.7068939
  37.0747490  61.8751106  83.6062622   3.7655628  30.9005470  86.7027664
   3.6353009  31.7977982  87.0096970   2.8927107  30.5086708  86.7309570
  63.7161865  66.9949112  14.0334358  64.3504639  67.6953735  13.8808823
  63.5217781  66.6535492  13.1605625  20.6397877  53.7649384  36.6663208
  20.5073414  53.7945480  37.6138496  20.6444473  52.8315544  36.4541817
   7.1209660  64.6970139  33.7203903   7.2325296  63.7748413  33.4893417
   7.2536492  65.1678238  32.8976097  12.9838123   7.4459620  82.4054108
  13.4682178   7.6222672  81.5988770  12.0740213   7.3527727  82.1228714
  75.3936539  18.3477802  13.2494993  75.4664230  17.3949184  13.1948023
  76.1427765  18.6150227  13.7820625  65.4777756   9.7643633  31.4173336
  66.3453369   9.3608952  31.4452801  64.8814621   9.0697203  31.6968250
  82.5755310  64.3855591  85.6760712  83.1194839  64.1088181  84.9386749
  81.9407501  64.9902191  85.2917938  58.9012642  38.1500702  88.6920395
  58.0778580  38.5427513  88.4021606  59.2497368  38.7699509  89.3327866
  59.3773003   2.3661401  30.9140625  58.7838058   2.7467721  30.2666702
  59.2523766   2.9016385  31.6975594  30.5058880  21.2093296  86.2286835
  30.1762753  20.3833103  85.8747330  31.1054916  20.9481297  86.9275970
  81.0227890  34.6498489  69.9631958  81.1403885  35.0691757  70.8155823
  81.5523834  33.8540382  70.0126648  67.5402527  43.2281036  48.6015549
  67.6366882  43.0758667  47.6614723  68.0580673  42.5348511  49.0108147
  39.1684570  28.5418129  69.2842712  38.3994904  29.1097775  69.2358704
  38.8096504  27.6549034  69.3139877  56.0451241   9.4106512  55.4649086
  56.5335464  10.2004890  55.6969261  55.2678947   9.4370813  56.0229797
  85.2723541   3.0721252  70.8372192  85.1893692   2.6016002  71.6666489
  86.1881409   2.9535985  70.5851898  75.6827621  20.8159008  47.7770500
  75.8793106  21.0335350  46.8658752  76.2915802  21.3497639  48.2875023
  58.7270851  53.8422012  83.9029388  59.0311699  53.5281219  83.0513992
  58.7421646  53.0665588  84.4636383  65.3966064  28.1514225  47.6750793
  65.8985519  28.4153385  48.4462013  65.9979019  28.2816944  46.9417915
  17.5589981  51.0242691  26.1648216  16.9284592  51.7279472  26.0115471
  18.4059811  51.4676971  26.2120132   0.2276407  59.3135529  74.1370392
   1.1798998  59.3293571  74.2328720   0.0241571  60.1036186  73.6364136
  16.8550472  42.7572289   4.2443781  17.6890316  43.2020836   4.3953948
  16.1984158  43.4505959   4.3099971  45.3215218   5.9242749  53.8696671
  44.5266418   6.4436812  53.7487755  45.3677101   5.7733092  54.8137589
  22.6216564  44.6120224  75.9575729  22.5836220  45.0704346  76.7969971
  23.4396629  44.9093056  75.5591736   1.4320300  21.5501862  36.9612045
   1.6873157  22.2527332  37.5591087   1.7737343  21.8240662  36.1100540
   7.3490348  30.8689384  85.4635239   7.9767070  30.2199841  85.1455383
   7.5095382  30.9156322  86.4060211   0.8376592  49.0712852   9.8426208
   0.2619354  49.6990395  10.2793112   0.5835927  49.1143532   8.9207592
  70.4691010  47.7123642  68.6576080  69.8096466  47.1946945  68.1956787
  69.9841309  48.1471138  69.3590546  19.6243992  11.7852449  69.3171844
  18.9334755  11.2008724  69.0051498  20.1572990  11.9615107  68.5418320
  14.6770153  56.3985634   7.5574522  15.1624918  56.9332619   8.1856575
  15.1287231  55.5546608   7.5617185  28.8034801  52.8746872  32.4645004
  29.5643806  52.5239983  32.9274063  28.3220863  52.1001244  32.1737328
  58.6540031  20.1458492  39.3006706  58.0490608  20.0665607  38.5631142
  58.8302803  21.0844059  39.3660278  80.3175964   9.3581390  84.7115784
  80.4514236   9.9326296  83.9577408  80.0015106   9.9398556  85.4029007
   4.8912759  31.4990044  84.3426590   4.6373005  31.4241123  85.2625046
   5.8476887  31.4620399  84.3544846  67.1076584  38.6920204  84.9047546
  66.7846603  37.9485359  85.4138107  67.1063385  39.4235954  85.5220337
  51.5648918  67.1200562   6.4307542  52.1915207  66.9602356   7.1364641
  50.7708321  66.6626968   6.7073860  57.9720650  25.3922195  86.8195496
  57.3925743  26.1484833  86.7274323  58.7458763  25.6191959  86.3038635
  25.7866325  67.9055939  29.5618191  26.2898121  67.2037277  29.1490021
  25.7523327  68.5966721  28.9004040  37.2012100   7.8386803  68.6052628
  37.3484993   8.7711544  68.4470520  36.2946091   7.6903949  68.3363419
  16.6822319  25.6702900  68.2101212  16.2576370  24.9216518  67.7911987
  16.2277641  25.7659264  69.0471039  65.0777969  31.7621670  46.5886116
  64.8301392  32.0628128  45.7142487  65.8131866  32.3230133  46.8353615
  17.1513653  21.1823997  20.8236637  17.9023514  20.6041412  20.9573383
  17.4232750  22.0191517  21.2006855  16.7306232  63.2325783  72.3633728
  16.1749592  62.5183907  72.6754684  17.5088539  62.7964630  72.0163956
  61.6428604  67.6467819  86.6100845  61.4404945  67.9735565  85.7334442
  61.2622223  66.7687988  86.6322021  66.5677719   1.5344634  30.3230648
  66.9626465   1.3221134  29.4773617  66.2004318   2.4101450  30.2027569
  61.0258598  65.2352295  11.6259375  61.7444916  65.8130341  11.3691502
  61.0141602  64.5541458  10.9534655  41.9999352  64.0980911  59.8559761
  41.7522392  64.8027344  60.4545975  41.1669388  63.7260132  59.5662994
  53.6317024  45.8119469  36.3065262  52.8844452  46.1250038  36.8162651
  54.3445396  45.7464485  36.9419823  26.2893124   4.7971740  16.8330841
  25.5692101   5.3933806  17.0385647  25.8592606   3.9990437  16.5260410
  35.0761147  67.1916351  22.3459110  34.6901741  66.6537247  21.6545849
  35.2000732  66.5877838  23.0781860   3.2639251  52.9890938  52.6216698
   3.1368151  52.1634178  53.0889320   3.2900920  52.7399254  51.6978416
  27.8509102  67.0730896  82.2263184  26.9902973  67.2225189  81.8348465
  28.3636723  66.6647110  81.5288010  30.6288815  44.0054703  20.2108765
  30.5862541  43.9596825  21.1660290  30.0638103  43.2932243  19.9114895
   3.4008138  29.1078777  58.1222954   3.6232166  29.9775753  58.4545555
   3.3821645  29.2124691  57.1710091  39.1849709  71.0879211  58.2489510
  38.4454651  71.3470688  58.7986832  38.8734436  71.2151718  57.3528557
   7.4771338  60.1125107  72.6357422   8.0442820  60.8282356  72.9226456
   8.0305109  59.3331642  72.6869431  50.3730469  49.3028641  16.0185108
  50.0108528  48.4975624  15.6490021  49.7467918  49.9829826  15.7705727
  84.0154724  54.7334900  75.4190369  84.1712189  55.3571930  74.7098312
  84.4925919  55.0957031  76.1656265  84.3728104  19.7642918  78.9953690
  83.6531448  19.2936535  79.4158478  85.0647278  19.1095543  78.9015350
  44.0609245  57.1657372  45.1937027  44.1749496  57.2102394  44.2443619
  44.6156044  57.8673630  45.5347099   8.9918938  21.0087795  43.0215530
   8.8718386  21.4414959  42.1762276   8.1941586  21.2118740  43.5100250
  86.9733124  58.7000275  86.5615616  86.4072342  59.3992691  86.8884430
  86.5415039  58.3957443  85.7633286   3.4205570  12.2116737  23.6427975
   2.8820376  11.5526905  24.0809422   4.2663279  12.1647902  24.0885620
  78.2558594   7.7357764  31.1644821  78.6665344   7.9334645  30.3227596
  78.4134521   8.5154963  31.6968670  18.1707802  58.3267670   6.6437263
  17.2698345  58.3021126   6.3213625  18.2190762  57.6087265   7.2748489
   0.8638664   1.9573202  70.7848511   0.7214817   1.1460347  71.2724686
   0.8552820   1.6891565  69.8660202  51.8313370  35.0644417  87.3263626
  52.3021965  35.8977814  87.3346863  52.0593262  34.6689072  86.4850540
  65.3269730  40.9426079  47.1104240  64.8223114  41.7541885  47.1641273
  65.3809586  40.7557030  46.1732025  54.5782776  12.5559931  24.8234329
  54.4028130  13.4456406  25.1299801  53.8924255  12.0239916  25.2269325
  79.6889572  24.1999016  25.9627380  78.7738953  23.9771175  25.7917004
  79.7110367  24.4240494  26.8930607  44.2874832  47.6417274  16.8079548
  45.1713028  48.0091171  16.7968540  43.9969978  47.7439041  17.7142715
  69.5971069  35.4581528  24.6244888  69.9674835  36.0618706  25.2683620
  69.2059097  36.0262337  23.9607964  31.3700428  17.2436485   2.7553651
  31.0254955  17.9950237   3.2380192  30.6702671  16.5917854   2.7956126
  66.0344315  38.4240723  68.3947067  65.2142410  38.8154106  68.6953201
  66.2076721  37.7206955  69.0203934   1.0627625  60.7975464  58.8092728
   1.4635268  60.4760284  58.0016556   1.6028999  60.4285545  59.5080795
  69.6563110  10.8892632  50.7201500  69.9063797   9.9653606  50.7302933
  70.4433670  11.3535604  51.0051193  70.1178513  48.1202469  36.9125748
  70.2978821  48.7696266  37.5923729  70.6008301  47.3420639  37.1907768
  32.6744232   5.5475106  43.7052002  32.8325920   6.4213161  44.0625191
  33.5479660   5.1717877  43.5957222  33.3454857  39.2019234   6.3685112
  33.1217079  39.7614861   5.6248422  33.3085823  38.3118896   6.0182056
   5.9441671  10.9348431  70.7605057   6.3244691  11.6086426  71.3240662
   5.9399629  10.1448774  71.3010330   3.2471600   1.5788066  86.9524002
   3.7071233   2.1784394  86.3649445   3.9447997   1.1078821  87.4082031
  15.3627272  35.4176292  72.1469421  15.4503002  36.3633270  72.2661972
  15.4984207  35.2808800  71.2093277  80.8519363  17.2745419  29.1403446
  80.0963135  17.4818687  28.5905437  80.6383209  17.6524715  29.9934368
   0.9544529  41.2399559  38.0708885   1.2052028  42.1562347  37.9534416
   0.4122180  41.0403214  37.3077660  48.5361290   8.5629063  55.7414131
  47.7718735   8.3860035  56.2899132  49.2279320   8.7931070  56.3616104
  52.8121986  69.0179825  30.1331005  53.7107964  68.8289032  29.8629055
  52.9019089  69.6870041  30.8117752  42.9411659   9.8574429  77.7121964
  42.2756348  10.3940048  77.2816162  42.4544601   9.1169624  78.0741806
  85.1366882  28.8140717  50.8672256  84.5399628  29.4213409  50.4297600
  85.9736710  28.9362202  50.4191589   2.0840907  26.9986267  88.9798203
   2.2380667  26.6200333  89.8453751   2.7960267  26.6569576  88.4388504
  28.5900612  25.1915836  87.3804321  27.6947880  25.0271282  87.6765289
  28.5274944  25.2067375  86.4253998  64.4359360   5.2915215  32.6820793
  65.2047272   5.7442546  33.0288277  64.5647507   4.3761358  32.9304924
  58.6590004  11.3827686  75.4829483  58.5088844  10.9968166  76.3459320
  58.9752464  10.6554461  74.9470139  42.5322952  18.7009411  87.2442627
  43.3409538  19.1069355  87.5564728  42.7828827  17.8025036  87.0292130
  75.2781143  20.6414795  37.6993523  74.5909729  21.0739441  37.1923523
  75.1171722  19.7065201  37.5721588   0.2833193  45.1739082  63.2511063
  -0.6058322  45.5254326  63.2055931   0.7732064  45.6765823  62.6002884
  57.1366005  23.4821053  60.3427238  56.4693222  23.2189369  59.7089157
  57.2639580  22.7083454  60.8916397  76.5567017  16.7290077  79.4136887
  76.6325226  16.0111542  78.7850647  75.6139984  16.8628330  79.5118637
  69.3373337  25.4356804  38.5186005  69.0571518  24.7695007  37.8909607
  70.0014038  24.9984074  39.0515518  80.1447754   3.5497763  27.3442459
  79.8786163   4.2821193  27.9001808  80.0253448   2.7756586  27.8944340
  50.8879242  36.6582336  29.0205078  51.2401581  36.1863937  29.7751770
  50.9531975  37.5817337  29.2636490  69.9158096  61.3368492  71.9001694
  69.3639297  61.4945564  71.1341553  69.6422577  60.4769516  72.2195129
  10.0070066  15.2284384  63.2048607   9.0568352  15.1300344  63.1438446
  10.1343660  15.9380941  63.8344650  61.1011353  42.8166389   1.0723979
  61.2120285  43.3670654   1.8476188  61.4364204  43.3488007   0.3508560
  66.4547882  56.9073601  71.4821777  65.5738907  57.2463417  71.6413803
  66.4588699  56.0457916  71.8992081  19.0869884  60.3110390  48.3439217
  18.5475483  59.9558907  47.6374474  19.9159985  59.8377571  48.2733498
  82.7126389   3.0231857  63.0137634  82.7201996   3.9539623  62.7905388
  82.3140945   2.5979989  62.2544174  57.8460922  46.8226700  59.7848206
  57.9206390  46.1466217  60.4583435  57.3013191  46.4250374  59.1055984
  72.3678360  26.6499882   3.8819461  72.4385757  26.3581905   4.7908368
  73.0121765  27.3537006   3.8054810  21.4227505  49.4621849  83.6774673
  21.2342796  48.6147194  84.0805969  20.6138420  49.6960793  83.2222824
  82.2682724  33.1051331  37.6169243  81.9401932  32.3730431  37.0947685
  82.0212021  33.8842850  37.1188164  79.7520218  36.5872383  54.5890656
  79.9761124  37.3153954  55.1685524  80.4787445  36.5432892  53.9676399
  77.8032761  64.9909363   9.5852356  78.5640793  64.4662094   9.3360767
  77.2561646  64.3928528  10.0943470  80.4496841  69.2763901  56.7429161
  79.8492432  69.5085220  56.0345230  80.3767014  68.3248291  56.8165970
  57.6919708  37.0886841  62.2697525  58.0025291  37.5514526  61.4915314
  57.7074013  36.1645126  62.0209465  85.4159698  59.5320091  68.8769760
  86.1844940  59.8841095  69.3259964  85.0144653  60.2927361  68.4570694
  55.3432083  60.0097504  86.1160049  55.4765625  59.2519379  86.6853561
  55.9264603  60.6810226  86.4701920  82.6428604  69.5890808   4.1312823
  82.3324585  69.1086426   3.3637767  82.7163010  70.4955902   3.8328373
  48.5184784  30.6981106   6.0243940  49.0096779  30.7710361   5.2060819
  47.7062035  30.2559338   5.7775741  35.9998550  57.8939781  48.5407791
  36.7444458  57.3503799  48.2832603  35.5430603  58.0787888  47.7201614
  84.1681824  53.7377472  11.8724203  83.3482819  54.1440315  12.1533623
  84.1462860  52.8622055  12.2586527  22.7962399  21.7631817   7.4371052
  22.4724159  21.7855015   8.3375893  23.3266106  22.5556240   7.3535933
  20.2861996  67.5312195  39.2147179  20.1365452  66.9266281  38.4878769
  19.9094849  67.0890427  39.9755058  12.1800528  43.7169685  81.0946426
  11.5616646  44.3915291  81.3753586  12.9463482  44.2050095  80.7932510
  46.5421448  67.6892014  74.1866379  46.4438210  68.5610886  74.5692291
  47.4238930  67.6891403  73.8141403  81.6715775  41.8896370  28.5759544
  81.0404510  42.1736603  29.2371979  81.4114380  40.9926567  28.3662319
  16.0029640  38.6489067  40.1676636  15.9130211  38.8819351  39.2436295
  16.4466667  39.3998375  40.5619545  31.5589905  45.9813385  88.8291245
  32.2612267  45.8956261  88.1843414  30.8886852  45.3637276  88.5367508
  61.6212921  37.7688675   9.0089502  61.4931335  36.9716072   8.4949665
  61.6919212  37.4622726   9.9129639  83.2746811  47.6633759  66.5991974
  83.9644318  48.1111069  66.1092834  83.0536728  46.9031334  66.0612183
  18.9939251  34.1321220   9.5593567  19.5185165  34.5804634  10.2226992
  19.3452511  34.4437485   8.7252769  70.2460480  43.0808372  68.9980621
  71.1717682  42.8770103  69.1312180  70.0713501  43.8049316  69.5992203
  66.4578018  13.4416571  18.8533421  66.5291595  12.8028708  18.1440506
  67.3637466  13.6673851  19.0644169  31.3079643  53.0566864  31.2840900
  30.4273319  53.4096489  31.4111195  31.8760738  53.8270340  31.2772446
  24.6091957  51.0100708  68.0740585  24.1636600  51.0486145  68.9203720
  25.0144348  50.1430740  68.0559845  37.6070023  47.8870201   0.6275221
  38.4751244  47.5924110   0.9028381  37.2044449  48.2261276   1.4270136
  58.2600975  62.7605820  16.6359806  59.0829239  62.8260651  16.1513138
  57.9463463  61.8742371  16.4565907   1.4172575  58.2355804  82.4669571
   1.1233281  59.0361748  82.0323486   1.6220912  58.5096970  83.3609009
   1.8992826  62.3112640   6.1712651   1.1299989  62.3242302   5.6018209
   1.5465198  62.4300003   7.0531335  73.8825760  41.7072449  62.5050392
  73.0649033  41.7256584  63.0023308  74.4807281  42.2608185  63.0070419
  16.4709225  16.6289310  68.7453384  16.9462490  15.7981424  68.7546387
  17.0064850  17.2052021  68.2000732  46.4183693  34.5965691  72.4231796
  47.1834526  34.4168701  71.8767471  45.6800766  34.5809898  71.8141556
  77.3632355  25.3309555  56.1599655  78.2404251  25.5463791  55.8431625
  77.4522171  24.4543343  56.5339279  14.7585783  36.2764778   2.7077239
  15.2976923  35.6311569   2.2503955  14.5006332  36.8984146   2.0273619
  11.8455906  43.2126961  46.2002335  11.1404171  43.6899643  46.6374702
  11.8163652  42.3367043  46.5849609  80.4620438  71.6817017  26.1552792
  81.2715912  71.2052155  26.3392086  79.8177109  70.9977341  25.9728909
  78.1792145   9.9383926  49.5857315  78.0839386  10.8877811  49.5094681
  77.4327927   9.5832348  49.1030884  12.2843323  40.6758308  81.3443146
  12.7372322  40.3424072  80.5697479  12.1878910  41.6138954  81.1800995
  54.5862312  41.2989845  53.3671646  54.4864235  41.5336151  54.2897797
  53.6912689  41.1610336  53.0569382  75.7038498  67.2334900  24.6677380
  75.1819534  66.7177048  24.0530624  76.5461578  66.7803879  24.7057571
   9.3122663  55.6662827  12.1330948  10.1669407  55.5480843  11.7186136
   8.9159231  54.7951355  12.1173697  37.9641228  33.3963089   0.9691402
  38.6527367  33.7316208   0.3950213  38.2377510  32.5023460   1.1745424
  85.6199875  39.6029968  32.9743500  85.4707260  38.8478394  33.5432892
  86.3592911  39.3455086  32.4235687  71.3838730  44.1492805  62.3254242
  70.6154785  44.4305801  61.8287697  71.0584412  43.4532967  62.8963280
  74.0912704  14.3898773  72.8437271  73.8302460  13.6445961  72.3027496
  75.0197449  14.5148325  72.6473694  25.5158520   1.0178638  81.4107437
  25.0970592   1.4255618  80.6527023  24.7933807   0.8236067  82.0078430
  48.3697853  63.0824471  16.5300217  49.1951714  62.8099174  16.9308949
  48.5120850  63.9973030  16.2870808  80.1186752  20.7281399  55.6538811
  79.2016296  20.5545177  55.8662796  80.2544479  20.2983952  54.8094177
  25.7802277  51.3738632   5.7464123  25.5214615  52.2382011   5.4267349
  25.2950306  51.2659111   6.5644350  80.5169983  66.0693970  75.8338852
  79.7001419  66.2856064  75.3841782  80.9874115  66.9011993  75.8891296
  36.5336914   2.9779341  78.7120132  37.2547035   3.4062414  79.1734467
  35.7612076   3.1705306  79.2434311  86.3445816  22.3643246  57.5887108
  86.4294739  22.6183777  56.6697540  86.5650558  21.4329433  57.6010704
  41.2634697  62.6312141  18.9618320  41.9701996  63.1674805  19.3212490
  41.4643784  62.5645790  18.0283298  86.4185181  48.5039368  32.4361649
  85.5915527  48.7988548  32.8174591  86.1587524  47.9346771  31.7118073
  33.2908173   2.2598977  41.1565247  32.5333290   2.8439925  41.1208534
  32.9249878   1.3850055  41.0262833  76.6994324  42.1806641   9.1751766
  76.2324829  41.4639206   9.6046734  77.5447159  41.8036041   8.9311371
  49.2528458  65.4612961  86.7739258  49.2484703  64.5552750  87.0826874
  50.1695557  65.6378555  86.5625000  57.2655907  61.1498947  67.5717087
  57.6649895  61.9335365  67.9493561  57.2950172  60.5027466  68.2763824
  51.7602615  60.4291992  19.0289326  51.3253479  60.5459900  19.8735886
  52.5374527  60.9855423  19.0807590  77.4725189  67.5202942  83.9000397
  78.0452576  68.2790070  84.0120773  76.8714905  67.7751999  83.2000198
  79.8517380  36.6762428  45.6856079  80.4604568  36.0794563  46.1209641
  79.5394897  37.2514534  46.3840866  50.4003181   5.9562340  51.6208687
  50.4232178   5.3458567  52.3578529  49.8524895   6.6795011  51.9258270
  71.3234711  22.0917606  36.4629211  72.0272369  22.5711594  36.9000969
  71.6581573  21.1989346  36.3787880  14.1626339  45.9755745  30.4731731
  13.9814510  45.0888214  30.1616039  14.5205669  46.4291229  29.7100163
  45.3249969  49.3558922  81.6043854  45.0059700  49.5359421  82.4887161
  44.9961205  48.4793663  81.4049530  45.2392845  57.5931282  80.1297379
  45.9269028  58.2317314  80.3184052  44.6847191  58.0235062  79.4790039
  29.0539513  16.3790340  81.8164215  28.4297447  16.7619991  81.2000275
  29.4294262  15.6348886  81.3457870  12.8005381   5.2136893  21.0262451
  13.3215990   5.7300096  20.4113140  12.4852905   5.8510203  21.6670723
  59.7937927   3.2856820   4.2152710  59.1706963   3.9088559   4.5889540
  59.2889977   2.4801373   4.1034093  68.7309036  57.8919945  55.0799522
  69.6226120  57.8310852  55.4225540  68.4165497  58.7446671  55.3805504
  53.4491997   6.5829029  79.3983917  53.6046791   6.6987214  78.4610291
  54.0507698   7.1974721  79.8186874   0.4365768  62.6222725   1.8130608
   0.3259632  62.2054520   2.6676116   0.3096442  63.5555687   1.9835788
  22.3981514  49.5004272  45.4245415  21.5785542  49.9708328  45.5768967
  23.0700378  50.0554848  45.8204079  60.8715096  69.7069855  13.9973974
  60.9129524  68.7656708  13.8287373  60.4878120  70.0761642  13.2019653
   5.1236639  58.0321465  59.2247353   4.9759479  57.5545692  60.0410271
   4.7036686  57.4945145  58.5533295  81.1318207   9.3366632  37.8548508
  80.5851364   8.7221870  38.3445320  80.5079041   9.9094124  37.4088440
  45.3511848  69.1300201  53.0425072  44.4142570  69.3010406  53.1381912
  45.6352654  69.7311020  52.3538628  66.2803650  64.7055054  33.6089630
  66.6389694  63.8303375  33.4615974  66.8947067  65.1168213  34.2169418
  57.7713013  36.6194878  44.9542847  57.9646950  37.3169746  45.5806618
  56.9110146  36.8463936  44.6012230  17.8639145  71.0116806  45.3262711
  17.2824364  70.2682037  45.4855118  18.4784737  70.9965363  46.0599747
  72.7553482   8.3835535   9.2310944  73.3783798   7.8347759   9.7074461
  72.5270844   7.8697357   8.4564228  61.5841789  28.6143570  39.6250496
  60.7071800  28.8531170  39.9252205  61.4587784  27.7946777  39.1468925
  16.9927025  10.1532183  87.9131088  17.1256847   9.2421350  87.6514282
  16.0420322  10.2502527  87.9682617  85.3926849  44.0450401  82.7855606
  85.0005417  43.4211845  82.1746063  86.1597366  44.3830223  82.3233414
  22.3189678  54.9586449  23.0523739  22.8988380  54.8928986  22.2936535
  22.8855267  55.2634392  23.7611370  12.8641739  40.8709068  16.6466331
  12.8517780  41.0581627  15.7080107  13.1922350  39.9737473  16.7075729
  45.8303108  28.8845406  57.4318924  46.0544052  29.7660446  57.1336212
  45.7243958  28.9719238  58.3791924  43.4080849  60.6025925   1.1103615
  43.5042763  60.1818237   0.2560010  43.4595299  61.5398483   0.9229009
  75.0715027  49.7573853  21.0791378  75.3156738  48.9902115  20.5614014
  75.4218979  49.5788116  21.9518147  42.5743332  56.2932320  85.4300232
  43.3790779  56.5528564  84.9814529  42.5102997  56.8929214  86.1733246
  34.4436226   4.9771223  24.4462872  33.6293907   4.7433381  24.0006351
  34.1602097   5.3860569  25.2640171  20.1152534  10.9256449   8.6004744
  20.6517277  10.4096880   7.9986305  19.2999268  11.0791168   8.1230631
   1.3281552  55.8874588  26.1022511   1.8974303  56.1286278  26.8330002
   0.4872895  56.2954559  26.3089237  67.3600540  20.6549778  58.3414612
  67.7486725  21.3655548  57.8312759  66.5409317  21.0203609  58.6757851
  82.5244141  53.2440796  60.3075752  83.4807739  53.2205162  60.2749977
  82.2488937  52.4699020  59.8166885   2.7498829  15.5501909  11.6591063
   1.9744569  14.9999390  11.5487900   3.4645169  15.0347290  11.2851686
  49.2538795  54.8167648  77.0061874  49.6723175  54.2953072  77.6911850
  49.9739494  55.0835648  76.4347382  74.6808014  60.6276016   8.5814753
  74.9061584  60.1976776   7.7564836  74.4151459  61.5111084   8.3263845
   4.7551675  56.8840408  81.1045914   4.0146790  56.2805710  81.1656799
   4.9768028  57.0840492  82.0140457  18.2640800  70.9814072  86.1464615
  19.1050777  71.1060638  86.5862503  18.2010174  70.0355301  86.0138702
  13.8336754  46.8775635  13.8346510  13.8589487  47.2674980  14.7084618
  13.1202631  47.3344154  13.3890486  53.7556801  34.6264954  30.8731956
  54.5253029  34.8055916  31.4134140  53.3271217  33.8871803  31.3044548
  16.8763428  52.0249596  50.9516258  16.5763206  51.1176910  50.8961143
  16.1166115  52.5449219  50.6895523  67.1740875  50.3118858  57.9679909
  67.1990204  50.7500114  58.8186722  67.2679367  51.0201378  57.3309669
   5.0794597  53.7273941  10.5702744   5.5913167  53.1696777   9.9844513
   5.6608210  54.4607353  10.7714281  60.1381950  46.7921677  82.5943756
  60.8631363  46.8826103  83.2128448  59.7548523  45.9389954  82.7977829
  49.8952827   5.9425383  85.4958572  50.1857567   5.0520349  85.6929932
  50.1919594   6.4621568  86.2429962  78.5067444  13.6800871  82.1785965
  78.6855850  13.8740578  81.2584763  78.3975983  12.7295294  82.2061539
  42.6737404  25.0841904  67.0268326  42.4205780  25.1713982  66.1078491
  41.8490181  24.9355106  67.4893951  68.7118912  60.8406448  52.1566582
  68.5807571  61.6630096  51.6846924  69.0184860  60.2274055  51.4887047
   5.0629516  68.0226288  24.2349606   5.7061639  68.7004242  24.4425697
   5.0343919  68.0044937  23.2783585  64.6583099   7.7695432  59.3689766
  64.8431244   8.1374893  60.2330894  63.7599945   7.4454188  59.4338074
  61.0156784  68.4694977  81.7253876  60.2039299  68.6048584  82.2142334
  60.8739510  67.6524429  81.2472992  24.1456985  63.6740990  61.5936165
  24.6732216  63.5448608  62.3818130  23.8514481  64.5832825  61.6487617
  71.2432785  15.2676096  77.6651611  70.5582047  15.4714746  78.3018265
  70.7677460  15.0406523  76.8660507  83.5243454  32.2192459   3.8228695
  83.5547409  32.5057144   4.7356911  83.6567307  33.0203018   3.3159091
  22.8708897  46.2416496  21.2886009  22.0653248  46.5174866  20.8513222
  22.5796909  45.9007759  22.1343193  83.9299011   7.4008732   6.7691050
  83.0046463   7.6195621   6.6581497  84.3922348   8.2210674   6.5965772
  80.4383087  24.7791424  37.8182907  79.7810516  24.5619869  38.4794159
  80.6217499  23.9477673  37.3808022  54.8663750  30.5086002  71.7991180
  54.1711769  31.1508789  71.6562576  55.0347977  30.1409740  70.9315262
  81.2236786   6.1232824  79.9695816  81.6750259   6.0608115  79.1277924
  80.7407913   5.3001785  80.0440979  54.1519394  42.0558319  15.4431028
  53.2758560  41.8502426  15.7693663  54.0441704  42.1247940  14.4944925
  43.7404861  36.0953064  14.5345755  43.2381935  35.3839760  14.9319973
  43.4327660  36.8842239  14.9808407  70.6589890  10.4702396  78.1745682
  71.4453354  10.8187618  78.5945892  70.0280380  10.3759842  78.8881836
  36.6393852  52.2538948  35.2485237  36.2170792  52.8673630  35.8498116
  37.5550232  52.5320282  35.2265625  42.7059135  66.1278381  77.5847092
  42.6235199  66.0651093  76.6331253  42.7392159  67.0681229  77.7607574
  10.4568720  13.2421761  57.2792778  10.4582090  14.0864840  57.7302475
  10.4479342  12.5943174  57.9838600  47.3955498  40.9555435  87.7622833
  46.7278519  40.7082558  87.1225510  47.8415794  40.1350594  87.9722824
   7.4628959  46.0855217  57.6377411   7.4573631  45.6490440  58.4896126
   6.9414124  45.5151443  57.0729790  75.3124313  24.5773392  48.9078598
  75.4269180  25.3829861  49.4119034  75.0791473  23.9174232  49.5607948
  80.4668808  69.4045410  49.2973671  79.8643570  68.9419632  49.8797836
  80.8669891  70.0754776  49.8505363  76.8486404  12.9124088  65.6889801
  77.1117630  13.3071022  66.5203781  76.4528580  12.0764160  65.9353638
  24.3921680  54.3254013  59.7117920  23.4668350  54.4709358  59.5147820
  24.8594952  54.7388573  58.9859200   3.3251977  54.1827164  82.0521393
   3.9363999  54.2691231  82.7837067   2.5611255  53.7460938  82.4286804
   7.2863946  17.3531017  27.0600204   6.8902678  18.2203598  27.1447468
   6.5520506  16.7729759  26.8589573  57.4753227  48.2877541  13.3509912
  57.0520554  49.1090622  13.6010437  56.7500267  47.6884804  13.1747675
  24.0535431  27.2527809  75.2723846  23.8999004  28.1301422  75.6229019
  24.2300968  27.3939857  74.3422699  70.2638474  64.0864334  71.5584641
  70.5584412  63.2124405  71.8145447  70.1340179  64.5477600  72.3870468
   4.8589673  62.9592476  51.2462044   4.6062517  63.7463493  50.7636681
   4.2049861  62.3058434  50.9980087  14.2307854  32.1771927  65.5105820
  14.9268360  31.6958084  65.9578094  13.7213306  31.5013714  65.0634155
  73.9372253  44.7353935   2.0302839  74.8145142  44.9366188   2.3560185
  73.5269241  44.2387962   2.7382896  20.4429646  33.7452316  74.8142090
  20.8326149  33.4697456  73.9844360  20.7267742  34.6529617  74.9224091
  85.4425888  20.3263607  12.8034477  84.5534744  20.6254387  12.6130257
  85.7559662  19.9638481  11.9748268  51.7656746  22.0587502  17.9618587
  50.8884773  22.1394215  18.3363628  52.0011482  22.9514008  17.7089558
  26.1325054   3.2149246  71.1870651  26.0219593   4.1428456  70.9797668
  25.5235348   2.7645528  70.6017838  71.1066208  33.8426514  40.1696968
  70.6463776  33.0963135  40.5536003  70.4093323  34.4178772  39.8548470
  65.0023193  48.8109627  32.2513580  65.3607330  49.3211288  31.5250626
  65.3136749  47.9195137  32.0944901   4.9761295  30.5831890  62.3227348
   4.9530373  30.8446159  63.2432556   5.9050245  30.5997601  62.0922775
  77.2376022   7.9265594  54.4178467  77.7173386   7.4705033  55.1092949
  77.2603073   8.8474693  54.6779251  79.0898819  48.6078529  24.0853024
  79.9043579  48.9184380  23.6898289  78.8996048  47.7880402  23.6293049
  14.7255325  35.1695442  84.5737000  14.0183887  35.5025597  84.0211716
  14.3554869  35.1599007  85.4564209  72.2498016   3.4144964  22.7677135
  71.8320923   2.9181335  23.4715405  72.5953674   4.1963434  23.1984501
  71.9303818  55.7864304  13.8946514  71.2478180  56.3127518  14.3109779
  71.4515305  55.1459389  13.3686247   2.8630612   4.5508990  13.6408491
   2.3070681   5.2582092  13.9676752   3.6999731   4.9736395  13.4482327
  54.6430473  47.1806564  87.5710220  53.6869164  47.1785431  87.5258865
  54.8697891  46.3064575  87.8881912  46.6152802  68.2772980  29.9826965
  47.0845871  67.4821243  30.2350388  47.0741615  68.9816895  30.4404030
   0.5726096  55.5733261  86.5626221   0.6635895  56.5200272  86.4543686
  -0.2971393  55.3750572  86.2155533  30.6228771  43.2707825  54.8287697
  30.4428558  43.6315765  53.9606361  30.6401825  44.0338516  55.4063950
  50.7795258   9.7054214  86.8514633  49.9364700  10.1578026  86.8804398
  51.4289627  10.4085808  86.8568573  32.7857895  52.2264977  86.6652069
  32.3174171  52.3439522  87.4916840  33.7030525  52.3903198  86.8843536
  18.8070126  10.5178061  61.4097633  18.2159710  10.1271629  60.7661057
  19.0784912  11.3460073  61.0140190   3.5039749  19.4538879   6.7741232
   2.7033505  19.3880520   7.2946019   4.0587349  18.7438889   7.0971923
  64.3784103  56.1984825  35.4590645  65.1489639  56.0636444  34.9074326
  63.8717384  55.3919487  35.3640709  85.4600754   4.0987387  22.5211086
  84.9885330   4.3811455  21.7374439  85.8776627   3.2760997  22.2659359
  57.8285217  54.4833298   1.3266833  57.4185333  55.3421631   1.2239600
  57.1943207  53.8693542   0.9564770  17.1288033   9.4246626  56.2119179
  16.9597740   9.7045469  55.3122940  16.7682114   8.5392332  56.2590446
  30.0058155  46.0083427  14.4440155  29.8612022  46.9541092  14.4731674
  29.2793465  45.6710091  13.9199162  11.8655930  13.6256990   9.0479355
  12.0959625  12.7155285   8.8615236  12.2904844  13.8137312   9.8848000
  33.1995888  14.9528971  71.8740616  33.8861542  15.2411003  71.2725677
  33.5804749  15.0672159  72.7447510  83.3702774   1.2788070  54.7941666
  83.9053650   1.0424364  55.5518227  82.4694443   1.2388875  55.1153259
  26.7462387  35.0037956  67.8918076  26.4173164  34.7730408  67.0230179
  25.9653549  35.2570305  68.3840714  69.5872192  41.3684425  11.2797394
  69.2747421  41.4541817  12.1804285  68.8891449  40.8940849  10.8281746
  69.3164749  62.7929153  65.5771866  69.6239548  62.6058540  66.4641495
  69.9237595  62.3197250  65.0083847   2.6671689  49.2587547  13.9001303
   3.1159241  48.6743546  13.2891245   3.2488058  50.0148277  13.9793825
  66.6368408  19.9982014   3.9601285  66.0572205  20.7531471   4.0617328
  66.1455917  19.2669601   4.3345485  79.5660629  49.2577209  71.5954590
  79.8499756  48.3764915  71.8384781  79.0329742  49.5500183  72.3347855
  14.3752937  66.3301315  10.1154985  13.7337017  65.7572937  10.5355587
  13.9286318  66.6583786   9.3351288  78.1258698  39.9944267  42.1167107
  78.3373413  40.4968033  42.9035568  77.1727219  40.0482941  42.0471153
  82.5017242  20.7567081  16.4052658  82.4557495  19.8058167  16.3056450
  83.4349289  20.9595070  16.3402023  47.3118744  32.5445824  74.1558075
  46.9255753  32.7059364  75.0166016  47.1105995  33.3328018  73.6513901
  69.7247925  40.7949219  81.8405075  69.8220444  41.0176392  80.9146729
  70.3446655  40.0792236  81.9810791  85.2225952  34.0275116  39.3012314
  84.3235168  34.0711670  38.9756851  85.7435837  34.4599152  38.6246033
  70.8763275   8.8437643  67.6524506  71.5748520   9.4850531  67.7830353
  70.1220398   9.3641729  67.3759460  50.5007439  25.9885616  11.0644960
  49.8585358  25.4542847  11.5317755  50.2455788  26.8911934  11.2552299
  59.2653275   6.3717279  79.4618454  59.8931198   6.7444510  78.8428268
  59.3297539   5.4261007  79.3281708  12.0254269  34.9307060   3.5237994
  11.9316854  35.0834694   2.5835292  12.4132595  35.7385712   3.8602076
  13.3700399  51.5431595  20.5783272  12.7812328  51.2616577  21.2785378
  13.8107367  50.7407074  20.2988853   9.5450068  47.1604614  18.2450600
   9.0193481  47.4938011  17.5178757  10.4244623  47.5006409  18.0805397
  47.1615257  64.2217484  66.7074661  47.0218124  64.9761963  66.1351700
  46.4819298  63.5980568  66.4517670  22.8870163  61.2473412  81.2899017
  23.2832222  61.8864212  81.8822098  23.2901878  61.4260406  80.4403381
   3.2810810   8.5435724  47.3547134   3.4181564   7.6022258  47.4610519
   4.1113596   8.9381571  47.6214943  53.4082603   6.9902968  50.3523293
  52.8204727   6.2448664  50.2295723  53.0974426   7.4109173  51.1540146
  76.4422913  20.4422035  83.1920853  75.8328400  20.5785618  83.9174881
  76.9587860  19.6798134  83.4532928  77.0433044  59.0484657  77.0073547
  77.1975784  58.6299171  76.1604538  76.5644302  59.8495789  76.7949066
  43.3493690  55.1051712  46.5407181  43.5148010  55.7984962  45.9018402
  42.5889206  55.4113197  47.0349007  20.0214062  29.9548569  25.2529354
  19.1220322  29.8571129  25.5656738  19.9497776  30.5355167  24.4953518
  70.5040817   9.4540262  60.0744057  69.8219986   9.2452469  60.7126884
  71.2424774   8.8976460  60.3223000   2.8231006  49.5147514  55.8616295
   2.6432676  49.2690392  56.7691116   3.5270774  50.1603851  55.9233131
  48.0725517  60.0623055  68.2929077  47.5267792  60.7469521  68.6797180
  47.5055809  59.2916183  68.2643433   1.6490873  59.3099098  15.1858025
   2.3571002  59.1762772  15.8159542   0.9553379  59.7335091  15.6912813
  49.4188576  66.8958740  38.6830597  49.9363861  66.0908051  38.6666718
  49.8945351  67.4742889  39.2792091  42.9779205   1.4917413  24.4206600
  42.1995811   1.6231444  24.9620972  43.5105247   2.2722666  24.5734444
  12.3015184  68.6128540  57.2402458  12.0705605  68.7708740  56.3248634
  13.1408682  68.1545029  57.1997986  84.6349564  59.6522369  46.9620781
  84.8361816  59.0348969  46.2587814  83.9442596  59.2231369  47.4670944
  28.2072258  23.0978241  10.9694433  28.9049244  23.1468887  11.6229258
  27.9864159  24.0109234  10.7858047  53.2343636  25.6413689  51.4727478
  53.8250465  25.4519386  50.7437477  53.7553711  26.1782207  52.0698853
  80.1276321  50.4603615  33.8180046  79.1779175  50.3441734  33.7900734
  80.2851944  50.9518166  34.6241531  65.3393021  45.6676254  26.0829964
  64.9889755  45.4203491  26.9387760  64.9150085  46.5018921  25.8824711
   9.5488443  40.6385193  20.5788841  10.4342508  40.3979568  20.3060913
   9.0036373  40.4514465  19.8146954  68.7194290  24.9376335  50.6466179
  68.1794739  25.1996975  51.3922729  69.4684525  24.4891739  51.0391617
  76.4212952  65.2974014  50.3361816  75.6887360  65.8877258  50.5125351
  76.3011246  64.5755692  50.9532356  69.1854477  71.2477646  21.9837151
  69.0424652  71.5721512  21.0945816  69.2327347  70.2966385  21.8869514
  81.5134811   4.7512674  82.9607697  81.0983734   5.3784013  83.5529022
  81.1765213   4.9804411  82.0946503   0.1102612  68.4887848  51.3696404
   0.6555693  67.7456055  51.1116486  -0.7612126  68.1137543  51.4965935
  57.7921410  69.6227112  80.7390442  57.1276817  69.7970505  81.4056244
  57.4334297  70.0041733  79.9377670  48.0336227   4.2100844   8.1458216
  47.2272873   3.6967447   8.0954351  48.3228378   4.1133466   9.0531406
  22.5745430  30.7024364  82.0089569  21.8164654  30.1260548  81.9123459
  22.6173344  31.1825314  81.1819687  72.4889145  53.4268303  18.3459454
  72.0979996  54.1222801  18.8748741  71.7949829  53.1684456  17.7393723
  32.2964249   9.6004620  69.3199005  33.0499458  10.0268173  69.7281418
  32.5533257   8.6815224  69.2438507  76.5054092  69.7641678  39.1191216
  76.1656570  70.6588211  39.1389694  76.2433167  69.4273911  38.2623138
  78.5100632  61.9467468  73.9336853  77.8294754  62.3949699  73.4315643
  79.1072617  61.5996933  73.2710114  78.5305328   4.5077872  84.5694275
  77.7730331   5.0008497  84.8845749  79.2610703   4.8262415  85.0996552
  11.7731609  53.5111923  63.1374626  11.2842541  53.5117416  63.9603844
  11.4289360  54.2621040  62.6538620  77.4575653  70.2464523  23.1238823
  77.6731873  69.3188248  23.0277195  77.6689301  70.4482346  24.0353870
  39.2427444  52.2704926  73.9603119  39.7129822  52.4156189  74.7813110
  38.4682045  51.7682724  74.2134628   4.9434175   9.9243069   3.4825561
   4.7809782  10.8611603   3.3723288   4.1271620   9.5808058   3.8458276
  48.6827126   1.4993821   0.6839743  48.3031387   0.8446941   0.0978532
  47.9604111   2.0979521   0.8742983  86.3530045  14.2727976  32.2384415
  86.3363800  15.1991510  32.4789085  86.9738235  13.8775711  32.8504982
  73.3195343  44.2076950  65.9236832  73.4478226  44.6498337  65.0844727
  73.9932175  44.5771904  66.4945221  17.2719936  35.1342087   7.1439114
  16.6318703  34.5611496   7.5659008  17.2196178  34.9088211   6.2151008
  32.8894806  67.0093307  29.9819794  32.5399666  67.1874390  30.8551064
  33.3518295  67.8119965  29.7407494  18.6496792  59.8255424  69.9150162
  17.9162331  59.3205566  69.5639038  18.8923092  59.3675880  70.7197800
  73.1383133  44.3562660  85.3436508  73.7742462  44.1377068  86.0248566
  72.8982544  43.5125771  84.9605179  65.4824600  54.8262367  54.2639999
  65.0617065  54.4988976  53.4689865  66.4054184  54.9163437  54.0268021
  78.6952591  48.3295822  83.1892242  78.1859665  48.8650780  83.7975769
  79.4610519  48.8651733  82.9820251  40.5018425  66.3245316  52.8033142
  41.4411163  66.3247681  52.6189232  40.3648796  65.5494080  53.3479767
  58.2609596   4.4965730  75.5160065  58.0739861   3.6233041  75.8604965
  57.4361649   4.9730144  75.6106033  40.4578629  52.5474663  12.7737312
  40.1586037  51.7915802  12.2684488  41.3900452  52.3850746  12.9182968
  46.7091827  57.9619675  59.4171143  45.8496246  58.3696556  59.3113823
  47.3282967  58.6895828  59.3579025   3.3933346  21.5562153  11.6500692
   2.9989619  22.1615067  11.0221176   4.3247213  21.5552349  11.4292774
  52.3384781  48.7745667  48.7648354  52.8778687  49.5193558  48.4991760
  51.7231483  48.6543846  48.0415382  47.4464836  64.9943619  38.7330322
  48.0868950  65.6935730  38.8642082  47.8362465  64.4356461  38.0606079
  20.1506577   2.0059071  24.1359749  19.3649960   1.9606063  24.6808739
  20.3461933   1.0938056  23.9213390  27.5313873  70.3102798  41.6312866
  27.4288387  71.2105179  41.9399796  28.4760113  70.2006149  41.5222359
  11.6112471  58.2087517  21.9804039  12.2690277  58.3059158  22.6689644
  11.1586590  59.0519676  21.9608173  21.2543392  60.8722343  33.9590492
  20.6456966  60.8852463  33.2203865  21.5038967  61.7883911  34.0799255
  38.5552330  67.4064789  28.2363300  38.6011391  66.9165268  27.4153118
  38.4532776  68.3188553  27.9653969  32.3460159   4.5878654  76.6231155
  32.2462540   4.9251895  77.5133362  32.5547752   5.3594990  76.0965881
  22.6713963  44.3036118  64.5200958  23.5633926  43.9868279  64.3778839
  22.3963242  44.6363068  63.6657639  19.1382389  63.1211700  41.7900848
  19.1031532  62.8478279  40.8734131  19.3492317  62.3207703  42.2707825
  81.8979721  35.5048904   0.4848953  81.3959427  36.3197136   0.4686337
  81.3160324  34.8570557   0.0875433  58.1581268   6.4131999  14.6717386
  57.7159729   6.1178513  13.8758116  57.6054459   6.0941911  15.3851852
  51.1463203   5.6913414  32.1393166  51.0814781   6.6266761  31.9465046
  51.7447777   5.3506660  31.4744682  20.2300396  36.3162918  77.9764709
  20.9608135  35.8031693  77.6316452  20.5967464  37.1886902  78.1202850
   3.1440043  27.4845734  51.4527473   2.5483387  27.8545685  50.8011971
   3.9852545  27.4225883  51.0003204  66.6778336  65.9240265  69.3102036
  67.1676407  66.5229721  68.7466583  66.0172958  65.5393448  68.7340622
  45.7581673  33.5324364  60.6755829  45.0706215  33.2245293  60.0850677
  46.5514259  33.5330734  60.1398888  58.7237053  48.8554535  70.7836075
  58.1344566  49.1093903  70.0733032  58.1577415  48.4174767  71.4192963
  31.4701080  47.3941498  36.6725960  31.1154671  47.5141182  37.5535431
  31.1892395  46.5149193  36.4190178  13.7401199  58.8019028  23.7225151
  13.5658855  57.8731461  23.8751125  14.6888428  58.8863716  23.8174953
   8.8669434  30.3856773  87.7813721   9.2292948  29.8316097  87.0900345
   9.4570417  31.1384048  87.8190155  82.9751663  29.9210567  27.2887383
  82.5430222  29.0940933  27.5023155  83.9101181  29.7191601  27.3253078
  21.1967773  68.3231506   1.6008619  21.4219036  67.4846344   2.0039020
  20.5715466  68.7201691   2.2072449  76.0947189  18.1829472  46.7901878
  75.8240967  17.3455086  47.1666069  76.6189423  18.5957832  47.4764671
  22.5526276  64.9062576  24.5540466  22.0411091  65.2555847  25.2838058
  22.2616272  63.9981880  24.4705982  62.3723030   3.6601443  25.8373890
  62.0416298   4.3446031  25.2556648  62.7284241   2.9958136  25.2474098
  45.0689812  19.4455147  76.6854935  45.5976868  20.1659985  76.3425598
  44.3590927  19.8753052  77.1625366  53.4043503  28.0125389   9.0947104
  53.0386963  27.3818989   8.4743690  53.3400688  27.5771866   9.9447508
  25.1653709  69.7352676  14.0382767  24.7766399  69.3636093  13.2464457
  26.0834713  69.8797607  13.8092680  10.5919123  60.1004791  45.2747879
  11.3432264  60.5080757  44.8439484   9.8821869  60.7339058  45.1685219
  76.1777573  11.4551659  16.9681053  76.2316360  10.6987581  17.5522079
  76.0347519  12.1994982  17.5527000  58.1916771  57.5183945  65.9762726
  58.1676445  58.4346237  65.7002716  57.5137291  57.0923805  65.4517441
  73.8294144   0.9177343  19.7206116  73.7330627   1.8641369  19.6144466
  73.9088593   0.7896135  20.6658649  32.5383797  51.9043846  26.2552967
  32.5742683  51.1637039  26.8605518  32.4056396  52.6672783  26.8179760
  36.8863220  23.1192017  70.0301895  37.5281677  23.4994106  69.4304276
  36.0884743  23.6262875  69.8800659  28.0108013  51.2120857  23.1323395
  27.3773766  50.5371590  23.3762226  28.8302879  50.9293289  23.5381985
  37.9590034  67.2696152  85.6995392  38.1085052  67.9234543  85.0166168
  37.2770271  66.7011871  85.3417358  54.8389854  29.5765457   7.6292067
  54.1543274  30.2070656   7.4057689  54.3850555  28.8963375   8.1266994
  80.5243988  50.1802597  28.8940086  80.2311783  51.0764122  28.7291946
  79.7235565  49.7018356  29.1084633  50.8900108  69.2863235  43.2337494
  51.2001877  69.4538879  44.1236610  50.1329651  69.8630753  43.1314011
  78.1187439  26.5371246  39.0249252  78.1903687  25.5826950  39.0378990
  78.9343796  26.8330421  38.6206856  12.5782833  11.1558037   6.2516007
  12.0010014  10.6975689   5.6408658  13.3713608  11.3317490   5.7453365
  71.0039673  43.9674377  16.0798454  70.1951675  43.4844933  15.9100161
  71.6906204  43.4319916  15.6823092  81.3792419  46.7938461  11.7835836
  82.0428009  46.2352676  11.3787365  80.6016388  46.6759605  11.2379942
   5.1254115  63.8205872  19.9269562   4.7016916  63.0091400  19.6472321
   4.9333353  64.4446869  19.2270679  74.9732132   4.2076359  84.7734146
  75.1143951   4.4419703  83.8561401  74.0392151   4.0053816  84.8279266
  60.1786194  44.7766800  86.5155106  60.9188614  44.3721275  86.9678497
  60.1492348  45.6706734  86.8563156  35.6778259  52.7124100  87.3549805
  35.7245407  51.9733009  87.9614182  35.8841248  52.3342667  86.5001755
  78.1826630  17.6523380  41.1486740  77.7705307  16.7967377  41.0289612
  77.4810333  18.2115993  41.4821129  39.4390831  71.6713638  20.9257088
  39.2774925  72.2955551  21.6331749  39.4528999  70.8175201  21.3581390
  80.6088104  33.4618416  88.3757553  79.9854584  33.2405701  87.6838684
  81.4670410  33.2855415  87.9902802  83.4546661  29.4163036   4.1235533
  83.2270966  29.2775059   5.0428886  83.3707123  30.3612537   3.9960601
  45.6721687  40.9564095  65.5825958  45.2430420  40.1769104  65.2298050
  44.9516296  41.5166245  65.8710785  47.7835312   4.8509903  82.4090271
  48.3794708   5.5766382  82.5948334  48.3532829   4.1457477  82.1020355
  66.6427994  65.4145432  52.5088196  65.8200684  65.6179657  52.0638847
  67.2964859  65.9513855  52.0607910   2.6834722  58.9073105  68.4360733
   1.8861909  59.0943794  68.9316330   3.3955057  59.1030159  69.0451202
  57.8801270  62.0857391  38.4822960  58.1235886  61.2049904  38.7673225
  57.5612144  62.5148354  39.2762794  45.2771111  29.1569538  74.4248123
  44.8888321  28.3855305  74.0120392  44.5511093  29.5689087  74.8932571
  68.4377823   1.4054713   9.6306734  68.8302002   1.1862152   8.7855892
  69.0631943   1.0783275  10.2772512  20.9477024  49.7831230  10.1303864
  21.7221336  50.2708931   9.8500843  21.0783997  49.6446762  11.0684605
   3.3345022  62.8389435  11.6903200   3.1285505  62.4644508  12.5468073
   4.0641403  63.4351654  11.8587875  55.3349037  39.8925285  27.8002663
  55.1781044  40.8348503  27.8608646  56.2576675  39.7878647  28.0321941
  82.9622192  29.0548973  74.5205765  83.0875702  29.8090286  73.9445572
  82.0594711  28.7793369  74.3613663  36.6788063  37.5231934  62.3875198
  37.3071442  37.1030998  61.8002014  36.6452789  38.4328117  62.0913734
  84.1777878  19.4826202  19.0849800  84.8103867  19.3696632  19.7944088
  84.1793900  20.4237328  18.9102325  66.0172272   0.0518014  67.4288940
  66.2085266   0.9165441  67.0657730  66.6530609  -0.5292848  67.0114136
  38.2514496  38.0878792  18.8494587  38.9841194  38.2425537  18.2532177
  38.6128387  37.5212708  19.5310612  21.3839760  43.9181480   5.4478354
  21.9113503  43.3413010   6.0004268  21.1341743  44.6399117   6.0247989
  72.9700546  66.2046432  46.8887367  72.4638596  66.6997681  46.2446442
  72.4366760  65.4304810  47.0687561  70.7925568  29.2405128  12.6190195
  69.9285736  28.8354340  12.6943455  70.6127396  30.1378555  12.3385344
  10.5154171  58.0840034  47.4200172  10.4724522  58.5935745  46.6108665
   9.8440361  57.4099503  47.3145103  18.0962200  54.5026932  55.3902092
  18.0998955  54.2998772  54.4547501  18.3401966  53.6801262  55.8145866
  71.8749619  35.4296722  27.1270733  72.6512985  35.1156273  26.6634903
  71.9980011  36.3771095  27.1858444  50.8327103   2.0840452   2.4908442
  50.2111549   2.0819304   1.7629058  51.0679512   3.0051763   2.6022513
  74.4649582  51.4436188  35.1618500  75.2187347  51.4545403  35.7517166
  74.1105347  52.3315010  35.2096558  69.4153976  46.5730362  44.9642906
  68.4952087  46.6497154  44.7120972  69.8431244  46.1927299  44.1970596
  41.8914757  19.1368942  65.1817780  41.2479134  18.5274372  65.5431900
  42.3001060  19.5368061  65.9494553  82.0026627  16.8701153  38.0376625
  82.3288803  16.5572777  38.8814316  81.0741806  17.0459461  38.1901169
  85.0238266  47.9169693   4.4612060  85.9496155  47.9444504   4.2195792
  85.0276108  47.8173256   5.4131980  35.3596687  52.5185356  32.7782936
  36.0519562  52.7170792  32.1477737  35.8099365  52.4722786  33.6217117
  27.5856476  38.3303070  64.3790512  28.1606884  38.2093391  63.6234550
  26.9939041  37.5783997  64.3525009  42.8670425  66.2789230   6.7806978
  43.5626335  65.6453247   6.6047950  42.7262230  66.7189102   5.9423580
  60.3175316   4.4473305  15.8312731  60.3666382   4.0515013  16.7014103
  59.8200836   3.8176761  15.3094378  16.5041256  53.9659195   2.2832487
  17.2066593  53.5550385   2.7870910  15.7268152  53.8695183   2.8334558
   9.0481520  10.9488592  84.9438248   8.7170305  11.6904612  85.4504013
   8.7214298  11.0997143  84.0568542  77.0178070  62.4111786  36.6857986
  77.2179565  63.3440895  36.6093216  77.8584976  61.9739723  36.5504265
  25.9424934  43.5954056  80.4177551  26.2285900  43.3611069  81.3006439
  26.6929398  43.3896942  79.8603134  46.3491898  12.6054974   9.8774462
  47.1198120  12.8008013   9.3443146  46.1621284  13.4240856  10.3369617
  65.9485779  45.9881897  78.0565414  65.5462875  45.2957802  77.5321732
  66.2510376  45.5437851  78.8485260  -0.0425747  48.6546288  62.3406067
   0.5604181  49.3368607  62.0453262   0.1215823  47.9184265  61.7512932
   2.4350028  30.9912891  62.3047676   2.1931243  30.7044163  61.4241829
   3.3896875  30.9248219  62.3245392  59.4865456   1.8244749  24.6725636
  59.8022766   1.2156701  24.0048065  60.0309334   2.6040666  24.5625305
  73.7278824  16.3370152  41.9511986  73.3592224  16.2073898  42.8249969
  74.3715057  15.6349106  41.8562202  56.1859283  29.6441936  59.2524681
  55.2372627  29.7485542  59.1791458  56.4425926  30.2617207  59.9373169
  73.2411194  62.5246735  10.8296967  73.1248932  61.5985146  11.0417147
  74.1826248  62.6213341  10.6867085  49.4036865  48.0915031   8.2121258
  49.0253906  47.2776566   7.8792958  50.3453712  47.9227295   8.2433167
  49.4956818  58.6664124  60.7620277  49.3637505  59.1254196  61.5915680
  50.2140160  59.1371803  60.3394127  37.2912941  59.5554504  42.0074883
  37.3459587  59.0185394  42.7980385  38.1611366  59.9458046  41.9224548
  19.9745750  53.7403069  31.1128960  20.7712193  53.3431816  30.7609215
  19.4989910  54.0475922  30.3411274  68.1344452  52.4761848   0.4247512
  68.9264145  52.5340767   0.9592355  67.7605057  53.3568153   0.4545157
   8.2449350  62.1040649  23.7840405   9.0106316  62.5226097  24.1774368
   7.8588438  62.7828865  23.2305317  40.3684959  35.5196457  72.8946991
  40.5706520  34.7409134  73.4132919  40.2804832  35.1945229  71.9987183
  68.3300171  27.6753540  12.8041821  67.4453430  28.0271587  12.7050819
  68.3861389  27.4245529  13.7262344  43.6543465  62.4454117  52.9095726
  43.2510185  61.6334076  53.2165031  43.6304016  63.0269012  53.6695251
  80.7448349  69.1946869  39.6849136  80.2491150  68.7457962  39.0000877
  80.4159851  70.0934753  39.6685867  83.1411133  21.0602360  86.7545319
  82.8885498  20.1933804  87.0723419  83.0933609  21.6221771  87.5279465
  10.5478954  60.8011436  33.7560005  11.0047970  60.2333450  33.1354523
  10.1031713  60.1971397  34.3506660   0.4052300  25.1379585  27.5765743
   0.5486193  25.0571480  26.6336308   1.1191540  25.6986217  27.8802204
  83.2458344  53.7032890   0.7988100  84.2002411  53.6761055   0.8666202
  83.0711441  54.3848839   0.1498557  38.2178955  46.5072708  10.0559664
  38.9214401  46.1640854  10.6068583  38.5578842  46.4400253   9.1637125
  61.4091110  42.7091637  33.9368935  60.7872658  43.0521202  33.2950897
  60.9042664  42.0727158  34.4431534  30.3195381  42.9399338  71.9119263
  30.3532467  42.3684616  71.1447830  31.0843678  42.6901474  72.4304581
   0.7126070  23.2012863  23.8299160   1.0290471  22.8639030  22.9918995
   0.5722300  24.1352882  23.6744576   5.2349291  37.4771996  80.8739624
   5.2254543  38.3997993  81.1288147   4.6465960  37.4308395  80.1203384
  50.9532585  32.8255806   2.6936953  50.6854782  33.7316971   2.8469231
  51.0072021  32.7496033   1.7410413  82.0147018  38.9652977  33.8252068
  81.1410217  38.5832596  33.7417259  81.8688354  39.9099770  33.7748528
  52.7574005   1.8293209  36.7259712  51.8328209   1.6157844  36.8516006
  53.2170219   1.2929112  37.3719177  59.0353622  57.6688805  61.4930382
  59.7325287  58.2827301  61.7240715  58.5498543  58.1093254  60.7955246
  65.1766586  30.2449074   4.7306280  65.6465607  29.5658321   5.2146549
  65.6121674  30.2767391   3.8788352  12.5452538   5.6281972  40.7079239
  12.3320818   4.9290619  40.0898628  13.5012579   5.6746669  40.6965637
  79.5127411  58.0117874  59.2322388  79.9491806  57.2307129  59.5723343
  80.2027740  58.4912453  58.7737579  32.2388344  46.3797150  71.9580994
  32.8137131  47.1145172  72.1721420  32.6521149  45.6231880  72.3741455
   3.7805173  52.9127007  64.7347488   4.5822453  52.4100685  64.5904465
   4.0734072  53.8228340  64.7805862  41.2857971  49.3826447  78.3852081
  41.4429092  49.5973244  77.4657135  40.8830643  48.5145760  78.3630524
  85.6827927  25.0050735  12.3374414  86.4121170  25.0656986  11.7204828
  85.7286758  25.8165646  12.8430195  13.4385538  46.6014290  20.9367943
  12.6092892  46.7523346  21.3904247  13.4147930  45.6753006  20.6960545
  83.1249695  37.0943413  27.0840454  83.7926407  37.7785568  27.1320171
  82.3551559  37.4812317  27.5010929   3.2403162  21.7343655  63.0582008
   2.3664243  21.9651794  62.7431297   3.4514346  20.9191742  62.6030922
  15.7769413  69.0093231  86.4013214  14.8410492  69.0893478  86.2171097
  16.1829338  68.9102173  85.5401764  44.2357712  60.2241364  29.9742222
  44.5121956  60.4406395  30.8646984  44.9570694  60.5226479  29.4202805
  11.1498079  65.2920914  25.6926003  11.5672760  66.1301498  25.8916168
  11.8375254  64.6419144  25.8359394  71.5929794  35.7319984  66.6255112
  71.2811661  36.3980522  67.2381973  72.2924652  36.1652145  66.1363525
  53.3094292   8.1282272  44.5805359  53.7378769   7.4135871  45.0516548
  53.8348122   8.9009314  44.7882233   8.9085083  54.9633827  80.4906616
   9.1661091  54.4186478  81.2343903   8.3620520  54.3908386  79.9523239
  78.0860138  65.9623642  25.2409916  79.0032806  66.1866684  25.3976746
  78.0899658  65.0138168  25.1125927  47.1354866  52.3314934  41.7183304
  47.6912956  52.6615562  41.0123787  47.7501221  52.0597649  42.3999596
  59.7184181  30.6532555  80.3774261  59.4808502  31.5711651  80.5087128
  58.9121323  30.1692715  80.5560150  27.2496243   8.5042973  80.8748245
  27.4218712   9.4440212  80.8158112  26.7088833   8.3113508  80.1089249
  42.0574036  49.9603653  74.6410599  41.8653603  50.3101349  73.7709961
  41.2516556  49.5152206  74.9034576  78.4171753  54.1554184  84.7501755
  77.5555191  54.4374809  84.4432144  78.5511017  53.3023300  84.3372192
   9.7379942  53.7025223  26.3225956   9.4408531  53.4753685  27.2036972
   9.9502115  52.8617706  25.9172153  79.0998993  44.6217041  32.6908264
  78.2915726  44.9822922  33.0552635  79.0723572  44.8605652  31.7643166
  59.3656387  27.3404064  75.1127319  58.4908485  27.6129227  75.3896942
  59.4945374  27.7715340  74.2678909  57.4789886  26.9900589  31.3679657
  56.5862389  27.2083073  31.6355362  57.7737961  27.7537365  30.8718643
  50.9763718   4.4410834   8.2893610  50.4121094   5.1124101   7.9057450
  51.0944099   4.7180119   9.1979914  38.5918808  15.1449156  82.9370117
  38.2143898  14.8915644  83.7793503  39.4306297  15.5476332  83.1618423
  20.8972530  55.5546646  43.5262146  21.0795670  54.6381569  43.3188438
  21.2317905  56.0417404  42.7731667  61.7620926   5.5238528  31.2847977
  61.9485779   4.6295304  30.9990654  62.3865700   5.6843944  31.9922466
  39.5013885   4.4248667  62.4475098  40.4343224   4.2858338  62.6104126
  39.2501602   5.1116734  63.0650978  81.6528091  22.9051342  40.6933670
  82.0316696  23.7815189  40.7615433  82.3944397  22.3397141  40.4776802
  10.3348808  41.9527969   4.1965399  10.0278816  42.8532677   4.0910010
  10.7293348  41.9348755   5.0685015  80.5723495  56.9660988  87.3671494
  79.8217010  56.3821869  87.2585144  81.3194885  56.3778610  87.4766617
  45.0516129  41.9847488  46.2787247  45.5223236  41.3924484  45.6923447
  44.2548180  41.5081291  46.5115089   8.0973949   2.0477252  56.5823593
   8.3679962   1.9154801  55.6737785   8.3707952   1.2484144  57.0324554
  44.5369797  51.8524818  63.8409882  45.3969193  52.0500946  64.2120438
  44.1656876  51.1977310  64.4323196  32.3400154  49.5863152  12.0020933
  32.7952728  48.8744659  12.4518099  31.7845020  49.1465111  11.3585033
  83.5570374  15.6459599  87.9646530  84.0661850  16.1618233  88.5898590
  83.7701645  16.0247726  87.1118240  48.7800140  60.3911591  49.1733398
  49.2827644  60.6966209  48.4182434  49.4426231  60.1119308  49.8051720
  65.8557053  15.7076597   7.5114264  66.2226868  15.7070770   6.6273689
  64.9088440  15.6650953   7.3777323  63.9468765  69.5696030  63.8893471
  64.8257217  69.5319061  63.5119286  63.5317764  68.7529831  63.6117554
  63.0993729  25.4098320  67.0271683  63.7610245  24.7483921  66.8248215
  63.4009781  26.1969147  66.5735550  78.1150360  58.3571701   4.7369666
  78.3572311  58.4358635   5.6596699  77.3271027  57.8136940   4.7416706
  26.5817738  40.6283569   5.9399476  26.7846756  40.7492294   6.8675528
  26.7996712  41.4681969   5.5356956  68.6805191  20.6606770  77.6843719
  68.6882248  21.3961182  77.0717545  69.1229782  20.9944115  78.4648132
  52.4195671   0.1499126  64.9378357  52.2455330   1.0908558  64.9617081
  51.7674713  -0.1989297  64.3301315  14.4023600  65.3654175  43.8115273
  14.0607977  64.9881821  43.0008125  15.3155088  65.5728149  43.6130905
  39.2301216  12.9395685  38.6230545  38.8080673  12.1798401  39.0241966
  38.6965256  13.1304598  37.8516502  84.4572144  58.9597397  31.8326321
  84.5852509  58.6458778  30.9374619  85.0853043  58.4597168  32.3538933
  84.8520508  23.1560555  74.1247711  85.0141983  23.2986202  75.0573044
  84.4616013  22.2832451  74.0802460  16.4977932  30.1225090  76.2030792
  16.1926785  29.9215527  75.3183441  17.4228516  30.3425694  76.0932007
   1.6539719  66.2739029  71.0422974   1.3512412  65.4745865  70.6113815
   2.3074822  65.9728775  71.6735992  19.6804085   8.0921841  20.0508480
  20.1854382   8.5074797  20.7499218  18.7809505   8.0829992  20.3781452
  25.5100899  66.7725830  19.4350471  24.5756130  66.6719284  19.2537861
  25.9330997  66.1129456  18.8853436  54.3616829   9.1104403  65.1890335
  53.8207169   9.1818342  64.4025955  54.8277359   9.9452133  65.2357483
  46.8447609   6.8483019  12.0106621  46.2437057   7.3808537  12.5315771
  47.2257576   7.4620714  11.3826818  81.1421356  29.0665474  63.1786728
  81.3222046  28.1276283  63.1313896  80.2345047  29.1215897  63.4777069
  60.9925995  49.9195442  25.5848846  61.6414299  50.3987236  26.1002846
  60.3372307  50.5776253  25.3532600  68.4361191  63.8078079  12.6840134
  68.0362778  62.9751930  12.4327917  69.2056351  63.5591125  13.1960974
   9.8058720   4.2443848  79.2656555   9.4098978   3.4254301  79.5635681
   9.0811214   4.8694911  79.2511902  14.8923988   0.4430442  36.0727386
  15.3168249   1.0334790  36.6952171  14.0081453   0.3246902  36.4196091
  23.1338158  36.9684639  81.5936661  22.7233353  37.7883606  81.8684540
  23.8594398  37.2404442  81.0317688  49.5568581  52.8524399  25.3617039
  50.4721184  53.0203400  25.1373291  49.3316345  52.0610695  24.8725834
  49.4831696  11.2232389  44.4673691  50.0013008  12.0023746  44.2655754
  50.0144577  10.7394657  45.0997658  45.1869125  26.4669056  38.3732338
  44.6248322  27.0558815  37.8698349  44.5777473  25.8879623  38.8314667
  82.6567078  64.2671204  88.4969940  82.5389099  64.3453979  87.5503006
  83.0592194  63.4071350  88.6179733  35.0289841  46.0133667  31.3026791
  35.0482445  45.5627518  32.1469574  34.8594131  46.9291191  31.5237656
  45.0684128  71.5664368  81.8496628  45.1150055  70.9508972  82.5812149
  45.8288879  71.3535767  81.3087387  34.6353073  53.1874886  16.6242085
  34.4376450  52.7010307  15.8238831  33.9236870  53.8231583  16.7000465
  83.3167267  62.5892563  61.9686050  84.1915436  62.2012749  61.9886475
  83.1048813  62.7499847  62.8881264  10.3629847  41.7876358  60.4655190
  10.6839027  42.1234970  59.6285973   9.6833649  41.1575699  60.2260017
  60.9433517   8.1847782  66.0686874  61.3011284   8.7426701  65.3780518
  61.2302933   7.3017468  65.8359833  55.1411781  10.2141953  82.1243057
  54.9326248   9.8768988  81.2531204  55.6788063  10.9886827  81.9589005
  86.1330566   6.5322685  72.1825180  85.4872971   6.7733145  71.5183487
  86.9729691   6.7961974  71.8068466  56.4549751  48.2867355  52.3745995
  57.1167297  47.8439217  52.9058533  55.8211060  47.6018066  52.1617279
  59.6623077  11.6136723  86.9371262  59.8535309  11.2277603  86.0822906
  59.3961143  10.8720341  87.4805832  57.1325417  28.9218159  17.3583775
  56.6010132  28.9978542  16.5659599  56.8490982  28.0999756  17.7589607
  82.0791168  43.0488167   0.6776252  82.5769577  42.9320831   1.4867963
  82.6514130  43.5736084   0.1178972  68.8878479   6.0947495  25.5726089
  68.9233398   5.7390223  24.6846733  68.5941086   5.3612533  26.1129189
  56.8406334  38.6430931  31.9993858  57.6619530  39.0472794  31.7195663
  56.2165642  38.8657837  31.3086071  50.4992790  48.4064102  53.3048363
  49.9407501  47.8628311  52.7491417  49.9003334  49.0404053  53.6992340
  54.2914124  38.0538750   8.6305876  53.4622040  38.2120667   8.1793432
  54.7933807  37.5084114   8.0250053  42.7281799   2.2901378  41.8580742
  43.2855911   1.8872520  42.5238152  43.3370552   2.7601142  41.2883186
  83.7017593  49.7972107   2.7948549  83.8603897  49.3135529   3.6055007
  82.7875061  49.6118355   2.5803480  18.6020584   4.3574600  40.8118782
  18.5862904   5.1166906  40.2291679  19.4368382   3.9284961  40.6238174
  51.5844803  45.5134087  19.3738499  51.3103676  46.2876511  18.8822823
  52.2251511  45.0841293  18.8068466  73.7894211  64.4933548  87.7275085
  72.8336182  64.5297699  87.7641907  74.0329666  65.1966324  87.1255722
  72.4360733  36.8162003  47.6609612  72.2005463  36.6283226  48.5695076
  71.7294540  36.4278221  47.1451302  51.9289818  34.7151031  59.2746048
  51.6514244  34.3554192  58.4320946  52.8829384  34.7628784  59.2120514
  70.8283920  48.0880089  46.8151054  70.6948700  49.0176010  46.6300087
  70.2462540  47.6361351  46.2042465  73.6764450  28.1027660   7.1367030
  72.7894058  28.4622211   7.1502481  74.0170898  28.3381119   6.2736826
  57.3897858  21.7443962  27.4224586  56.5714073  21.3547974  27.7301979
  57.8202896  21.0427341  26.9340248  58.1790657  20.4702988   3.5312042
  58.6016846  20.9794159   2.8395214  58.3070030  20.9910297   4.3241129
   9.6368084  70.8018112   5.9946122   9.4412956  70.1631012   5.3090086
   9.6461926  71.6446991   5.5410886  76.9517517  51.9501114  82.2963028
  76.6204453  52.8211670  82.0778427  77.8855515  52.0829849  82.4593964
  44.3764038  52.6551094  70.4384995  44.6206779  51.9204140  71.0013351
  44.1919479  52.2548752  69.5887833  10.1939716   9.8417587   4.2202044
   9.7426777   9.2439308   4.8161645  10.1747990   9.3956804   3.3735180
  65.3842621  35.3344803  20.4015179  66.0659409  34.6650391  20.3432026
  64.9051285  35.2609520  19.5761375  28.3608875  11.2231417  81.3444977
  28.5364323  11.9825115  80.7888184  27.8591805  11.5752211  82.0797195
  63.0034027  29.6868305  12.6157255  63.5495567  29.2504482  11.9618750
  62.8702049  30.5681896  12.2668753  75.6443176  46.8914642  75.4837036
  74.7597885  47.0960579  75.7869949  75.6665726  45.9356422  75.4374847
  77.2727280  39.6740723  38.7332077  76.6567154  38.9525375  38.6061249
  77.2560196  39.8400688  39.6757545  71.0957260  53.9268990  61.3030891
  71.1784210  54.5022240  62.0636139  70.1520844  53.8113670  61.1916428
  55.1900864  30.2982292  52.7110558  55.8930550  30.3140030  53.3605270
  54.7817039  31.1612606  52.7791214  65.4209595  32.3674507  31.5244846
  66.3599777  32.4793663  31.6726665  65.3524475  32.1117821  30.6046085
  80.8777924  63.9611740  45.8079529  81.3938522  63.1636810  45.6899986
  80.2998734  63.7655907  46.5455132  17.6264210   6.5760660   4.6466269
  18.1235046   5.9770288   5.2036676  18.2047920   6.7476625   3.9034748
  22.6163559  39.6933823  81.1021271  22.1793518  40.5137749  81.3306351
  23.5345478  39.9362106  80.9830017  12.2616272  55.4871445  75.1970596
  12.4005184  56.4303589  75.2824402  11.9331551  55.2148895  76.0539246
  46.9178696  21.8344746  70.7829285  47.1389313  21.1217365  70.1834564
  46.9304886  22.6199913  70.2360840   8.6948109  47.7624626  53.3302879
   8.7074022  47.1216812  52.6193237   9.3831615  47.4706192  53.9279785
  75.5043716  24.4157562   9.4927788  75.0508499  23.6012249   9.7097731
  76.0068283  24.2076130   8.7050943  13.8376026  66.0482101  79.0792160
  13.2363596  66.3734055  79.7492828  13.3259506  65.4031448  78.5910263
  15.6035509  23.7645378  66.7398376  15.7314701  22.8632793  67.0358124
  14.9098206  23.7047577  66.0830307  36.6584358  34.9569473  83.2812271
  37.3514442  35.2678757  82.6987381  37.0615501  34.9474602  84.1493530
  51.3684692  15.1671906  58.0024338  50.7107620  15.6583815  58.4947624
  51.8222160  15.8299227  57.4817276  49.1988144  47.5943871  62.4794350
  49.7143211  48.1427193  61.8879852  49.7293015  46.8066750  62.5991440
  32.4990654  55.4123192  26.5568237  31.6963234  55.7698402  26.9363174
  32.2726097  55.2308044  25.6446819  65.6634903  28.8503742  12.7594442
  64.9569016  28.7762508  13.4009037  65.3291245  28.4030743  11.9820404
   5.8329253  40.1463089  32.0261269   5.3114581  40.4277153  32.7778702
   6.1750221  39.2889557  32.2793999  64.1980591  46.1830711  58.1648216
  63.7244301  46.5405006  58.9159164  64.8709564  46.8362732  57.9730568
  61.2505569  61.8897285  18.1380310  61.6851540  61.8892822  18.9908829
  61.9598999  62.0157661  17.5078125  31.6903687  64.9987183  12.6447868
  31.4214134  65.7898254  12.1778297  31.8660488  65.2956619  13.5376425
  74.5728836  28.5393791  21.9263058  75.5255661  28.5490608  22.0186882
  74.3177872  29.4604683  21.9787807  55.7153778  15.6346931  57.9415016
  55.8985100  14.7911406  58.3551598  56.3192062  15.6738596  57.1998215
  72.2356415   7.6786833   2.5743198  72.4381638   8.3393250   1.9119232
  73.0818481   7.4679594   2.9689851  14.6495838  13.7208900  22.5755291
  14.1434965  14.3881149  22.1119366  15.1264420  13.2595940  21.8855705
  52.5440788  50.4524918  54.7800331  51.8292809  50.2765923  54.1681862
  53.2962837  49.9916916  54.4084320   2.2264662   6.7595344  15.2493420
   1.8714728   6.2018394  15.9415770   3.0991724   7.0006518  15.5599508
  41.0251923  15.1160908  87.2176895  40.5842323  15.3203115  88.0423584
  41.8661194  14.7428236  87.4817734  83.9881439  43.4089165  53.4648933
  84.6557770  42.9713211  52.9366798  84.4823837  43.9946671  54.0383492
  29.0881462  30.4988270  86.9865494  29.0541172  31.0998611  86.2423477
  29.6461124  30.9411144  87.6263046   9.3307371  65.6640930  85.1301498
   8.5391455  66.0424271  84.7474289   9.2168188  64.7189331  85.0304718
  53.2231255   6.7818704  86.5195847  53.6655464   5.9339776  86.5592422
  52.4008064   6.6451874  86.9900513  71.5682983  23.4564266  39.7333832
  71.7036972  22.5170918  39.8580742  72.2612457  23.7200069  39.1279182
  40.6297226  62.0428543  32.3418961  40.7897301  62.1396179  31.4031372
  39.7081490  62.2764397  32.4531136  71.9406815  33.8539238  30.1401978
  71.6500168  32.9885178  29.8524208  71.7325668  34.4326515  29.4067154
  48.9536552  60.2457581  29.0138035  49.4704399  59.4495354  29.1370525
  48.0456085  59.9596901  29.1130505  26.0114136   2.1487455  25.2172604
  26.9472961   2.3153389  25.3295269  25.7360687   1.7599291  26.0474644
  84.4516983  14.9302692  69.8138504  84.6561890  14.0005198  69.7139359
  84.1689758  15.2082911  68.9426422  62.3312988  37.7941666  39.0133553
  62.4814224  37.0027962  38.4962196  61.4406624  38.0624847  38.7875214
  62.1071892   2.5375288   5.3972917  61.9725266   1.7310352   5.8949518
  61.2432365   2.7471087   5.0424743  15.7813311  46.3837509  82.5664215
  15.7581539  47.3141747  82.7900467  15.5320568  45.9367256  83.3752899
  71.3132553  23.2619495  77.3985138  71.6085510  23.1800632  78.3053360
  71.4655838  24.1811237  77.1790924  46.3138199  47.2798500  68.9137421
  46.8481178  47.8046761  69.5098267  46.7004128  47.4293861  68.0509415
  51.3608513  54.0834198  32.0912819  50.4814568  53.7086182  32.0421410
  51.5122375  54.2172432  33.0269127   7.7803550  68.7019653   4.8008370
   7.3822484  69.5546188   4.9760995   8.1438351  68.7840271   3.9191453
  86.2133865  28.8918438  70.9292145  86.9035339  28.7028999  71.5650101
  86.0019760  29.8143806  71.0722656  80.4563675  63.7529449  36.0083160
  81.1263046  64.3904572  36.2552910  79.6562424  64.0726242  36.4252586
  32.1977081   6.1157546  79.0388641  31.3531017   6.3435411  79.4274292
  32.6147499   6.9587975  78.8611374  64.3066406   5.2860508  11.5685997
  65.1955032   5.4095230  11.9016256  63.8856583   4.7184715  12.2142458
   8.6619034  16.5549946   5.1026154   9.5127916  16.8447323   5.4316635
   8.5719719  16.9904766   4.2549720  12.1187286  67.8719101   9.8405008
  12.3966455  68.7400284  10.1326895  11.2425213  67.7638397  10.2103825
  55.9107132  66.2232590  38.2839737  55.0927429  65.7469177  38.4262810
  55.9649048  66.3277054  37.3340340  64.9818573  13.2957544  38.1090698
  64.8794556  13.5360680  37.1882019  65.1132889  12.3477106  38.0960083
  60.4854774  55.4403000  15.5232172  59.6303825  55.1470490  15.2084951
  60.8827400  54.6564522  15.9026871  49.2249680  67.3552628  72.7771835
  50.0598717  67.8056412  72.6494141  48.8097000  67.3714142  71.9149017
  40.5935059  38.0410881  81.4401245  41.2155800  38.7666130  81.3865738
  40.8723450  37.4353294  80.7534409  61.0928497  63.3132553   7.9903035
  61.9837685  63.6062584   7.7988877  61.0899734  62.3855400   7.7545819
  46.0388718  16.6510372  36.0592422  46.5200386  17.4672413  36.1953278
  45.3715515  16.8718758  35.4095154  72.1479416  27.4537163  56.5488396
  71.6063232  27.1770802  57.2879982  73.0376740  27.2021408  56.7964668
  14.7444601  44.5854263  84.4184189  14.6216917  43.7572365  83.9544525
  14.8016272  44.3369141  85.3410263   6.9185157  10.4623976  12.9672489
   6.9447489   9.8776855  12.2098475   7.6254768  11.0885296  12.8110561
  78.4218979  63.5443039  20.6579189  79.2914810  63.2580643  20.9374218
  78.0357513  62.7708435  20.2469654  19.0341892  65.4242859   9.3445702
  19.0497150  65.8383408  10.2074423  18.1486111  65.0698318   9.2648973
  51.8783073  12.4277143  14.0071907  52.3449593  13.2546730  14.1280451
  51.2704124  12.3856335  14.7453794   3.8253386  62.1033859  71.8690872
   2.9380486  61.8441544  72.1175766   4.2926493  62.1851883  72.7004471
  77.5171585  51.8664894  52.1594658  77.8698425  50.9869194  52.0245361
  78.0176926  52.2146416  52.8973618  71.7826767  27.7795792  70.6800461
  70.9593964  27.2966862  70.7526093  71.5282745  28.6993141  70.7548904
   1.1715310  46.6222687  52.3722687   1.2815729  45.6774178  52.2655869
   1.8509396  46.8733826  52.9980316  21.4227695  31.9237652  17.8720722
  21.8096962  32.7774277  18.0664387  22.1518326  31.4006157  17.5388832
  66.6596298  42.1393929  68.6692505  67.0309830  42.8869858  69.1376877
  65.7181549  42.3112755  68.6518784  60.3608551  12.4202232  47.1211510
  60.9234085  13.0126829  46.6223946  60.6664085  12.5035534  48.0244370
   3.6552620  66.7511749   6.3629746   4.4039392  66.1556015   6.3946056
   3.0419238  66.3993835   7.0081773  31.4281540  67.2811966  53.5310249
  31.2281704  66.3671494  53.7329102  31.4493694  67.3161469  52.5746994
  85.0428391  44.7736588   8.1425886  84.8656693  43.9614868   8.6171656
  84.1815338  45.0747032   7.8531661   5.2493577  36.5833092  12.2302437
   5.4544711  36.7789726  13.1445065   4.2928114  36.5751801  12.1958227
  41.4483986  52.9838638  46.2256241  41.9277191  52.4445648  46.8546257
  41.5869598  53.8821716  46.5257530  23.7810955  68.0031815  74.4183350
  22.9405460  67.5600357  74.3028946  24.0718441  67.7414627  75.2919540
  60.7258148  40.8441086  12.5771475  60.7910576  39.9450684  12.8991699
  60.7306976  41.3828545  13.3683243  36.7055397  50.2434502  51.7174225
  37.0514183  50.0703621  52.5930023  36.2414131  49.4406090  51.4802208
  30.7344494  61.9452400   4.0387850  31.5457993  61.4411163   3.9771194
  30.0917225  61.4245071   3.5571516  54.8598404   4.4186854  87.2117844
  55.3350563   3.6360376  87.4908218  55.5377998   5.0864840  87.1086121
  78.9045181  26.4791660   6.0667677  79.4873352  26.8791981   5.4213748
  78.7921448  25.5786476   5.7623515  82.7362976  58.2655830  56.4750481
  83.6372604  58.0095367  56.6723862  82.2012253  57.5635567  56.8453064
  52.7518959  27.2444382  58.1113586  52.6033058  27.0587578  59.0385437
  52.7265358  28.1994152  58.0512772  74.5970993  63.8504295  74.1486359
  74.6393738  64.5045547  73.4510956  74.4882736  64.3619232  74.9503632
  45.6905174  14.3000069  37.2283020  45.7690659  15.0931778  36.6982651
  46.5944901  14.0388899  37.4040565  82.0116959  63.5956650  70.9999161
  82.7177429  63.2364120  70.4626389  82.4605484  64.0867844  71.6880798
  18.6424408   1.6623708  36.0251808  19.0360355   1.7636380  35.1585426
  18.2904625   2.5283723  36.2310562  49.6713142  39.0426903  16.9765320
  49.5841713  39.0700035  17.9293671  48.7736282  39.1129951  16.6518059
  73.0390167  20.3867016   2.7878947  72.4862671  21.1681709   2.7877603
  73.5372543  20.4458866   3.6030564   2.6886873  50.1141815  18.8613663
   2.3401821  49.8196449  18.0199261   1.9127628  50.2943115  19.3921452
  38.7648392  45.8357620  72.2930222  37.9836807  46.0297012  71.7749329
  38.5337448  45.0511856  72.7902756  72.5191269  53.5902863  26.9990501
  72.5772705  54.2129784  26.2744083  71.9719849  52.8809013  26.6619434
  60.9909973  39.6003532  52.9465523  61.2969551  38.6971703  52.8635788
  60.6413422  39.8151855  52.0817871  85.3345261  65.0354996  67.2628784
  85.7776794  65.8199081  67.5862122  85.2197647  65.1942673  66.3259354
  53.6013565  55.5268974  56.6457748  52.7908707  55.8371773  57.0495949
  53.3566666  54.7067795  56.2170982  49.2388649  64.5844574  68.5100327
  48.4858665  64.4493790  67.9347229  49.6915207  63.7410583  68.5140839
  66.4410019  61.5543785  66.5437927  66.8236313  62.3983002  66.7838287
  65.7444992  61.7744637  65.9251785   1.4584246  10.3735485  41.1778641
   0.5194011  10.2264557  41.2911377   1.5573404  10.5860205  40.2498016
  75.7629776  51.8955688  29.2867794  76.4611130  51.6998596  29.9117031
  76.0563049  51.4970398  28.4674129  12.7920818   2.1519170  15.5728388
  12.5127773   2.7056327  14.8437157  13.5281391   2.6231661  15.9631901
  53.5776482  13.1255178   3.4863122  54.2984924  13.2642822   4.1006126
  53.2446327  12.2541046   3.7007220  38.8221512  30.7814827  83.3576050
  38.0647430  30.3107738  83.7054596  38.6141930  31.7054977  83.4960938
  56.8890533  39.7563667  79.2387695  56.2947044  39.0804138  79.5644455
  56.9702568  40.3742027  79.9653473  12.5645313  22.8395157  80.1482849
  12.0379677  22.1690083  79.7131042  12.7453365  22.4766655  81.0153961
  80.5989532  21.6827316  14.3513546  81.2546692  21.2455750  14.8946486
  80.8741226  21.5027008  13.4524088   2.7763577  19.1581783  77.3354187
   2.9476683  19.9526386  77.8411026   2.2597411  18.6069012  77.9231491
  22.8122406  23.2222366   3.2236085  22.5726776  22.7484016   4.0200524
  22.9535255  22.5368748   2.5705020  63.9362144  28.2432442  15.6480188
  64.8903809  28.1685867  15.6630640  63.6347733  27.3956261  15.3210487
  11.5313663  66.9060364  89.0410538  11.4039774  65.9582977  89.0834427
  10.8882351  67.2056427  88.3985214  67.9181519  57.7103958  22.1335220
  67.0578842  57.6153870  22.5423679  68.4420929  58.1780853  22.7838936
  60.0733337  48.4991608  27.9092712  60.0498505  48.7742691  26.9927578
  59.2933731  48.8949242  28.2981968  55.9083328  53.7973099  66.6146240
  55.2473412  54.4371109  66.3500900  56.0526924  53.2647324  65.8324814
  62.0638504  40.9000282  28.4891205  62.9034119  40.5649605  28.1743202
  61.8010139  41.5437431  27.8312607  55.9795494  65.9030151  78.4498062
  56.9088974  65.9134216  78.2208099  55.7478065  66.8260498  78.5524368
  44.7954903  51.1519318  54.4214935  45.1386871  50.6654167  53.6719933
  44.4773750  50.4762917  55.0202827  48.4822273  17.3312893  33.8125076
  47.6169434  17.4568958  34.2020378  48.9989510  16.9189358  34.5047417
  31.1605034  62.4867210  65.9121933  31.5900612  63.3204842  66.1033783
  30.5259094  62.3763313  66.6202393  71.2288666  45.7178230   4.6399460
  70.6636505  45.9245110   5.3842835  70.6997986  45.9305115   3.8711271
  69.8543091  31.7923260   6.4219756  69.7212067  32.7172241   6.6295209
  70.7793274  31.6350842   6.6113119  82.9851837  33.9514275  85.3882141
  83.1981964  34.6734734  85.9794006  83.0515747  33.1676865  85.9337158
  86.5068130  47.3660469  18.1777992  87.3699951  47.2271996  18.5674953
  86.1215057  46.4910622  18.1311893  51.7007408  69.9317703  13.8942671
  52.3855591  70.5853043  13.7523069  50.9142456  70.4452057  14.0787907
  57.0303802  59.1577377  79.2489853  56.2634506  59.3578453  78.7123184
  57.0521927  58.2016029  79.2884903  71.9258347  29.4236641  41.9230080
  72.5490570  29.5108738  42.6442680  71.9172821  28.4870415  41.7257881
  71.2322769  19.6202869  57.3100510  70.9962997  19.2836494  58.1744690
  70.5097351  19.3512363  56.7428017  34.5148926  45.1831245  61.4916382
  33.6312408  45.2189102  61.8578491  35.0843124  45.4491730  62.2135849
  54.5790672  46.5267105  51.7449150  54.7364769  45.6012878  51.9321213
  54.2134209  46.5333023  50.8603287   3.3148994  25.0466862  11.2027969
   3.8280680  25.7879429  11.5243988   2.9254019  24.6656151  11.9897594
  13.8774147   9.2788754  61.8277702  14.0645714   8.6787844  62.5496407
  12.9338684   9.4308681  61.8811607   1.6490182  20.5810337  66.9953918
   0.9653571  19.9435310  67.2013779   1.7718508  21.0715370  67.8081360
  50.6745186  12.7013235  60.2093620  50.3315773  13.5778008  60.3837433
  50.4632072  12.5400238  59.2898140  53.8683319  34.7534714  13.3901863
  54.0789795  35.2135162  12.5776491  54.5626068  34.1010780  13.4829512
  50.7771378  62.7911644   8.1008196  51.4951668  62.9375381   7.4849925
  50.8926773  61.8869667   8.3928967  82.0239410  37.3911781  86.0339737
  82.6311493  37.1494331  86.7333221  82.3722916  38.2127457  85.6876907
  13.2404490  59.0498505  51.9205513  14.0120821  58.8916283  51.3766975
  12.5820465  59.3832169  51.3109589   3.8147302   4.7381368  77.6899719
   2.9218335   4.5904541  77.3782730   4.2483087   5.1930137  76.9679413
  57.6961746  65.6044388  28.0058289  58.2944412  64.9008636  27.7542534
  57.3181992  65.3123016  28.8352985  48.3478699  61.6274643  82.5742264
  48.9446144  62.3752480  82.6050034  47.6383018  61.9108543  81.9976578
   4.7374072  43.1169357  17.2193851   5.1046638  42.2540169  17.4110374
   4.7305918  43.1674232  16.2635422  64.3397598  29.8442688  85.7924652
  64.2718201  29.8305988  84.8377762  64.3644485  30.7743053  86.0175323
  45.9770126  26.4179554   4.9781570  45.7151489  26.0181522   5.8075047
  45.2858276  26.1702156   4.3640561  28.7099609  65.1138458  77.8449860
  29.3489704  64.7634125  77.2244263  29.2251186  65.3320999  78.6216507
  24.8611603  51.0989685  46.4973526  25.5814190  50.5658684  46.8338966
  24.3634472  51.3481750  47.2760735  60.5960121   3.2173808  59.1306305
  60.6545219   2.3777359  59.5864868  60.6467514   2.9899209  58.2022324
   0.4503089  55.8848000  62.7849846   0.4002728  56.6766396  63.3204460
  -0.0119033  56.1117134  61.9780769   5.6243520  41.7653809  54.5983009
   5.6614304  42.4136963  55.3015404   5.8920255  42.2460747  53.8150291
  11.0632801  26.2817421  82.3041000  11.1069794  27.2210712  82.1252670
  10.5798292  25.9188652  81.5619202  84.3934097  66.3970108  12.5618896
  84.4037399  66.8058701  11.6964645  84.9646530  66.9500351  13.0948839
  73.8980179  50.1141052  83.0978699  74.6305237  50.0071716  83.7046967
  73.8614883  51.0557785  82.9300919   7.9530692   5.0977874  43.4872665
   8.7663765   4.6007276  43.5749893   8.2281981   6.0141630  43.5154114
  82.8216705  71.5041885  23.2626400  82.2978592  70.7047272  23.2105923
  82.1777573  72.2123947  23.2696419  85.3806076  35.7836266  85.8913574
  84.9757690  36.4448357  86.4527283  86.1281509  35.4650803  86.3972626
  68.2491913  23.1505089  76.2599182  68.4454651  23.9433193  76.7590790
  67.3049850  23.1907730  76.1079483  39.8968353  21.2918282  88.2573547
  40.3506317  21.0768452  89.0722733  39.0588913  21.6586056  88.5394058
  82.8784332  65.0938721  35.2519608  82.8370285  65.8228149  34.6329613
  83.5894852  64.5424805  34.9254494  29.8359680  29.6773643  35.3798752
  29.1603756  30.2111359  34.9616699  29.5545254  28.7747250  35.2306595
  59.6731606   8.4124918  20.1823673  59.9839935   8.9859266  20.8829308
  58.7264595   8.3637390  20.3150654  35.9647789  31.8067875  76.6134949
  36.2582054  30.8988209  76.5377884  35.4865990  31.9724960  75.8010178
  48.2946510  26.5525398   0.0895689  49.1522369  26.6985664   0.4888913
  47.7992630  26.0740662   0.7543129  44.7574806  14.9198122   5.0705051
  44.3805161  14.4946175   5.8407898  45.4804726  14.3485403   4.8113537
  70.9807663  22.7917690  48.9900093  71.3486862  22.4572468  48.1721077
  70.0444107  22.6036758  48.9260368  76.8685684  67.9387360  70.1118546
  76.6036148  68.8546600  70.0274887  77.6247253  67.8536758  69.5311432
  15.2985020  60.8512115   3.0060575  15.0206242  60.9587784   3.9156978
  15.1789141  59.9183922   2.8277991  11.4554014  25.4510460   6.7345529
  11.8692064  24.8479233   7.3519998  12.1467705  26.0727844   6.5072150
   4.5658379  68.6806793  55.0734406   5.0187392  68.9248123  54.2662811
   3.6427774  68.6319656  54.8248062  81.6449280  59.3019409  47.3726044
  81.0474091  59.0649681  48.0818634  82.0662994  58.4777336  47.1289749
  73.3001709  51.5212288  78.9169312  73.0315781  51.5119629  77.9982376
  74.2327271  51.7355385  78.8916779  65.7973328   6.5898533  75.3233109
  66.2020340   6.5017242  76.1862564  65.0221329   6.0298109  75.3639984
  17.2637463  67.4306793   2.3966756  18.1171761  67.8372955   2.5468521
  17.0383606  67.6717529   1.4981682  43.7995033  57.0432816  72.3907547
  43.6480713  56.3887863  71.7088928  44.6946335  56.8780098  72.6868286
   5.4167824   2.5740347  28.1849308   6.1829004   3.1288192  28.3315907
   5.5580168   1.8158721  28.7519169  79.9070663  55.0513382  71.9100800
  80.6232910  54.4164619  71.8964539  80.1753311  55.7011490  72.5597000
  18.8554764  59.3198090  11.6607132  19.4029427  58.5660934  11.4406538
  18.3542652  59.4926109  10.8637466  76.5209961  22.2033062  60.7554970
  77.2855606  22.2912273  61.3246574  76.1624756  21.3414612  60.9674377
  28.5768299  71.4823608   1.3815439  27.7299976  71.3694763   1.8132441
  28.3643742  71.8825150   0.5383528   3.8956051  68.7564621  12.1573305
   4.1145635  68.2998047  12.9695816   3.2671721  69.4281616  12.4221249
  41.8552589  47.6839066  64.0446396  42.5918617  47.0859375  64.1714325
  41.4891434  47.4362869  63.1955986  39.1279602  35.3140068  14.1667147
  39.5428200  34.5111046  14.4821043  38.4167099  35.0104599  13.6026134
  55.3409882  11.8715601  47.4595757  55.7042122  11.4627857  48.2452011
  55.4999504  12.8075876  47.5812950  44.0465393  46.4451370  51.7666550
  44.9352951  46.3903198  51.4154587  43.5048561  46.6773338  51.0124016
  61.7218399  42.9512215  56.2233582  61.0380325  42.7460861  55.5857353
  61.8404503  42.1396408  56.7168121  37.3085670  22.3422832  88.3825150
  37.0343170  21.8230247  87.6266098  36.7170105  22.0731888  89.0852814
  65.4230957  15.5117779  41.1114311  65.8879929  15.0648880  40.4040489
  64.4967728  15.3960037  40.8998795  84.6977844  39.9100761  84.6576538
  84.9571838  40.8311691  84.6806870  83.8814697  39.9035645  84.1578293
  36.6280785  67.8066711  31.6779156  36.3273506  67.9704971  30.7840729
  37.0932503  66.9717865  31.6248837  24.0995903  21.0863819  47.9275894
  24.3122177  20.1643791  48.0722656  23.3659763  21.2584782  48.5178642
  59.5919571  71.6935349  81.7418823  58.9204102  71.4313736  81.1121750
  59.1472206  71.6719971  82.5892181  58.5549469  30.9896507  18.3695965
  59.4102898  30.6356525  18.1260605  57.9251862  30.3773212  17.9892197
  69.7245178  13.5385866   3.8531861  70.2317505  13.1967678   3.1169097
  69.2557297  14.2910576   3.4922705  41.2997780  48.6973572  31.4728928
  42.1511993  49.0732956  31.2493191  40.8341446  49.4061050  31.9168434
  39.6643181  56.6323395  64.5448685  39.5992050  56.5325241  63.5951195
  39.5854340  55.7412148  64.8853226  73.1385498  26.7685471  64.9843216
  72.2768021  27.1340008  65.1844940  73.7488403  27.4852543  65.1578293
   5.4820271  57.6471519  83.7161865   5.7404723  58.4964561  84.0741348
   5.0930309  57.1831360  84.4575424  24.3324242  62.6897202  39.1848450
  24.2033806  63.5561829  38.7990723  24.4192619  62.1034164  38.4332199
  48.9479828  47.6534233  83.1087723  48.6432076  47.6489220  82.2014008
  49.8985634  47.5626068  83.0426025  60.3633156  29.6335869  24.6599026
  60.3801346  30.5081253  24.2711411  59.8873329  29.0983295  24.0249443
  73.8213425  66.1630936   9.9208755  73.2908859  65.5289917   9.4384136
  74.6789932  66.1295776   9.4971504  75.9972076  58.0821991  39.0769119
  75.8939743  59.0174980  38.9014282  76.8838806  57.8790436  38.7789536
  61.3917160  35.7861366  76.8523407  61.9117317  35.8107491  76.0490875
  61.6333618  36.5863457  77.3187103  27.5000534   8.1060953  77.9985504
  27.0375290   8.9197845  77.7980194  27.1851101   7.4837599  77.3430023
  37.5178375   0.4259237  48.8709946  37.8302727   0.7126903  48.0128670
  38.0407104  -0.3510418  49.0688858  22.5394135  46.2171097  23.9939060
  22.6144733  45.7538719  24.8281765  23.2913685  46.8092308  23.9802322
  41.7752609  42.2128181  60.0048943  41.6335564  42.7896957  60.7554703
  41.0182686  42.3653717  59.4392815   5.0043807  65.8237762  77.9032288
   4.5850549  65.2165451  77.2935791   4.4351206  66.5932999  77.9043579
  42.9380150  60.4028854  41.1571312  43.6925507  60.5924301  40.5994720
  42.4098434  61.2005157  41.1247139  57.1684723  65.3895187  56.7188950
  57.6066818  65.4832382  55.8730698  57.8814201  65.2670441  57.3457413
  75.2829056  66.4844055  54.3893089  75.4758148  65.5626450  54.5606880
  75.2194824  66.5426025  53.4359894  86.0739136  19.2282257  86.9640656
  86.3196411  19.4817657  86.0743637  86.6563873  18.4984207  87.1746521
  80.9763718  45.5775414  19.2481136  81.3764343  45.6705170  20.1127148
  81.3511353  44.7700348  18.8963757  24.9583988   6.9549356  70.0511856
  24.2022133   6.4303412  70.3142700  25.4335880   7.1158204  70.8663788
  51.2601738  30.2644768  72.3752441  52.1264915  30.6436901  72.5232925
  50.8386879  30.2873859  73.2343445  82.0259094  27.5959320  28.2342491
  82.3595657  26.8374290  27.7551117  81.1941223  27.8017750  27.8076363
  31.5678158   8.7344103  56.8528900  31.3401947   9.0289612  57.7347412
  30.7700195   8.8700857  56.3416710  14.9524183  18.4265881  65.0257492
  15.9077063  18.4308224  64.9654312  14.7493925  17.6567402  65.5571136
  37.2535629  38.5536385  65.0383148  36.3641777  38.5201035  65.3905945
  37.1336937  38.6118774  64.0904312  35.1904907  68.7708054  49.7650833
  35.3486900  68.9717560  48.8426819  35.8622780  69.2637100  50.2362289
  24.1034660  70.6838531  29.2716446  23.2393799  70.2892838  29.3895512
  24.5429192  70.5536270  30.1119728  64.8069839  49.7060547  17.5795059
  64.8227081  48.8339348  17.1853104  63.9816780  50.0886726  17.2816677
  55.8524284  45.8733063  74.5665054  54.8981476  45.8207169  74.5134354
  56.0188751  46.5358810  75.2369614  54.2401733  57.0972748  61.0672646
  54.5214806  56.4473572  60.4232903  55.0154152  57.6388474  61.2153549
  10.4369621  49.5462723  32.2020912  10.0569067  49.4648857  31.3273544
  11.2559748  49.0531616  32.1542168  30.3755589  64.0182724  60.5114326
  30.1222496  63.8564758  59.6026497  30.8970680  64.8201294  60.4755859
   3.4759490  37.5297775  38.6799355   3.9245543  38.0241280  37.9939346
   4.0384040  37.6226387  39.4488678  14.5332851  13.5855532  87.1095734
  14.2739019  13.0628538  86.3507996  14.2928782  14.4822044  86.8762283
  33.7344360   3.3593307  38.6223030  33.4991798   2.9495132  39.4547310
  34.2781982   4.1074929  38.8689003  15.4455452   8.7951717  76.9065552
  15.5625620   7.9538670  76.4652557  15.4193258   8.5755310  77.8378448
  80.9693527  33.5480309  11.3071995  81.5574722  33.0708694  10.7218246
  81.5524902  33.9913673  11.9233408  61.0537910   0.2309009   9.4874783
  60.2898788   0.3494352   8.9230127  61.7989655   0.4656960   8.9344683
  33.9586678  48.4517288  72.6057892  34.1458740  48.4938240  73.5435638
  34.7816505  48.1650238  72.2098923  79.1467743  29.7459831  52.0485115
  79.5785980  30.5682850  51.8170395  78.4310226  30.0062656  52.6283226
  71.6006317  47.0552025  85.7968750  72.1428528  46.3911209  85.3711700
  71.6197205  46.8211555  86.7248230  37.9426994   1.0355936  52.1172485
  37.9839211   1.4605728  52.9739418  37.9323273   1.7594680  51.4910431
  71.8302155  13.1212320  26.0007725  72.2461777  12.4832973  26.5806389
  71.5470428  13.8257523  26.5836067  67.2655563  13.0545540  74.1552124
  67.8927307  12.9128160  73.4461288  67.7987061  13.0541487  74.9501801
  22.5349274  33.8285980  68.8746643  22.9390774  33.1491508  69.4143448
  21.6490707  33.5066147  68.7078781   0.9007150  63.3524742  18.9722996
   1.6464332  62.8000908  19.2068462   1.1829215  63.8129272  18.1820011
  24.3661194  55.4057045  25.0010376  23.9066181  56.2117500  25.2363758
  25.2425251  55.6950111  24.7471695  12.2289343  12.8700304  20.1104069
  12.8391047  13.5269079  20.4457207  11.7000008  13.3410320  19.4664974
  42.7524529   6.3564835  67.9398346  42.5998154   5.4120355  67.9089890
  41.9251633   6.7423387  67.6518402  41.0556450  40.3674431  17.6467438
  41.1250420  40.2151566  18.5892010  40.4534836  41.1072617  17.5673695
  60.0152435  43.4608688  37.8340073  60.4478607  42.6920547  38.2054939
  60.5592766  43.7031021  37.0846214  51.1866608  52.3499985  51.5065231
  51.1124573  52.3298378  50.5524139  51.5527534  51.4959641  51.7363815
  53.4717903  29.9206352  19.8563614  53.3183022  30.8521538  20.0143108
  52.6092758  29.5700989  19.6340466  68.7885208  19.5591202  68.8131561
  67.9187622  19.4939804  68.4188156  69.0368805  20.4759941  68.6952896
  30.7515182  62.3921242  55.5744057  30.1127033  62.1805916  56.2551384
  30.8958988  61.5643806  55.1158981  62.0475082  37.1124268  52.2296791
  62.4974976  37.1406708  51.3853188  62.3535690  36.3021965  52.6372108
  47.4262886  26.6381893  17.1776810  47.9527779  27.3077564  17.6144009
  47.2248650  27.0133266  16.3203983  65.0961838  47.4832535  75.4595032
  65.4752808  47.1158295  76.2579498  65.5142670  46.9959221  74.7496109
  22.4093838  53.9949532  69.7070465  22.3216743  53.0698051  69.9364777
  23.3541107  54.1468201  69.6813278  32.5289383  41.9625015  73.3958435
  33.2717247  41.3601608  73.3548431  31.9200974  41.5505829  74.0089264
  27.5706787  67.5562210  77.1390686  28.0523167  68.0189362  77.8247452
  28.2223873  67.3926010  76.4573517  18.9715137  59.5844917  29.2028828
  19.2081013  59.1486206  30.0215855  19.6026440  59.2531242  28.5640526
   7.8836884   6.8304944  88.0770340   8.0403004   7.2231674  87.2182465
   8.7343683   6.8642654  88.5145645   4.6587200  69.9005051  77.1075897
   5.3991055  69.8934250  76.5009537   4.2518678  70.7573318  76.9789658
  54.5981102   6.0964823  45.8279343  54.3132172   5.2173767  45.5784531
  54.7105675   6.0513663  46.7774353  28.0956764   0.2601327  73.6797943
  28.3849449   0.8266025  74.3951035  28.2731133  -0.6276484  73.9905930
  15.9866295   3.2127607  88.7682419  15.3581152   2.8756208  89.4066315
  16.1110935   2.4918683  88.1509476  80.1398544  13.3449965   8.8701429
  80.2285919  13.5364189   9.8037996  80.7009506  12.5827141   8.7275515
  58.4475403  54.7404480  56.1425934  57.6683006  54.3992500  55.7037277
  58.1629753  55.5705795  56.5248718  35.1484184  51.2337532  76.7301483
  34.3021126  51.3654633  76.3027725  35.2368469  51.9810104  77.3217773
  26.3392429  50.4826775  20.8718147  25.6887684  50.1230202  21.4749432
  26.9043407  51.0234299  21.4236145  24.0066414   4.0917263  58.7974663
  23.1881580   4.5814700  58.7170486  24.5226383   4.5900321  59.4312401
  49.8245964   1.1962891  49.4218254  50.2706337   0.3564768  49.5313644
  48.8960075   0.9695277  49.3714981  42.4782829  22.6585178  72.4128113
  42.9206123  23.4931107  72.2577896  41.9252281  22.5336895  71.6415939
  22.6798573  65.9779205  18.8470821  22.0476723  65.5224762  19.4030876
  22.3665276  65.8274460  17.9552231   2.4787695  66.4856644  19.5378437
   2.0526459  66.1826630  18.7360725   3.2543650  66.9568863  19.2334919
  76.4987106  24.9209633  25.3717728  76.3252182  23.9910297  25.5179119
  76.5169449  25.0144176  24.4193211  65.9798126  41.4781380  28.1421833
  65.5382919  41.6618958  28.9713573  65.4581070  40.7824554  27.7420712
  13.4780607  56.9158592  57.5720863  13.6360836  57.7890854  57.2132874
  12.5553007  56.9247894  57.8263855   2.4947648  65.4435272   8.4014235
   2.9150703  66.0519028   9.0092516   1.6943146  65.1713104   8.8502092
  25.0271873   9.4020767  18.2976265  24.4976692   8.7012663  17.9172230
  24.6870098   9.5037374  19.1865444   6.4501710  47.7550964  44.5136147
   6.1524243  47.4072380  45.3541946   6.8068585  46.9956398  44.0529327
  56.8834801   1.7958304   8.4728813  56.0421448   2.2276559   8.6209126
  56.7186813   0.8747284   8.6744852  39.4677658  30.2137184  11.8092260
  39.1835403  30.2441998  12.7227459  39.5504990  31.1323662  11.5533495
  80.0399017  20.0135612  49.8860970  80.1161423  20.9511147  50.0633316
  80.4120026  19.5923061  50.6608963  63.1603279  13.6628838  45.5879059
  63.0096397  12.8302059  45.1404953  63.7679214  13.4479895  46.2956314
  85.8980942  14.4740725  13.5936966  86.2980042  15.3011055  13.8626156
  86.3473129  14.2441177  12.7803364  25.1122742  53.7919197  49.3325310
  24.4073582  53.2191277  49.6345749  25.9133244  53.2968407  49.5041389
  36.1431389  68.5321960  75.3031540  35.9268799  69.0090866  74.5018768
  35.3185654  68.1258621  75.5699844  62.5166664   6.5075779  80.9471664
  62.3791428   7.2649722  80.3782425  61.6573257   6.3392100  81.3337173
  78.4207916  62.0363388  67.8816071  78.5457916  62.8888931  68.2984543
  77.8702316  62.2202873  67.1204987  17.5431099  70.7378311  11.5818472
  17.3283730  71.6530838  11.7619553  16.8442020  70.4377213  11.0007362
  44.7205849  52.0925980  67.8144760  44.2923012  51.3257790  67.4339600
  44.2382126  52.8382339  67.4572983  73.1403656  68.8836136  80.4739304
  73.2253952  68.5101013  79.5967178  74.0059586  69.2445526  80.6654968
  59.8138428  18.7385712   9.4205179  59.0287437  19.1715908   9.0853395
  59.6755486  18.6905880  10.3664589   7.9074202  38.7394600   5.9244404
   8.2344379  38.5654716   5.0418191   7.9588885  37.8938255   6.3699560
  56.0148163  31.0144978  75.2501907  56.8433418  30.9193668  74.7803802
  55.4460449  30.3445854  74.8707809  76.2365799  35.7267609  70.4368668
  76.2950516  35.2118797  71.2416687  77.1228333  35.7081337  70.0756989
  76.7493668  21.7273960  87.8580856  77.5199051  21.3361111  87.4465027
  76.3327789  21.0025787  88.3242645  82.7624512  10.5203180  40.3692169
  82.1359634  10.5290298  41.0928650  82.4074783   9.8798056  39.7528038
  17.0602207  71.0815811   1.5444088  17.2526741  70.5688782   0.7593472
  17.9191151  71.3437195   1.8757933  48.2775917  19.0992775   0.5219983
  47.3723335  18.8281860   0.6744707  48.7294502  18.2940903   0.2695570
  33.1465378  11.8812027  74.0890579  33.0776825  11.9039812  73.1346130
  32.9400749  12.7740660  74.3654633   7.3423700  37.6121330  84.7855377
   6.3858061  37.5782280  84.7773132   7.5480056  38.5320129  84.9521637
  40.2067108  35.5685081  69.6154251  40.0322151  35.4274139  68.6848984
  39.5202789  36.1723671  69.8989639   7.5558372   6.8450279  59.4396172
   6.6483588   7.0167003  59.1881332   8.0744667   7.4052491  58.8622017
  72.7890472  38.5999680  14.2447739  72.9053345  39.3205566  13.6255350
  71.8976212  38.2894058  14.0862026  77.3361206  48.9744682  47.7615089
  78.2733307  49.1648483  47.8019485  77.2870407  48.0876846  47.4045296
   2.1346135  40.3595123   7.0118809   1.8382399  40.9806175   6.3465843
   1.3408195  40.1282806   7.4942245  52.8999405  42.6558571  65.7473755
  53.4783363  42.1299515  65.1949997  52.4492569  42.0165863  66.2991409
  36.7596626  57.7206459  65.9760742  37.0983315  56.8436852  66.1562729
  36.1472816  57.8925629  66.6913834  23.0390282  37.7496262   6.4214091
  22.5689564  37.0979500   6.9415870  23.9616585  37.5144730   6.5198369
  17.2626286  71.3660202  71.6058578  18.1186619  71.6070251  71.9599152
  16.6699982  71.4181213  72.3557358  75.8322906  70.1899567  43.1834831
  76.0117340  71.0322723  43.6012535  75.8720856  69.5547104  43.8984032
  59.2084122  66.7498932  66.7352600  58.4965668  66.3157120  66.2651520
  59.7065201  66.0340500  67.1298370  10.4881744  64.4742279   2.5980072
  11.1315508  65.1394348   2.8425519  10.5917683  64.3773956   1.6513693
  44.3416405  42.7590981  53.8092766  45.1075935  43.0271797  54.3168983
  44.6003342  42.8916626  52.8972816  80.3886414  21.6881332  36.5235825
  80.8183441  21.3196831  35.7516785  80.5255356  21.0341244  37.2089729
  76.6076431  26.3888550  69.7299347  76.4608536  25.6924019  69.0898972
  75.8664474  26.9828930  69.6117172  70.1171417  58.0883408  69.4750824
  69.3449936  58.3025436  69.9986572  70.4355164  58.9344826  69.1605682
   2.9283755  10.9711466  45.7795525   2.8748825  10.9823399  44.8239136
   3.1724007  10.0710602  45.9952545  24.9342537  34.3638649  10.4888048
  24.8327065  34.7477341   9.6178493  24.1312771  33.8606567  10.6238689
  75.8591537   9.2491350  58.1934509  75.2730026   9.6440077  58.8390007
  75.4617157   8.4009628  57.9962616  51.2352486  59.5597801  25.4613056
  50.9859848  60.2407150  26.0861473  51.9831085  59.1229019  25.8688335
  82.3744583  17.9483604  22.5898094  81.8772430  18.0428104  23.4022675
  81.8049088  18.3194771  21.9159279  17.8325768  48.7882690  51.9312706
  17.7327499  49.1785736  52.7995605  18.7293186  48.4536438  51.9207458
  55.7646904  52.5461349  26.1238079  54.8474007  52.5765190  26.3956280
  56.0065613  53.4631424  25.9940910  12.1495743  58.9831009  69.0366516
  12.0151119  59.9307175  69.0234146  11.3262711  58.6290398  69.3728790
  76.6616974  39.9448509  34.7880135  77.3924408  39.3903389  35.0614395
  76.4711609  40.4852753  35.5547409   8.5439196  40.7772293  56.8848343
   7.8908882  40.6717300  57.5766792   9.2922077  40.2588158  57.1807098
  77.3315201  45.8307076  58.0177307  77.1338196  45.2659073  57.2706413
  77.0622025  46.7046890  57.7351456  18.6339169  71.0267487  82.7812347
  18.0974197  70.7011719  83.5040054  19.4449711  70.5216370  82.8385315
  64.9930496  56.8582535  21.0300732  65.5493698  56.0803528  20.9899082
  64.2853470  56.6160126  21.6273212  81.1028214  48.4405861  50.6743660
  80.6822815  47.5884285  50.7892723  81.8975449  48.3890305  51.2053909
  72.4097900  48.9469643  72.2175140  72.2530060  48.0132713  72.0765533
  73.0776749  49.1778336  71.5718689  55.8375320  62.9995995   5.0323224
  56.4637756  63.5715675   5.4760594  55.0881729  62.9583168   5.6264472
  77.5362854  37.1557198  60.7558136  76.8032074  36.6237984  61.0654755
  78.1256485  37.2123337  61.5079308  48.2785530  52.8827591   4.4730539
  48.8454704  53.6517487   4.5321679  47.3988457  53.2201881   4.6418295
  68.6748352  61.6724434  37.5495796  69.3844376  61.4553146  36.9449768
  68.4584808  62.5828018  37.3479042  85.4582901  35.5730820  81.7593155
  84.6160812  35.3858643  82.1738968  85.2399063  36.1370277  81.0173569
  44.3125648  63.3725739  40.0657501  44.8156929  62.5657310  40.1757126
  44.3728752  63.5668526  39.1304131   1.1089659  18.0126514  70.7235947
   2.0656638  18.0010796  70.7523499   0.8395749  17.6882038  71.5828934
  70.7459335  58.2907829  18.9566746  70.8533936  58.2475128  18.0065098
  70.3257675  57.4624710  19.1881638  10.4752884  32.6164970  88.1987076
  10.8076468  33.0313873  87.4026947   9.8145714  33.2256241  88.5283279
  78.2633514   6.0167794  40.0496864  78.2664490   5.1603584  40.4771957
  78.9067688   5.9353757  39.3456802  64.6365051   0.7860914  34.7533760
  65.2147369   0.0439740  34.5769157  64.9760895   1.1670598  35.5631752
  61.9265480  10.0207615  58.5007935  62.5533791  10.1524649  59.2121086
  61.9844322  10.8213091  57.9792519  38.2135277  10.6661863   1.3750576
  38.7596359   9.9368505   1.6684250  38.0822563  10.5063114   0.4404772
  57.7729874  19.5872440  25.4588947  57.2066612  19.2315693  24.7740574
  58.1436195  18.8159199  25.8877563  74.6485672  65.8881302  81.1862564
  74.5428391  66.6248627  81.7881546  73.7742310  65.5038681  81.1221161
  40.9616432   2.9992936  28.3015480  40.7786713   2.5037405  27.5033131
  41.8064003   3.4176359  28.1354103  15.5240974  71.1314011  17.8901882
  15.9785261  70.4543457  17.3888702  15.7216291  70.9259949  18.8039818
  59.6065216  51.8771858  85.8408203  59.6511879  50.9587593  85.5748672
  60.1701698  51.9307251  86.6126175  83.7890015  28.3324966  45.5120735
  83.8310852  27.3879757  45.3626022  83.3639526  28.4212952  46.3651161
  23.0029316  21.4642906  85.2917404  22.3521690  21.7602177  85.9282684
  23.5451965  22.2357445  85.1273117  29.9045353  25.9836311  11.6516247
  30.5087032  25.2556686  11.7975092  29.0563545  25.6541653  11.9487305
  37.2378502  51.3165665  49.1520500  38.1338997  51.0583115  48.9361038
  37.1383018  51.0864677  50.0758324  34.2916260  20.3419628  17.8024693
  34.5548210  20.0060101  16.9456768  35.0181770  20.9032936  18.0731373
  60.5333138  46.2418556   8.6525469  60.0931129  46.2890244   7.8038836
  59.8783340  46.5487404   9.2794857  84.9733810  38.5811958  13.1586370
  84.9181976  37.6330223  13.0396872  84.0622864  38.8685150  13.2184687
  34.3815956  70.9073944  42.0850868  35.2458076  70.9973450  41.6834984
  33.7732315  70.9043045  41.3460922  59.9689598  48.4986229  59.7103195
  59.1109200  48.0765266  59.7531395  59.8150978  49.3045273  59.2172890
   4.9646707  66.1489563  21.4963837   4.8710113  65.5152664  20.7851181
   4.5104613  65.7468185  22.2367973  81.7227402  44.9989510  73.6371613
  81.6681671  44.8693352  74.5839767  81.9882278  44.1459122  73.2935486
  22.9018593  45.9169693  66.7653580  22.4133358  46.6841888  66.4671097
  23.0770550  45.4192429  65.9667282  80.7698288  33.2414627  57.1863251
  81.6511307  33.2532730  56.8129692  80.6920013  34.0790062  57.6431618
  71.6969681  37.9163055  62.6154099  71.7264175  38.6550446  62.0074387
  70.7777710  37.8568687  62.8757515  10.4576378  38.9435272  57.8101730
  11.0860109  39.2204666  57.1433258  10.9886541  38.7946968  58.5925446
  63.1495285  37.6399689  15.6015463  63.3115768  36.7284508  15.3584328
  62.8653946  37.5974464  16.5146141  75.7757111  49.5303116  50.1758728
  76.3710327  49.3318138  49.4530869  76.1923447  49.1390305  50.9436874
  33.1364136  47.4062386  57.8691101  33.4798622  47.7951660  57.0647392
  32.3060608  47.0085144  57.6072769  49.8878479   5.2080245  49.2092323
  50.0223732   6.1176457  48.9432907  49.9881897   5.2194347  50.1610909
  45.0909386  37.2181892  66.2227783  44.7178001  37.5457001  65.4044037
  44.3368950  37.1050491  66.8014450  62.0683746  12.7019320  33.0788727
  62.6211166  13.4518986  33.2985535  61.3277702  13.0807781  32.6053658
  40.5734634  49.6259003  54.6737099  40.3273926  49.1777000  53.8645134
  41.3260040  49.1332092  55.0010796  47.8436775   3.5272298  17.1798153
  46.9002953   3.3653505  17.1725960  47.9831009   4.1622925  16.4773273
  22.2516155  25.2911892  16.3046665  21.6764030  25.0091610  15.5934563
  23.1202717  25.3391399  15.9054546   6.7824221  67.2166138  39.3622513
   6.3093963  67.5319138  38.5921440   6.2920294  67.5684128  40.1052055
  24.3886185  18.9210949  10.7181787  25.0429745  19.5421677  11.0380487
  24.6761684  18.0738258  11.0582981  80.5920334  56.2138290   8.5788546
  79.6716995  56.2327919   8.8412552  80.6822433  56.9457970   7.9686761
  81.6647186  44.7685204  52.4090271  82.2983627  44.2456779  52.9003143
  80.8793411  44.2224464  52.3741760  20.7770805  69.5835114  54.2614899
  21.7321301  69.5244751  54.2364044  20.4956837  69.2815552  53.3978500
   7.2641315  58.6026878  75.1524811   7.2284307  59.3714294  75.7216797
   7.9795194  58.7881088  74.5441437  14.4319000  17.1613007   5.7140265
  13.7315693  16.9969730   6.3455043  14.6754408  16.2923355   5.3949380
  62.9471130  35.0604401  12.3703547  62.6289902  35.8861923  12.0054398
  63.8555794  35.2398796  12.6126814  84.0164261  64.7233887  27.4197617
  84.0470581  63.9961853  28.0414276  84.8656845  65.1548309  27.5138226
  58.1880035  14.9293318  20.6455631  57.9254150  14.3625355  19.9202881
  58.9202347  15.4387989  20.2984142   1.9533932  13.4784174  58.7654457
   1.4079288  14.1602583  59.1576118   1.5845082  12.6583586  59.0935593
  69.5797958   2.6935701  18.1998100  69.5701828   2.7118657  17.2428322
  70.3863449   2.2286327  18.4223900  73.3591919  59.4297218  83.8528519
  72.7269440  60.1104965  84.0831604  74.1391220  59.9108391  83.5763168
  31.9621201  60.2826080  76.8611908  31.9861927  60.8288765  77.6468430
  32.1710815  59.4027061  77.1747894  79.5653915  16.8349953  52.4008026
  79.7106781  16.7166348  53.3394775  80.0411301  16.1120853  51.9917755
  73.0829010  28.5872688  25.4592209  73.7963715  28.0613346  25.8205891
  73.4943771  29.4182816  25.2218571  40.8064232  67.0205917  46.5243301
  40.4036369  66.8498230  45.6729584  41.3736496  66.2648010  46.6768570
  28.6361809  46.7589149   4.3424907  28.1269360  46.2659569   3.6991451
  28.8453083  47.5826683   3.9021177  84.3071060   5.4431448  20.3573399
  83.8066177   5.5769844  19.5524635  85.0616608   6.0255761  20.2698307
   8.8447218  53.1488533  11.2987356   8.5706282  53.1697350  10.3818560
   9.5092268  52.4608192  11.3344593  51.4351234  20.8176479  65.8976822
  50.6061325  20.3396835  65.8741455  51.9141464  20.5042648  65.1305084
  67.6497726  52.2190590  19.7171230  67.2554474  51.5151367  20.2321339
  68.5301132  52.3170357  20.0799294  82.8089905   5.6655202  33.0783043
  83.4624252   5.5236931  33.7632408  83.3109131   5.9956679  32.3331108
  10.7303591   4.3292637  18.2972984  10.4593735   4.4587045  19.2061672
  10.6071482   3.3928709  18.1416740  79.5865479  12.0325098  23.3674736
  78.9479752  12.7323618  23.5040989  80.0894775  12.0049143  24.1814365
  48.6979828  45.0077324   0.8312055  48.7909203  44.6931763  -0.0680428
  49.3976898  44.5664940   1.3128138  14.2575378  65.7728882  57.9987373
  14.0036802  64.9687042  57.5458870  15.1566467  65.6127167  58.2854118
  29.3608665  48.5553551  14.8030586  29.1500607  48.8551178  15.6873293
  28.6826725  48.9438019  14.2504339  16.9367485  61.4567871  29.1634254
  16.4332333  60.6961327  29.4534378  17.7576714  61.0897217  28.8354263
  75.0740280  64.3282700  19.6476765  75.2510300  65.2470779  19.4459267
  75.9373093  63.9149323  19.6590080  48.5247803  27.6243439  19.4651508
  48.8205338  27.4685802  20.3620892  47.7179375  28.1298981  19.5633869
  71.9291458  68.6663437  85.2253189  72.7901764  69.0768814  85.3048096
  71.5506897  68.7318573  86.1020737   4.0829296  44.7922401  34.7698441
   4.2998080  44.5038757  35.6564331   4.8977404  44.6888123  34.2782974
  64.0049896  48.0890274  68.4167175  63.4594574  48.7324791  68.8690414
  63.3800926  47.5047531  67.9873505   9.4182091  38.4908791  36.0639114
   9.6723394  38.8767853  35.2256241  10.0443573  37.7797585  36.1998520
  12.3962870  70.5737686  10.7289677  11.6606760  71.1851196  10.7657795
  12.9611607  70.8346481  11.4563532  17.0056381  55.5557518   5.0590596
  17.6136818  55.5992699   5.7970448  17.2563038  54.7606277   4.5887642
  17.5565624  42.4214745  38.9869347  17.3613262  42.3440552  38.0530586
  18.5087509  42.3394089  39.0401649  51.8416214  51.4589577  10.8712378
  51.0677261  51.6806526  11.3890886  52.0315399  50.5495300  11.1016741
  24.7884102  50.1990395  31.8633022  24.4764576  50.2468262  32.7669792
  24.0230160  49.9212494  31.3600769  44.9139595  12.5029640  31.2491226
  45.3372078  12.0443811  31.9749298  44.1534119  11.9625244  31.0352955
  53.9216461  35.2404900  73.8976822  54.8566856  35.0941544  73.7544403
  53.7458611  36.0866852  73.4862442  63.8966980  62.0299187  50.5940514
  64.6425323  61.6196060  50.1563225  64.2297211  62.2721939  51.4581299
  30.0969276   4.9867096  51.3920250  30.3607368   5.0117507  50.4722366
  30.3017006   4.0957561  51.6757545  62.7981148   7.2708206  35.4699936
  61.9445190   7.5826426  35.7706184  62.6799774   6.3286505  35.3492012
   8.9384918  27.5535107  25.9930534   9.8635197  27.5993385  26.2348270
   8.5132723  28.2075386  26.5477333  74.7455292  16.0977135  57.3230667
  74.2986984  16.9422092  57.3814049  74.1673889  15.4886122  57.7823982
  18.6585293   6.2637610  16.6318741  18.6704483   5.3560801  16.3282204
  17.7408028   6.5271120  16.5636520  21.2369919   8.2070589  63.0015030
  20.8620987   7.5208387  63.5535774  22.0400257   7.8210297  62.6517143
  46.5842133  54.3587570  77.1016006  47.5356750  54.3597069  76.9969559
  46.2560844  54.7906761  76.3129196  14.8685465   3.1145082  70.2227783
  14.2938595   2.3822250  69.9997787  15.5307703   2.7324805  70.7987518
  50.2156487  63.7556190  40.6633034  49.5508728  63.2545853  41.1358147
  50.7241135  63.0949745  40.1929398  75.8198395  38.3194199  24.4607697
  75.8405075  38.1661034  25.4053860  76.6243744  37.9159203  24.1349773
  16.0611248  63.9765854  45.8907738  15.8781862  63.2054825  46.4275818
  16.2711525  64.6640778  46.5228157   0.3553889  54.6712341  67.8507614
   1.0067081  54.9059868  67.1897736  -0.4306075  54.4585381  67.3475723
   8.6718998  43.9952469  15.9991207   7.9636025  44.5003242  16.3984241
   9.0967941  44.6100349  15.4010162   3.2107701  35.0078201  54.9503441
   3.9919491  34.5997124  55.3237572   3.5272894  35.4597740  54.1681747
  59.6838150  49.1325645  85.3302383  58.7962685  48.8804436  85.0754395
  60.1557541  48.3033066  85.4066391  37.3022804  13.7427893  69.5403442
  38.2386742  13.6455355  69.3672943  37.2506180  13.9377756  70.4760513
  47.7447853   3.9033098  37.3347206  48.6943703   3.8538148  37.4445877
  47.6053658   3.7770858  36.3961792  81.1356888   3.7005169  65.3553162
  81.5370712   4.1224599  64.5956497  81.7113724   3.9254684  66.0862198
   0.8721712  23.4238949  62.8121529   0.8265318  24.3591270  62.6134300
   0.6000286  22.9932785  62.0017624  70.8483200  24.2692585  43.9585381
  70.9286270  23.9159908  44.8445320  71.7172928  24.1525574  43.5744820
  50.1909485   1.3465863  42.1989861  49.6645775   2.0682743  41.8549919
  50.9750862   1.7683332  42.5503960  56.4912415  55.1808777  18.7064152
  57.0878983  55.9253960  18.7833881  55.6568985  55.5688553  18.4426403
  69.3023987  43.9758110  13.5749712  68.7836761  43.5662384  12.8825769
  68.7486954  43.9202194  14.3537874   1.8851830   8.5166359  85.6968079
   2.4442425   8.5603666  84.9210663   1.1888987   7.9055076  85.4560928
   8.3136187  40.2010422  48.3985443   8.1454983  39.2740021  48.2295418
   7.4533925  40.5667725  48.6046600  49.3250427  30.9360771   3.5150733
  49.7855530  30.0986595   3.4612668  50.0141487  31.5944939   3.4264767
  38.4593887  52.5290680  83.0991669  37.8885002  53.2214546  82.7661285
  39.0184517  52.3015633  82.3562546  16.6383247  34.6059837  74.3423386
  16.3067131  35.0149918  73.5429764  17.0107689  35.3302841  74.8452377
  12.8176594  31.7765522  11.0414495  12.5461636  30.8587532  11.0543690
  13.0996399  31.9555607  11.9384861   4.4702501  39.8154335  77.1793060
   4.3757892  39.1307373  77.8414993   3.8051412  39.6074028  76.5231171
  20.6958561  45.5818672   7.4781232  19.9739532  45.7177162   8.0918274
  21.4404888  45.3479729   8.0322428  71.3819122  67.3625336  45.0208359
  71.2193832  66.7278442  44.3229904  71.6422195  68.1613617  44.5622063
  29.9428883  14.9851131   3.7198298  29.4226303  15.0372362   4.5216074
  29.3804321  14.5219898   3.0990305  79.9723740  44.7253647   7.1710510
  79.2122269  45.2341652   7.4530621  79.6330109  43.8398399   7.0410185
  75.4031830  51.0647316   4.4621606  75.0448761  51.8023186   3.9683862
  75.9906235  51.4674072   5.1016917  71.0600662  51.7417412  88.5953522
  70.8182602  51.6235428  89.5139389  70.5862122  51.0509872  88.1321564
  66.8361740  55.3319435  34.5735207  66.9851685  54.6436005  33.9252815
  67.5528259  55.9510689  34.4344826  22.2431622  67.2691269  80.6447678
  22.6672573  67.9776077  80.1605835  22.4938889  66.4740295  80.1744690
   6.4275532  51.7545547  30.4605007   6.3355055  51.7864227  31.4127312
   6.0365343  50.9175568  30.2099533  46.8974686  62.6854935  88.5666656
  46.1150703  63.0904732  88.9409332  46.9119301  61.8036194  88.9385834
  55.2054825   9.5906830  36.8519478  55.4335747   8.7402077  37.2273102
  54.5184364   9.9293404  37.4259796  84.1143875  24.4900055  21.1184578
  84.6231689  24.6898403  21.9042339  83.5093231  25.2265530  21.0311508
  60.2134933   7.1271920  23.6740093  60.0283241   6.6732588  24.4961338
  60.9213638   6.6211529  23.2751713  56.7350349  42.0667801   3.9171226
  57.5775986  41.7485390   3.5930228  56.9442520  42.4964943   4.7464628
  33.7981148  19.4694443  86.1038208  33.9931908  19.8432884  86.9631348
  33.5888405  18.5528088  86.2833176  46.4117813  49.9005051   1.8345321
  46.9794006  49.8757477   1.0641879  47.0133514  49.8466721   2.5771277
  84.3507614  43.0459671  60.3057899  84.5981216  42.4673615  61.0270844
  85.1726913  43.4539261  60.0333328   7.3998852  36.5414314  38.6641083
   7.2755136  36.6499786  37.7212524   6.6867270  35.9631729  38.9347649
   4.5217991  33.1933365  12.2059069   5.0926032  33.7117004  11.6387119
   4.9055409  33.2829857  13.0782242  43.7716522  61.9884300   7.1796265
  43.6107674  61.3870201   7.9067135  43.0594864  62.6256981   7.2338462
  75.6027069  38.0324821  65.9555588  74.7873993  37.5355835  65.8877640
  75.8293915  37.9951515  66.8847809  82.5898895  69.8854752  26.8057442
  82.3384552  69.3155518  27.5325184  83.3782654  69.4798584  26.4449635
  16.3966961  37.4994316  27.0593891  15.5809813  37.4615593  27.5587959
  16.1660099  37.9715767  26.2593307  18.4248047  63.8059349  19.8601189
  19.0452290  63.5430260  20.5399609  17.8146229  64.3928452  20.3067131
  79.8551102  38.3915672  81.6622849  80.2607727  37.7420807  81.0879745
  79.0671463  38.6667862  81.1936646  11.6599855  37.0425453  60.0502701
  11.4341726  36.8804893  60.9662247  11.0074997  36.5503540  59.5520325
  31.7099781  51.0273857  44.1237907  32.5954628  51.2710190  44.3935852
  31.1402493  51.6355438  44.5947342  43.3784103  47.8290138  37.4347572
  43.8491249  48.6623192  37.4509773  43.7226562  47.3448296  38.1852837
  39.7620659  50.1924057  48.7300453  40.5823326  50.6117630  48.9899139
  39.8901863  49.9659195  47.8088951  36.9896660  57.4438591   6.7170215
  36.3604393  56.8043289   7.0506468  36.4588280  58.2088089   6.4950061
  41.3538208  68.0562973  72.9134598  41.5563927  68.2583008  72.0000076
  41.7244606  68.7870789  73.4082489  58.1295166   8.6981535  51.9985695
  58.8030090   8.4891729  51.3512917  58.6193161   8.9280396  52.7881775
  31.1543236  44.9831429  78.1950836  30.4058170  45.5770683  78.2518539
  30.8105240  44.2059517  77.7546234  65.1502228   5.5138044  46.5548248
  64.2087555   5.3661904  46.6446800  65.4901199   5.4420395  47.4467621
  31.9378757   6.8881526  88.5746765  31.8073292   7.5839109  87.9303894
  32.8061256   7.0593452  88.9394531  50.1096458  59.9747543  14.8959312
  50.5720100  59.3131485  15.4104509  50.4674721  60.8085289  15.2009211
   1.2170925  68.2348251  47.6237526   0.3514625  68.6139679  47.4715500
   1.0417799  67.4161301  48.0876808  76.5336456  13.7676411  46.5757790
  77.0743866  13.3849516  47.2667046  76.0333786  13.0299187  46.2268791
  23.2202606  27.9668179  10.9198027  24.0644722  28.3646660  10.7070704
  23.3755779  27.5000477  11.7409201  51.2402077  65.8164444  25.2977066
  51.1842499  65.8162766  26.2532692  50.9471283  66.6907043  25.0407753
  37.3729134  20.6294899  70.9468079  37.2360229  20.5749893  71.8925934
  37.1582718  21.5356960  70.7255554  55.2703171  69.0837784  26.7517090
  54.3409996  69.0442657  26.5257893  55.6785851  68.4129257  26.2044296
  60.2584724  54.6742172  89.2543564  59.9033813  54.8088799  88.3757248
  59.4878883  54.5405006  89.8062210  25.5066910   1.0457582  33.7145729
  25.7079659   1.8986772  34.0996056  25.0992393   1.2527858  32.8735313
  24.6430168  46.5704651  75.2759857  24.8865280  46.0442238  76.0375671
  23.9109764  47.1071358  75.5798492  69.2048416   4.7802334  35.4096718
  69.5631943   4.7748427  36.2972450  69.8165817   4.2478747  34.9011497
  62.7257309  25.4650745  32.5422783  62.6900711  24.5110378  32.4731941
  62.0037918  25.7720776  31.9938412  52.3258247  11.5813951  27.9393997
  51.9123573  12.1925707  27.3296947  52.8364906  10.9949465  27.3812523
  77.3857651  68.0307922  53.6335602  76.6013336  67.5904694  53.9607010
  77.3211517  68.9218521  53.9771652  14.7921915  50.7953682   1.8843529
  15.3305445  50.0049019   1.8446805  15.1322012  51.3521233   1.1838888
  70.6128082  52.1618385  57.5751076  70.7255173  52.5426216  56.7041702
  71.2908936  51.4886246  57.6317596  45.8842010  26.7806225  63.7620850
  46.7721710  26.4906902  63.5530968  45.4779129  26.9409714  62.9103546
  73.1272888  35.0664864  79.2210159  72.5474167  34.5825272  79.8090286
  72.9677429  34.6833725  78.3584595  11.0212126  32.6378593  51.6462212
  10.1705542  33.0204887  51.4312668  10.8470373  31.7007351  51.7339249
   1.3005980  32.7448273  28.7459850   0.5639342  32.1724205  28.5317249
   1.1621945  33.5246658  28.2084637  69.1349411  63.8103790   0.8275562
  69.5316010  63.0548019   1.2611405  69.8647308  64.2419968   0.3833111
  85.7668762  50.6860275  28.1410961  85.5626678  50.5150948  29.0605068
  86.0864868  49.8479347  27.8069153  25.0843449  24.8465977  14.8048267
  25.2802391  25.4270744  15.5402899  25.5876293  24.0527191  14.9856339
  72.7010803  47.6188545  11.4162722  72.6440659  47.2340240  10.5416946
  72.2551880  46.9903221  11.9840412  71.8933258  14.0481634  19.1275425
  71.0987320  14.4112749  19.5186996  71.6614838  13.8964415  18.2113209
   5.7267585  48.2698822  32.2597885   5.0675073  48.1850014  32.9485664
   6.4655523  47.7459564  32.5694962  31.2785339  67.8796616  63.2000694
  31.9085999  68.3318787  62.6390457  31.7137051  67.8216095  64.0506516
  63.7738762  41.9942207  26.2013779  64.1522675  42.3303680  25.3889408
  64.0603943  41.0817032  26.2394543  58.5225906   1.8754431  10.7865820
  57.9993248   1.4786346  10.0901842  58.2303505   1.4365484  11.5854568
  36.2260704  33.4618912   3.8654253  36.0357590  33.1361809   2.9856937
  36.5508652  34.3515053   3.7263987  51.0738144  21.7824116  88.5932312
  51.1338539  20.8325768  88.6954117  50.5320778  21.9056854  87.8137741
  77.1758041  66.9636002  40.3276253  76.7209854  67.0054398  39.4864197
  77.0428162  67.8287048  40.7150955  77.8021088   0.7423424  44.2191925
  78.5994415   0.6408602  44.7389870  77.1774979   1.1537218  44.8165703
  26.9044647  17.5790272  44.9916611  26.5874710  18.3351173  44.4976234
  26.2041512  17.3903561  45.6163177  87.0036087  70.3713837  37.8021927
  86.3336182  70.9128876  38.2194710  86.7856979  69.4767914  38.0638046
  61.8626976  32.6678505  46.0694656  62.2421036  33.2047691  45.3737602
  60.9193420  32.8126068  45.9962578  81.0431671  44.3721504  10.2762136
  81.7540359  44.4360771  10.9140358  81.4674225  44.0660706   9.4746161
  76.5910339   8.5891876   1.8134017  77.4432831   8.1534023   1.8157215
  76.7698059   9.4666834   2.1514468  23.1983643   2.9271383  44.3904686
  23.7589684   3.6864517  44.5498314  23.7982979   2.1812901  44.3951492
  48.8623695  52.4816170  85.0340805  49.3196144  51.6551514  85.1893768
  47.9354553  52.2432556  85.0184174  24.9023094  67.1038513  76.7517471
  25.8178959  67.3645782  76.6519699  24.8499317  66.2466660  76.3289948
  21.7476254  71.8697739  16.4515495  22.3866730  71.2072372  16.7140236
  20.8982277  71.4733505  16.6454735  43.2010536  32.3401604  83.5314255
  42.4500923  32.7662697  83.1182404  42.8442307  31.5332508  83.9026489
  47.1328773  66.7030411  49.4352379  47.4925880  67.3254242  48.8031921
  47.3247261  65.8433456  49.0606003  21.3143063  41.0536232  60.0968666
  22.0572166  40.5042992  59.8467445  20.6709309  40.9175682  59.4013176
  71.0163116  53.9214668  66.9450836  70.5819473  54.7217484  67.2402267
  70.4105377  53.5406761  66.3092728   2.6786501  57.3521271  41.4366112
   3.3764296  57.0970230  40.8330727   2.8116281  58.2900696  41.5737686
  35.5323830  70.4871368  56.6442337  36.1398125  70.5777130  55.9100304
  35.8228111  69.6966705  57.0992546  58.5555801  28.2604141  43.7361450
  57.7515335  28.7797775  43.7336388  58.3251305  27.4599476  43.2645721
  30.3590469  18.8687553   6.9178824  30.1517887  18.5682869   7.8027515
  30.7455158  18.1047592   6.4898863  12.8777056  21.9902134  71.7281189
  13.6304827  21.9387665  71.1391296  12.3317337  22.6843662  71.3589325
  62.0347900  56.9018555  86.2378006  61.5432472  57.2813187  86.9662399
  61.6452560  56.0367622  86.1108704  13.7539654  15.1754980  60.6174774
  14.4115963  14.4838552  60.5441055  12.9340611  14.7098913  60.7823944
  18.1877422  26.1079388  88.3774338  17.7018070  26.2593803  87.5667725
  18.1433201  25.1610012  88.5099716   8.1682425  21.1615086  62.3490372
   7.5834494  21.1275101  63.1060638   8.6134510  20.3141518  62.3520546
  12.3605890   5.2041931  79.3471375  11.4303818   5.0023336  79.4481201
  12.4212456   6.1445508  79.5153046  72.3395386  51.3788795  61.1624298
  71.6204224  50.7487450  61.2075768  71.9169083  52.2320671  61.2608795
  80.2667694  35.6067085  84.3800201  80.4088516  36.5397530  84.5396194
  81.1444626  35.2512398  84.2402954  80.2825699  35.0500946   7.2983594
  80.4088135  35.8090744   6.7289357  80.0938797  34.3289261   6.6979065
  45.2059593  51.7119827  31.5895519  45.9057999  52.3643074  31.5590458
  45.2769203  51.3252182  32.4622536  55.3838501   4.0708008  56.6629715
  55.3149719   3.3482788  56.0389137  54.4769363   4.3146672  56.8480911
  58.4786949  13.9686480  34.3739433  57.8234558  13.2732515  34.4315338
  58.2967110  14.4006853  33.5394020  62.6700630  11.7611523  87.0578461
  61.7386093  11.8911734  86.8797531  62.7689896  10.8122063  87.1349564
   8.7610865   8.1996918  48.5272255   7.9094419   8.3541603  48.1184807
   8.6109343   8.3551407  49.4597092  82.3297195  61.1141701  33.7522278
  82.3667603  60.1585388  33.7925339  82.4938202  61.3983650  34.6514130
  75.2704697  13.7639952  41.6533089  74.5386734  13.6820927  42.2648735
  75.4691544  12.8637981  41.3956261   2.7321992  15.5433998  22.8596725
   3.3741155  15.8931570  23.4776096   3.1086442  14.7132530  22.5674782
  84.5539017   0.5072268   5.7640877  84.9336014  -0.2904756   5.3956728
  84.1019135   0.9194884   5.0278978  28.3997478  55.5180779  55.5971222
  28.9827156  54.8055305  55.8591499  27.6784935  55.4807396  56.2253189
   9.1581383  43.6855316  79.1363449   8.7329588  44.0276756  78.3499680
  10.0393972  43.4478836  78.8480072  58.2331696  48.4563789  32.7157021
  57.5882568  47.8417816  32.3655777  58.7643661  47.9310875  33.3141403
  33.0924988  65.5284882  33.1059570  32.9484787  66.4453583  32.8717651
  32.8625221  65.4793167  34.0338173  60.4032669   0.0318433  66.3135986
  60.3182869   0.7044528  65.6378708  59.5905609  -0.4704688  66.2550888
  54.3765831   2.8579285  28.4193783  55.3137512   2.9081531  28.6076031
  54.3223190   2.8857975  27.4641247  20.9746571  62.4153519  24.2423916
  21.1752777  62.1340942  25.1350689  21.2889061  61.6999321  23.6895313
  34.5462685   0.6245257  76.5056763  34.6119499   0.1702212  75.6657181
  34.7538605   1.5363983  76.3016510  62.2458839  19.6357498  17.2535896
  62.4042473  20.4992981  16.8722229  62.5146103  19.0199108  16.5718555
  21.4027576  12.2215738  13.4327154  22.1318913  12.5352745  13.9676781
  21.3598042  12.8376856  12.7014189  25.8071365  19.6589794  83.4409103
  25.1536827  20.0394821  82.8540115  25.5299854  19.9302845  84.3160172
  59.3078079  10.3894358  84.3090134  58.6042442   9.7489824  84.2039032
  60.0634079   9.9877348  83.8801346  50.8527145   7.7420993  12.1730356
  50.4682999   7.0747924  12.7415066  51.3507309   8.3042974  12.7664557
  46.1778564  12.8071508   4.0815992  46.7825661  12.5025835   4.7582083
  45.3683205  12.3246241   4.2490687  49.6135712  54.8736725  29.2791595
  50.0968552  55.2628593  28.5503235  49.3212471  54.0249939  28.9467010
  56.2981911   1.1301243  65.4128418  56.4321518   0.7652021  64.5381317
  55.8704109   0.4276451  65.9024963  25.8547173   7.6544318  86.6076736
  25.1616707   6.9949198  86.5766525  26.6129265   7.2238669  86.2127457
  51.7155533  49.6395493  31.5591431  51.0297508  49.8617249  32.1888580
  52.4158821  49.2616692  32.0911026  62.9145393   0.5354057  62.6263504
  63.5183220  -0.1834037  62.4392891  63.3298645   1.0170465  63.3417244
  61.4908066  36.0415039  46.7746735  61.9203148  36.6785812  46.2038116
  60.6205826  35.9263268  46.3929939  82.0242081  67.9250870   1.9266547
  82.8119125  67.4580994   1.6479592  81.3916321  67.7672729   1.2258155
  46.8977394  46.3050346  17.0115566  46.4007950  45.5016556  16.8570900
  46.7712479  46.4897118  17.9422169  21.8880959  53.2558937  77.1035843
  22.1442490  53.1731987  78.0221634  22.7112770  53.1947899  76.6189499
  42.9951324  20.0327206  72.8594208  43.8837509  20.2062874  73.1700058
  42.6274300  20.8998375  72.6887207  21.8845463  33.2317390  25.3231983
  21.2208748  33.0329552  25.9836960  22.5007801  33.8121529  25.7699757
  19.2284756  63.6678391  17.2584877  19.1981831  63.6629524  18.2151947
  18.7958927  62.8537140  17.0009956  36.8152580   2.8648145  17.5629444
  37.6751747   3.1641369  17.8582115  36.2347832   3.0346534  18.3048592
  49.7707596  40.5766144  37.3596458  50.3742867  39.8860474  37.6337051
  49.3627739  40.2360916  36.5635185  58.9753647   9.0909138  48.5481033
  58.6232948   8.2834530  48.1735535  59.7172737   8.8043060  49.0806999
   1.6648557  23.0051823   9.4354315   1.8294436  23.4804249   8.6210070
   1.4310710  23.6856308  10.0667515  58.8502235  63.4929352  46.3008461
  58.9894867  64.2019119  46.9286919  57.9105606  63.3157768  46.3441696
  84.2871017  37.4434013   2.7963409  84.9382095  38.0373955   3.1697857
  84.0948029  37.8106575   1.9335685  82.6819916  20.8089752  32.1487083
  83.4557724  20.3915882  32.5272331  82.1663818  20.0833092  31.7968712
  76.3115158  58.4847336  32.7514191  75.8159637  58.5208359  31.9332771
  77.2081604  58.2884407  32.4798775  80.3761368  24.5083408   2.5498099
  81.0206909  25.1494637   2.8493755  80.2458649  24.7142391   1.6241390
  13.7873440  27.0953388  12.1908636  14.3481054  26.5425034  11.6466656
  13.5812235  26.5521374  12.9515734  67.9186478  40.0884438  67.4147415
  67.2451706  39.4347610  67.6027908  67.5401840  40.9151649  67.7139664
  59.8520584  56.0655289  82.6489029  60.4571152  55.4300308  83.0313721
  59.7513733  55.7832947  81.7398148  13.0308485  62.5586357  22.6449471
  12.5019999  61.8844032  23.0715141  13.5643291  62.0792007  22.0110931
  24.3258820   3.1509836  75.6274567  24.6234245   2.2784512  75.3698044
  23.5873680   2.9885843  76.2143631   4.4907684  55.4731941  43.6418076
   3.5484681  55.3137321  43.5882034   4.8698449  54.6119194  43.8171349
  32.7356071  19.8325748   1.0437245  31.9796143  19.2601700   0.9131148
  33.0319099  19.6388359   1.9330511  60.6037178   8.7360334  36.4060326
  60.5096550   9.5516548  35.9139481  60.7008514   9.0153894  37.3163948
  12.3005934  14.4064713  66.9827652  11.4896545  14.8590984  66.7509460
  12.2293110  13.5531549  66.5549774  33.0531044  35.4823875  83.9110260
  33.1537132  34.6159363  83.5168533  33.4372025  36.0824089  83.2717514
  81.8112946   1.9009655  71.8511276  81.9939499   2.2549460  70.9807434
  82.6367569   1.5013165  72.1252213  27.6111202  13.7315550  82.8833694
  27.3974113  14.1997385  82.0762939  28.4348412  14.1217699  83.1756821
  38.2617874   8.6305952  79.0942383  37.4194489   8.6613617  78.6406326
  38.0704613   8.1962843  79.9254990  18.9680824  30.1129894   9.7239847
  19.5539589  29.3587074   9.6604385  18.6844959  30.1196442  10.6381865
  85.4173584   9.2282600  65.4516983  84.7684555   9.9319296  65.4486084
  86.2415390   9.6634426  65.6698074  76.7243652  51.0550537  16.4511395
  76.2174530  51.4102287  15.7209921  76.3201904  51.4356613  17.2308865
  37.3585815   4.7363691   2.7106564  37.2895355   4.3686814   3.5917187
  38.0274315   4.2035861   2.2805207   3.2200577  21.6937790  78.5072250
   3.5927420  22.5748672  78.5391922   3.4890022  21.2898846  79.3323135
  53.0675659   3.4349627  64.5368652  52.1607323   3.7364099  64.4820099
  53.5770798   4.2328854  64.6781082  83.6731949  68.2240448  59.3023796
  84.2612076  67.5080872  59.0618057  84.2530746  68.9714966  59.4482498
   5.9183979  64.6213837  46.1906548   5.8968453  65.0792770  45.3503609
   5.7394676  65.3023224  46.8391418  29.6450996  21.5673313   9.3147783
  28.9677658  22.0997963   9.7318316  29.7027435  20.7828655   9.8602324
  45.6583824   0.7182732  19.0654678  45.9405479   0.0797069  18.4106026
  45.0723686   0.2274932  19.6416245  14.3918934   0.3562130  73.1505127
  14.3395367   0.1706440  72.2129364  13.7558880  -0.2383822  73.5482407
   3.2211881   0.5788556  73.5976028   2.4968863   0.7793528  73.0047989
   3.9481838   1.1123493  73.2765198  30.3340263  41.0133781  74.9005966
  30.4737644  40.0801468  75.0611725  29.5770111  41.0450401  74.3156586
   3.0435653  32.0504112  78.9579544   3.0962708  31.1762238  79.3442764
   2.9487512  32.6381798  79.7074661  52.9850693  42.5282669  23.7061520
  52.0373917  42.6628876  23.7021999  53.1181450  41.7463150  23.1703587
  27.1149273   2.0601518  53.3353500  27.6304455   2.6465387  53.8890839
  27.1350899   1.2195407  53.7927322  52.6960258  69.7161331   5.3726006
  51.9375572  69.2748871   5.7550459  52.3392792  70.5182648   4.9911032
  41.2144165  39.3186493  67.1204987  40.2794571  39.2134514  67.2966080
  41.2653694  39.4634552  66.1756897   3.5577369  23.4636421  88.7895203
   3.5349810  22.7300720  89.4040070   4.3311019  23.3000240  88.2497406
  58.9048882  33.1110992  21.5190086  57.9868546  32.9612427  21.7448196
  58.9862480  32.7895546  20.6211109   4.5041933  55.6824036  17.4395885
   4.3452902  55.7739067  16.5001144   3.7255733  55.2356186  17.7718010
  62.5092201  12.1153736  49.6547775  63.0818939  12.7814445  49.2744789
  62.5727005  12.2559719  50.5994644  63.2940216   9.4987688  12.5986052
  64.0289307  10.0908279  12.4385872  63.5097122   9.0672598  13.4253511
  13.3565350  44.0438652  13.9855719  12.8481264  44.5542107  14.6158905
  13.7785530  44.7000313  13.4309740  53.6758232   0.3299483  30.9353046
  54.1029205  -0.0857683  30.1863060  54.3691330   0.8407026  31.3532543
  43.9023895  55.3396378  42.3922234  43.8973236  56.2954979  42.4425888
  42.9769936  55.0961914  42.3674927  22.1119480  11.1848049  38.4268036
  21.4763241  10.6314163  37.9729576  21.7720795  11.2580585  39.3186264
  29.9121742  16.2029743  28.3513165  29.0933838  15.8239727  28.6709633
  30.1347656  15.6783667  27.5822449  65.7991257  21.1881866  35.5432663
  65.5032501  22.0922737  35.6496315  66.7416611  21.2607517  35.3929405
  26.6438046  57.8891907  19.9084930  25.7742710  57.8850403  20.3086529
  26.6848812  58.7191696  19.4334354  76.2611465  32.1373825  79.8706055
  76.1190643  31.5452042  79.1321182  76.6128540  32.9344978  79.4741974
  30.5571499  61.0616035  43.2027779  31.2218552  61.0060272  43.8893013
  30.6805801  60.2660980  42.6849289  79.8780899  58.0018196  67.7693329
  79.3221970  57.3574066  68.2074585  79.5434723  58.0369949  66.8732224
  23.9025249  15.5911121  78.3713455  24.2072754  16.2338543  79.0118484
  23.6699753  16.1111965  77.6021500  19.9953213  25.1479492  80.5580063
  19.2741985  24.6983910  80.9985886  20.3891735  25.6934204  81.2388687
  76.4689941  36.5264397  16.2405949  75.8152237  37.2125740  16.3748970
  75.9685745  35.7800217  15.9109421  41.0540543   3.2799516  48.1238518
  40.2470055   2.7679186  48.0716324  41.7210770   2.7163408  47.7318611
   9.7949238  29.8926697  72.7468338  10.4277763  29.4206581  72.2055969
   9.7082081  29.3575344  73.5357208  74.5961914   4.1333680  53.3887787
  75.1533432   4.8872757  53.5822716  75.1316071   3.3742979  53.6198196
  70.4180603  28.7003918  73.3668365  70.3222122  28.2129898  74.1850586
  71.3634567  28.8053608  73.2599182  56.5000725  40.8323822  15.6429529
  56.5512085  40.1704559  14.9534092  55.5719948  41.0628204  15.6854019
  86.4764175   0.2997216   2.3146677  86.3663406   0.6163312   1.4180779
  86.5754395  -0.6479736   2.2235577  79.2425690   1.3817866  14.7782021
  79.2134933   0.5245744  14.3532629  79.0966187   2.0063927  14.0677118
  59.2815552  42.6546936   9.0873528  60.0026703  43.0863533   9.5454922
  59.7084427  42.1256447   8.4134789  47.4333229  59.0469398  14.4146023
  48.2185364  59.5942116  14.4016247  47.6351089  58.3244133  13.8200712
  17.8316345  29.8588486   5.6436949  18.1295815  30.3459320   6.4119449
  16.8790016  29.8305321   5.7326841  63.6521606  25.8544502  37.3516502
  64.4043274  25.2674351  37.4283524  63.7358971  26.2382412  36.4787674
  18.3790073  46.4107666  63.7479515  18.6919537  46.6676216  64.6153183
  17.4286861  46.5149040  63.7956696  37.0509872  52.0653610  61.1497421
  37.1298332  52.9822311  61.4131203  36.3115387  51.7327576  61.6584892
  83.0261459  33.5924759  65.0726089  83.3765259  33.0682945  65.7928162
  82.2174377  33.1456413  64.8224945  19.1071758   7.8374805  77.6602936
  19.0679092   7.9212804  76.7075729  19.4100266   8.6933079  77.9637222
   9.7033272   0.6544119  61.5832863  10.3509197   0.3313421  62.2097702
   9.8158293   0.0967679  60.8134766  60.6430664  38.1382599  13.5315371
  60.5235367  38.0408287  14.4762344  59.8545113  37.7530975  13.1493587
  19.0211525  45.2355385  40.7619858  19.1235600  45.9343452  40.1159134
  18.0959301  44.9956169  40.7106819   2.8119497  30.4452343  38.7266006
   3.2101095  31.2737446  38.4596367   1.8951874  30.6632481  38.8946762
   3.4121838  61.9781227  15.5639601   3.6817372  61.3299904  14.9131927
   2.6861262  62.4450989  15.1504297  34.6825142  44.9428482  81.0433960
  34.3597755  44.4739609  81.8129501  35.4179726  45.4612999  81.3698120
  66.1064987   3.1317875  22.9950085  66.9376755   3.5890279  23.1227188
  66.0440674   2.5354691  23.7411575  39.1861382  43.8699951  59.6501770
  38.9164886  43.0749817  60.1100426  38.8626251  44.5850563  60.1981392
  25.2454281  59.4248161  33.4206467  24.8746586  59.0397072  34.2146568
  25.1363792  60.3684311  33.5386581   1.0022526   1.4906087  88.2239075
   1.3098760   1.9084138  89.0282974   1.7967885   1.3463510  87.7099686
  28.0974770  68.2070999  58.4479942  27.8234406  68.9574661  58.9753265
  27.6924114  67.4528275  58.8760414  53.7890358  58.7229385  65.8955612
  54.3541985  58.8655891  65.1363068  54.0499916  59.4006844  66.5190964
  12.4408350  57.7605858   7.9230037  12.0068979  58.0226135   7.1110473
  13.1855803  57.2318001   7.6366982  12.5656967   0.9047331  77.3956985
  12.9289579   0.1657782  76.9076157  11.7324734   0.5799520  77.7369995
  35.5293159  39.2697144  68.9325104  34.7905731  39.6392097  69.4162064
  35.2448158  39.2768250  68.0185928  16.9698792  27.5046425  13.0025082
  17.5971794  28.2263412  13.0458326  16.1495609  27.8808441  13.3215389
  67.5246964  51.7679672  37.1725388  66.8650360  51.0743942  37.1672783
  67.6753235  51.9482231  38.1004677  84.9977264  42.9128799  31.6619701
  85.1016006  43.3301392  30.8067875  85.8286514  42.4615936  31.8107910
  57.0441208  24.3056393  84.0418015  56.7483292  24.6788807  83.2114792
  57.6886673  24.9325409  84.3701019  69.5513382  65.8466568  78.7764587
  69.7889404  65.1334000  78.1839676  70.1030350  65.7118149  79.5469666
  54.1146088  67.5414505  81.0944595  53.3129311  67.9502106  81.4207458
  53.8320961  66.6871796  80.7678986  60.9942436  69.7157745  59.1638641
  60.9091454  70.5145721  59.6843491  61.7707939  69.2814941  59.5168495
  73.3100586   2.3839040  27.6705704  72.4833069   2.7245643  27.3290195
  73.0790176   1.9967920  28.5149612  10.0963421  49.8797188  13.3816328
   9.4307432  49.2525597  13.6642675   9.6297293  50.4770584  12.7970934
  59.7203178  40.8976326   5.4904966  60.1419182  40.8556023   6.3488207
  59.2766838  40.0542870   5.4000063  46.5966873  21.7750225   7.7005162
  45.6758461  21.5330601   7.6018262  46.9076347  21.9045849   6.8045497
  64.0241623  71.1905136  30.6992321  64.5459824  71.8223724  30.2045746
  63.1201363  71.4823990  30.5818825   2.1015010  15.7135868  49.9873581
   3.0314202  15.8782978  49.8313103   1.7006682  15.7624683  49.1195030
  78.8740768   9.3735723   9.0112190  78.1299057   8.9322948   9.4207516
  78.4994125  10.1637735   8.6220617  65.0929108  47.1958733  60.6349564
  65.0853348  48.1468163  60.7439690  65.5833282  47.0514603  59.8257179
  84.2151718   7.1038699  43.4704971  84.1017990   8.0471611  43.3539543
  83.3881683   6.8084898  43.8513603  58.4099464  69.1078873  52.6420593
  58.3710060  68.8377304  53.5595169  59.3213425  68.9626465  52.3880920
  21.2622089  35.7669716  70.5141754  20.3366375  35.5628967  70.3803787
  21.7298279  35.0923996  70.0217209  79.1194077  60.7197800  49.9476013
  79.3309021  61.3957748  49.3037605  79.7736588  60.8326797  50.6371269
  46.3193092   8.5579119  41.2392540  46.7968407   8.6214819  40.4121170
  45.5234795   9.0702248  41.0963440  72.8542252  59.7246971  11.9067430
  72.1014023  59.1409721  11.8131742  73.5185013  59.3538513  11.3258495
  81.0628738  52.2970276  74.5504913  80.1667709  52.6190910  74.6479340
  81.5015259  52.9650688  74.0236740  31.2837505  62.8386192  83.5608826
  30.3320236  62.9408226  83.5605087  31.4530411  62.1743317  84.2289352
  54.9413071   2.1763382  25.4457359  55.4320107   1.3548299  25.4695225
  55.5907097   2.8362784  25.2028561  81.9134445  26.2123604  62.9023552
  82.4816132  25.4505730  63.0167961  82.0462494  26.4755573  61.9916840
  64.7380981   5.1092935  79.0783234  65.3296509   4.4820595  78.6625366
  65.1805191   5.9531026  78.9862289  39.0132446  64.6328659  35.4809875
  39.9556503  64.6932068  35.3245811  38.7204628  65.5426636  35.5336990
  47.2133026  68.7767792  54.8099480  47.3409195  69.5871658  55.3031158
  46.4642181  68.9574280  54.2420807  22.2652836  27.8281689  17.5675430
  22.5333328  26.9245796  17.4004841  22.3694267  28.2687130  16.7241516
  84.5381546  48.5107422  75.1509094  84.5582962  49.0897446  75.9128723
  83.7794342  48.8046570  74.6467438  69.1461334  41.4285011  15.4655199
  69.5235748  40.7070618  15.9688053  68.5817566  41.0014305  14.8210640
  34.2261238  13.4716206  83.1610031  33.7813377  14.1980410  82.7243042
  34.3673706  13.7805014  84.0559235  26.1712608  55.9838371   1.0915774
  25.9284019  55.8728065   2.0107751  26.4140530  56.9067879   1.0177935
  55.1698914  39.3870239  71.0271454  55.0323906  40.3318787  71.0947800
  56.1138153  39.2907944  70.9007492  19.7714157  64.7306595  64.8082199
  20.2159023  64.1549149  65.4304581  20.4199753  64.8879547  64.1220245
  66.0919113  12.1361084  33.1313858  66.9972534  12.2553596  32.8443909
  65.7184143  11.5237274  32.4975700  46.4455223  36.5035324  80.0522308
  46.4601173  36.3603592  79.1059113  46.5548172  37.4491043  80.1531219
   9.3816757  34.4744453  55.9116364   9.7533216  34.9279404  55.1550293
   9.1849489  33.5944252  55.5905533  56.5269432  17.3644848  79.6054535
  56.3881226  18.1132240  80.1854095  57.4775925  17.3102684  79.5076904
  11.3927164  41.7096252  86.6807327  10.7157507  41.6764717  87.3566360
  11.4187145  40.8217506  86.3240280  20.1468086  59.3184929  38.7383614
  20.3585243  58.7864723  37.9713135  20.7414379  60.0665092  38.6825523
  46.3590355  13.7347031  51.0600014  46.2180061  14.3113899  51.8108521
  46.9758873  13.0750570  51.3771667   2.0515277  63.9859772  54.5025063
   2.5639467  63.2688446  54.8758354   2.0578673  64.6626358  55.1795044
  78.8904572  60.5413399  27.6816978  79.2676315  59.9436989  28.3272972
  79.2261429  60.2290993  26.8414268  11.7355194  49.5944862  53.9397430
  11.5492887  49.2937737  54.8291893  12.6905689  49.6436577  53.8985748
  16.5380459   5.2651215  75.6965942  16.4373627   4.3765502  75.3552246
  15.7005615   5.4557009  76.1191254  72.5864868  54.9539070  10.6801033
  72.6433792  55.5056763   9.9000111  71.7286758  54.5342484  10.6145973
   9.7058296  65.9873428  51.7929039  10.3967638  66.4101791  51.2829590
   9.3304729  65.3394089  51.1966476  52.1786842  37.3143501  75.1546860
  52.3258705  37.3708420  74.2105560  52.2901840  38.2117157  75.4685898
  81.9696121  18.4230251  79.7765579  81.3044815  18.3216038  79.0957184
  81.4851227  18.7378120  80.5397110  60.5750961  20.2168331  67.1960220
  60.1165733  21.0044632  67.4886475  59.8970718  19.6866512  66.7771912
   3.3024743   4.6062355  65.8158951   2.7667255   5.3983560  65.7740555
   4.0807853   4.8159556  65.2996750  21.2279682  24.1528282  58.7746887
  20.6086750  24.4764385  58.1204834  20.8017883  23.3806305  59.1465912
  11.7877445  28.3211403  57.6492691  11.3574495  29.0771523  57.2498627
  11.7606468  28.4991398  58.5893860  29.5310326  19.1447716   0.1314680
  29.3836575  20.0765514   0.2936327  28.6990566  18.8284111  -0.2206169
  16.5448227  53.7652283  25.8166962  15.8491526  53.9737625  26.4402256
  16.8537159  54.6172600  25.5086937  82.3720474  49.8143387  17.9284725
  81.4492722  50.0462608  17.8239498  82.7420197  49.9019432  17.0500183
  49.4458885  12.2354765   0.9681126  48.5106430  12.3894997   1.1016128
  49.8698311  12.6905689   1.6957093   7.2605262  69.6702042  74.6435318
   7.7058601  69.1369858  75.3020096   7.3397231  69.1661682  73.8336487
  29.7906418  17.2327442   9.3632994  29.6660366  18.0085812   9.9099073
  30.7067394  16.9898529   9.4974613  49.2566643  42.8927040  87.8236847
  48.6685371  42.1412010  87.8984375  50.1073456  42.5605545  88.1104736
  54.5944824  17.5471230  77.7782211  54.8978996  16.6890392  77.4818039
  55.2421913  17.8186760  78.4285736  38.9152679  37.8217506  47.3806419
  38.3063774  38.4314346  46.9637871  39.7373123  38.3083305  47.4415436
  77.1639862  22.4042625  29.6838856  76.4645004  22.2556038  29.0476036
  77.1205292  23.3415947  29.8729744  86.7236176  32.4313431  76.0711288
  85.9371185  32.9346542  75.8605804  86.4248123  31.5225658  76.1037827
   6.2784438  11.2343769  10.2607479   6.5301490  11.5244656   9.3839779
   6.9053869  10.5430613  10.4734859   7.1487870  48.2471581   6.7002211
   6.6501312  49.0531311   6.5661268   6.5063796  47.5465240   6.5876966
  67.6794586  31.5069599  59.7921333  68.0580063  32.1694183  59.2141342
  68.3162842  30.7923622  59.7868462  85.7324295  54.3875961  15.3735456
  86.2572784  53.5918274  15.4602041  86.0384521  54.7889709  14.5602331
  31.2561531   1.2061431   1.9904165  30.4278641   0.8991739   1.6217172
  31.1988583   0.9897757   2.9210799  10.9342346  64.7229919  33.8577881
  10.2534790  64.0512924  33.8175125  11.7295799  64.2442398  34.0911522
  63.1052818  46.9903259   7.1476827  62.4008446  46.7389641   7.7450233
  62.8772011  47.8768768   6.8679700  45.1935883  31.5145187  56.0666046
  45.0407066  32.2093201  56.7070045  44.5150909  31.6457157  55.4042931
   1.3705802  40.2593002  84.0162354   1.1409672  41.1768456  83.8691940
   2.0237920  40.2849541  84.7154388  61.6973305  65.9285431  78.6668701
  62.3834000  65.6567917  78.0572052  61.6815491  66.8832474  78.5996094
  86.1308441  15.3446808  19.4946098  85.2581177  15.7180271  19.3713722
  86.3973007  15.0644484  18.6189938   7.7886119   1.2757274  33.5240364
   7.4199829   2.1274984  33.7581978   8.1029196   1.3891826  32.6270599
  80.2730713  19.8440094  38.4712639  80.8819427  20.0659485  39.1757088
  79.9962769  18.9488697  38.6670761  62.5103264  17.8484612  44.4054832
  63.1284561  17.1753082  44.1208611  63.0356178  18.4466953  44.9369125
  74.4290924  32.7793465  11.8342972  74.1233978  32.0804558  11.2560806
  73.7510147  33.4524117  11.7757444  36.8476334   0.5198830  63.4069061
  36.4562683   0.2645121  64.2422791  37.0768585   1.4421043  63.5217743
  51.1676254  28.6075020  81.3527374  51.5220795  27.8974686  80.8175278
  50.6310883  28.1661911  82.0112228  38.2279816  58.0562134  44.4178009
  39.1238060  57.8746986  44.7020340  37.8736000  58.6316986  45.0956306
  57.9813690  16.9755821  43.8048477  57.3747711  17.7155571  43.8314247
  58.7520752  17.3139229  43.3490219  57.3260841  23.2531166  46.2164803
  57.2583351  22.7014675  45.4371719  56.9991760  24.1073875  45.9343719
   8.5022306   4.1758642  59.8777695   7.8621092   4.8701320  59.7213440
   8.0376434   3.5398440  60.4217072   7.6326394   5.8730812  79.0872879
   7.9999976   6.6680756  78.7009430   6.6896057   5.9500508  78.9423904
  41.9547577  67.5325623  21.0733604  41.8400955  68.1578369  21.7889824
  41.5236664  66.7351074  21.3806953  53.6233826   2.9867027  42.5507088
  52.8648224   3.0469470  43.1313896  53.2625732   2.6895707  41.7153893
  69.5826187  39.8586159  52.1994972  69.0231400  39.6143417  51.4622421
  70.2744217  39.1970863  52.2046585  70.7064590  66.0507202  35.1136780
  70.9932861  66.8193665  35.6067810  71.2701035  66.0383835  34.3401222
   5.3146052  60.7400360  28.9925938   5.2877126  61.6795311  28.8113117
   6.1700606  60.4580078  28.6687317  69.7528000  36.9339676  31.8260632
  69.7351761  37.7805939  31.3798065  69.0122986  36.9669876  32.4316940
  72.8981171  54.3109970   7.3800631  72.7064209  55.1950340   7.6930547
  73.8307571  54.1906281   7.5587630  69.3478546  38.1333885  65.6631699
  69.3482513  37.8750877  64.7414780  68.5942230  38.7174149  65.7479172
  76.0045853  66.0630341  43.9402924  75.8373947  65.6587601  44.7916718
  75.7515106  65.3943939  43.3038139   4.9453754  67.2518311  46.9959221
   4.0312390  67.3034973  47.2750587   5.0945106  68.0644531  46.5125694
  82.8936157  70.4509735   9.0762682  83.3037720  70.2848129   9.9250269
  82.5180664  69.6078568   8.8225822  67.9163284  26.1567383  59.7446022
  67.8356476  25.7777882  60.6198845  67.2802582  25.6752834  59.2155952
  54.2027206  32.4081497  77.0905762  53.3075104  32.5432663  76.7798157
  54.6570053  32.0115700  76.3472214  83.1140137  47.8332977  52.1403198
  82.6144028  47.1705093  52.6171150  84.0174942  47.5183868  52.1684380
  44.2914085  62.0408096  58.8199234  43.8477936  62.0345650  59.6680946
  43.7803574  61.4397507  58.2779045  79.7655869  20.8063660  64.1769638
  79.8058929  21.3403645  64.9703369  80.6123810  20.3612556  64.1445618
  72.0843201  71.1743088  34.7354965  71.2635651  71.6613388  34.6620445
  72.2656555  71.1508713  35.6750717  66.5385513  48.3799553  68.5753632
  66.6393814  49.3248062  68.6907883  65.6064377  48.2588921  68.3944092
  54.0373878  71.2999649  74.5868683  53.8830948  72.0674133  74.0360107
  53.2967262  70.7216187  74.4047623  79.4324265  44.9447250  66.8926926
  78.5541382  45.1699028  66.5858688  79.8878937  44.6359100  66.1094818
  71.5666733  62.1807404  16.3169689  70.8699493  61.7435608  16.8065472
  71.1360703  62.9295807  15.9045906  58.4896889  41.6642952  57.0866470
  59.0259171  40.9675789  56.7081223  57.7025604  41.2179565  57.3987923
  26.3445148  45.5205574  87.2151108  26.6451054  46.4071541  87.4146652
  25.4016514  45.5448990  87.3783569  79.6396484  63.3470192  76.3981171
  80.0948181  64.1191635  76.0621796  79.1418457  63.0179405  75.6496964
  32.2944832  67.5580750  65.4061203  33.2158546  67.7012863  65.6224442
  31.8898697  67.3063889  66.2362823  64.6247406  11.6322145  41.3171005
  65.0652771  12.2385778  41.9124870  65.2913361  11.4070797  40.6681023
  20.3552055  37.6194916   4.5710683  20.3677139  36.8052750   5.0741820
  19.7233925  37.4583435   3.8702998  61.6943893  62.6490669  38.0414009
  60.8290062  62.4646187  37.6762657  61.6734238  62.2597809  38.9156151
  57.9848022  10.9464169  18.0710449  58.5903015  11.4609327  18.6047859
  57.8359871  11.4833612  17.2927284  40.0030060  18.6553707  78.4592514
  39.2550468  19.1077118  78.8493500  40.5582733  18.4244633  79.2039642
  57.5487595   6.8419228  39.1495132  58.0075912   6.0438795  38.8871536
  56.9635849   7.0336776  38.4166908  43.9431686  61.2690773  14.0493202
  44.3502312  61.0094681  14.8758402  44.0532341  60.5084000  13.4788055
  82.6186752  59.9103699  71.1607285  82.4103394  60.7982407  70.8700180
  82.2636642  59.3444138  70.4752426   8.0310078  24.4664402   2.8214765
   7.9774737  25.3196545   2.3909049   8.0631466  24.6713276   3.7559390
  71.1584549  34.4171410   2.3415697  72.0365295  34.4257774   1.9605931
  71.0489273  35.2934532   2.7107728  71.3362885  64.8249435  18.8359241
  70.3929901  64.9717407  18.9056587  71.7296753  65.6132736  19.2101250
  67.1161728  13.6133356  77.2125549  66.7222900  13.2434111  78.0026474
  68.0310211  13.3339691  77.2476578  51.6476860  48.5451736  76.0553207
  51.3424339  49.0520592  76.8077316  50.9688721  47.8838577  75.9207458
  19.9860611   2.0381827  60.7732849  19.4013653   1.6891432  61.4459915
  20.3875256   2.8061287  61.1798782  66.1678543  13.2491856  42.7286949
  66.7361984  13.0587626  43.4749908  66.5774841  14.0014706  42.3014946
   5.4937339  17.3637619   5.0653596   5.6463485  16.8912354   4.2470322
   5.2331848  16.6855431   5.6885495  26.4060860  49.8950615  50.8636665
  25.4592686  49.9237976  50.7260246  26.6053867  48.9642296  50.9640007
  23.9656982  58.2182808  20.8927803  23.7325878  57.3644257  20.5283318
  23.8257236  58.8325729  20.1721649  73.5698700  66.2655716  85.6421127
  72.7960129  66.0497971  85.1217194  73.5770187  67.2221680  85.6753922
  39.0180817  41.4161377  61.0815887  38.4425468  41.2168274  61.8200111
  39.5058441  40.6061134  60.9326477  31.1728535   7.0661697  11.8998947
  31.4874878   6.5641689  12.6517143  30.5639591   6.4760685  11.4557562
  65.1445694   2.3875854  46.1653709  64.4943237   2.4505923  46.8649788
  65.4850388   3.2775047  46.0739708  83.5249329  13.4928646  26.6223106
  83.4052353  14.3272467  27.0758648  83.8728409  13.7345905  25.7639618
  33.8819275  24.9273720  12.9464769  33.9909477  24.0385818  13.2847090
  34.4504013  25.4649124  13.4979477  33.0539055  52.0641098  68.6164551
  33.7193527  51.5364494  68.1748810  32.2218208  51.7274818  68.2839661
  81.7539749  13.3944778  32.1392975  82.0652924  12.5648890  32.5013657
  82.4992371  13.7343493  31.6440220  54.9742355  37.1403618  44.3957558
  54.9121056  36.1981430  44.2389412  54.0885811  37.4681015  44.2394295
  24.9244080  23.9592876  11.9682512  25.4698048  24.4926987  11.3901100
  25.3226452  24.0594482  12.8328934  85.8618164  58.0441628  84.2015533
  86.5433731  57.8960838  83.5459824  85.0407791  57.9124832  83.7274323
  53.8759270  41.3392944   5.8257632  53.7411804  41.6186256   6.7313285
  53.9154587  42.1552010   5.3268008  66.2630768   2.0275445  84.6156616
  66.3117599   1.6965766  83.7188263  65.6099625   2.7262974  84.5779724
  48.4712105  41.1075211  69.8360825  47.8815155  41.6555557  70.3539124
  48.4836388  41.5190659  68.9719620  40.3646698  19.9786301  69.0472641
  40.5703316  20.2207699  68.1443176  40.3701363  20.8081474  69.5248642
  38.0688057   4.2616897  21.2224026  38.6120987   3.9902527  20.4825478
  38.6865005   4.6444564  21.8454380  71.8746719  33.1497726  77.5585251
  72.0597382  32.2201614  77.6919708  71.6426315  33.2172432  76.6323318
  37.5131493  33.8896217  73.3230820  38.1775551  33.4089355  72.8293839
  37.7634926  33.7714882  74.2393799  22.4614639  56.7931709  55.9357529
  21.9848747  57.2694778  55.2558823  21.7782688  56.4521675  56.5129814
  60.9818993  67.9206467  51.9811440  61.3849449  68.3403320  51.2211113
  61.6969032  67.8279190  52.6107521  77.5928574  50.0695381  44.6589165
  78.4796066  49.8019943  44.9004402  77.4787674  50.9239693  45.0750427
  47.3393478  70.5990524  80.5733490  48.1933136  70.9906082  80.7567978
  47.4071083  69.7066727  80.9129028  56.4119568  45.6744423   3.3045211
  56.5969543  46.5657158   3.0084891  57.0776253  45.1366234   2.8757198
  52.3612404  59.8735352  63.5414658  52.5703812  58.9421959  63.6128845
  51.4062195  59.9007492  63.4829559  51.8891144  44.1613083  71.1363907
  51.1482887  44.7634621  71.2058258  52.4776230  44.5772591  70.5064163
  52.0115318  24.6769924   8.6487684  52.5004120  25.0100517   7.8962417
  51.0958786  24.8630180   8.4408970  52.5418625  66.2024384  70.0326691
  53.0039940  66.0781937  70.8616638  51.6444206  66.4156418  70.2883606
  71.5637817  11.9660892  63.5397301  71.7061844  12.4176512  62.7078362
  70.6529770  12.1575775  63.7633514  11.7821674  19.4438381   5.5444331
  12.0732803  19.3667889   6.4530301  12.3886929  20.0711746   5.1509776
  53.5900078  58.8624039  26.8473892  53.7204628  58.5401039  27.7392044
  53.9932327  59.7305260  26.8450718  66.3902740  45.5104446  52.4909973
  67.1950684  45.9737434  52.7231712  65.7039490  45.9613609  52.9827957
   8.3542376  41.8171997   7.0078788   7.5542130  41.8431664   6.4829803
   9.0286360  42.1819000   6.4348068   1.2266660  54.6204834  65.2162628
   1.8465571  54.0035286  64.8272476   0.8836154  55.1162109  64.4727554
  65.6586304  42.9182587  17.5291328  65.1757584  43.5856361  18.0166473
  66.1624069  42.4519424  18.1962109  85.9373703  10.0914526  53.6164856
  85.4720764   9.2625666  53.5038872  86.8314209   9.9051113  53.3297958
  10.8851223  52.0462265  78.5950241  10.6895628  51.3489227  79.2209244
  10.1997337  51.9712486  77.9310532  22.7480698   2.6334546  11.1779852
  22.2483234   2.8517225  10.3913183  22.1891956   2.9145832  11.9024563
  43.5180092  46.6498032  88.5939865  44.4593201  46.8215523  88.5681839
  43.3624649  46.0569916  87.8587189  60.3347855  35.0895309  63.4228058
  59.8347473  35.8547020  63.7069016  60.8854027  34.8706245  64.1745605
  60.0331573  38.8547935  75.7531586  60.8350334  38.5793152  76.1973877
  59.5107117  39.2714195  76.4385147   4.2766418  16.1556587  79.6300201
   4.0209346  15.8587971  80.5033569   4.4401321  15.3490820  79.1412048
  27.3255901  51.4700966  72.1566696  27.3699036  52.2190628  71.5622635
  27.5414600  51.8329811  73.0157013  36.6777954  24.0568466  73.7864914
  36.0677681  23.3275490  73.6759491  36.1217079  24.8017521  74.0147705
  62.9494171   7.6186461  29.9273834  62.6453552   6.8292756  30.3753471
  63.0979881   8.2508898  30.6305389  17.5628471  12.9146967  86.9452133
  16.6173592  13.0620050  86.9210434  17.6571331  12.0147486  87.2573624
  74.3721313  61.9399147  78.0308762  73.9551239  62.5566635  78.6325073
  73.7326813  61.8208694  77.3286209  53.6494141  32.9369774  89.1284180
  52.7475090  33.1680565  89.3506851  53.5660210  32.3124237  88.4078598
  31.0996914  61.9172478  74.2026825  31.1423092  61.1962929  74.8308868
  31.7394657  61.6862411  73.5292206  14.5959110  48.1611977  23.1721497
  15.5485897  48.2104721  23.0933590  14.3615179  47.3422241  22.7356033
  58.6142921  17.3638458  52.5091515  59.5158806  17.4437408  52.1977310
  58.0776711  17.5243416  51.7329369  11.6719360  50.6611328  41.4953537
  12.2557659  51.4194298  41.4763947  12.1324902  50.0176735  42.0339470
  63.9335251  37.2682686  41.4324455  63.5782089  37.2487526  40.5438499
  64.4518204  38.0723267  41.4655457  68.1932831  17.5530338  39.8135414
  67.6611557  17.6196861  40.6064034  67.6968765  16.9688644  39.2403374
  56.5251198  65.1445847  62.6066895  55.7696342  65.6831360  62.3712578
  57.2677803  65.7477493  62.5770950  73.0624695  51.5178795  32.5736732
  73.0358276  52.4738541  32.5332489  73.6414795  51.3253860  33.3111877
  33.9641647  66.2955399  61.2458305  33.7850075  67.1509399  61.6362572
  34.1952553  65.7371216  61.9881248   6.7242265  22.9648399  50.3469505
   6.9249763  23.8778801  50.1413040   6.0541406  22.7175503  49.7097206
  82.4212723  44.7889023  29.7583065  82.4605331  43.8686180  30.0186234
  83.3028183  44.9860878  29.4417343  68.5880737  14.8248339  11.6105690
  68.4367142  14.1445227  10.9544449  67.8479385  14.7460442  12.2124195
  29.1405315  24.4699459  79.7099915  28.8745766  25.2514153  79.2254257
  29.9759235  24.2171822  79.3169785  60.0119438  16.1197605  75.3070145
  60.4482040  16.0295391  74.4598007  59.4222794  16.8653374  75.1945801
  50.6371155   9.4307337  57.3582687  50.3081207   8.9308081  58.1053085
  50.4107933  10.3387880  57.5593796  47.1795464   3.3063836   2.1593659
  47.7068863   3.9321558   2.6559076  46.3009033   3.3857756   2.5307372
  61.5946159  57.7931328  33.3661804  61.2292290  58.5718002  32.9461746
  61.7857552  58.0715065  34.2618408   9.5178213  42.2380371  83.5916138
  10.3781195  42.6468620  83.6863708   9.3931808  42.1587524  82.6458817
  51.3110657  64.4035034  35.9939384  51.9978409  63.9040565  35.5522041
  51.2060661  65.1907196  35.4596252  25.0247517   1.3182396  27.4965973
  25.3332729   2.1061189  27.9441376  24.6873970   0.7609738  28.1979370
  19.4941158  51.7532158  11.7061996  19.1483097  51.7904205  12.5979767
  18.9777718  51.0707779  11.2773647  54.5564270  27.5690823  25.4748497
  53.6277580  27.4336433  25.6631565  55.0112457  26.9795113  26.0763321
  34.6592789  68.6497726  62.6588631  35.2212677  68.4882660  63.4166985
  34.3881798  69.5630417  62.7520103  85.7186737  69.9195023  69.7744904
  86.5405655  69.8284225  70.2566071  85.0549545  69.5586243  70.3622589
  15.7502956  59.9960213  75.4563675  16.5713654  60.4704399  75.3259659
  15.2335997  60.1921921  74.6748505   3.2568717  16.4470253  65.2823868
   2.8866303  17.3206253  65.1559906   2.4953504  15.8695297  65.3354568
  45.5576096  11.3701448  46.4169731  44.7885933  11.5393019  45.8727036
  45.3624763  11.8026047  47.2483177  34.2962875   8.0163994  83.5733414
  34.0742264   7.2744856  83.0107727  34.4353561   8.7437153  82.9667892
  24.4309311  16.1433487   0.9745700  23.5764847  16.5697784   1.0402404
  25.0583477  16.8659687   0.9545696  69.9501495  24.2674656  22.3432293
  69.2719879  23.9200573  21.7638836  70.1488800  25.1334171  21.9870491
  15.4864702   6.3500333  20.5391369  16.0284252   7.1295195  20.4169941
  16.0343094   5.6271086  20.2333851   5.9907112  20.2803059  24.5403748
   5.0417156  20.1819687  24.4631157   6.1077065  20.9661217  25.1977959
  45.9338646  10.3909159  75.0281296  45.4206696   9.6802206  75.4125443
  45.8561935  11.1092148  75.6560211   1.2720846  57.5606422  18.1634521
   2.2148015  57.7262192  18.1533718   1.0424136  57.5402298  19.0924664
  44.2802811  58.7065048  51.1972542  43.4064064  58.7815971  50.8139305
  44.7121887  58.0283356  50.6778603  38.1269035  20.5000057  79.5586624
  37.2878265  20.8265171  79.2337494  38.4655190  21.2103424  80.1036301
  23.0108795   1.4467814  47.6812096  22.9672890   0.7846694  48.3710938
  23.8650532   1.3098849  47.2714767   2.6059396  52.3591690  43.0264435
   2.5594292  53.3059616  42.8935928   1.8495895  52.1571541  43.5772209
  14.0561495  55.6913910  18.5422649  13.5843887  54.8648300  18.6445942
  13.4631739  56.3516159  18.9010353  20.2229462  16.4357719  10.7262897
  20.5220413  15.5954876  10.3788767  20.5739536  16.4655704  11.6163111
  83.4191818  46.5490379  42.8463058  83.1823425  45.6254005  42.7624397
  84.3194504  46.5956268  42.5244865  15.2362471  51.4269905  17.7853661
  15.9235106  52.0757332  17.9371376  15.2638378  50.8634720  18.5586166
  31.3921318  64.4962158  51.0624771  30.6459274  63.9043350  50.9671669
  31.5169563  64.8668671  50.1888237  13.8844957  39.9741173  85.0693893
  14.2132683  40.6118507  84.4357986  14.3807020  40.1524887  85.8682556
  54.3501663  60.2067451  37.4517822  54.8107872  61.0434532  37.3886642
  54.5067978  59.9142418  38.3496361  45.4047356  26.3876820  72.8215256
  45.3329849  25.4870319  73.1376114  46.3390427  26.5878048  72.8785248
  28.9046021  50.2953491  58.4031487  28.6514015  49.4267311  58.7155991
  29.8472061  50.2295036  58.2501945   4.9491630  68.9074936  87.9393005
   4.3329930  68.2159195  87.6978760   5.5820284  68.9257584  87.2214050
  82.8378448  46.1171455  16.5994816  83.6788177  46.5616608  16.4927025
  82.4652023  46.4974709  17.3949165  61.1155128  62.9617271  24.8456440
  60.9237633  62.4548492  24.0566330  60.4514046  63.6510048  24.8548012
  49.6141014  56.8169594  24.8370228  49.3780365  56.7881050  23.9098377
  50.0153503  57.6779099  24.9553337  23.4086590  62.2185097  26.1601200
  23.6555309  62.0689125  25.2474823  24.2209930  62.0954361  26.6512394
  74.1613541  27.5923157  69.4300690  73.2894135  27.9871044  69.4203033
  74.7616730  28.3362751  69.3813553  53.4185753  71.1252289  38.2759094
  53.6852493  70.4840469  37.6171188  52.6208763  70.7588501  38.6575890
  73.5229492  26.3849602  10.1571121  72.9931717  25.5890808  10.1107550
  74.3446655  26.1511898   9.7254162   9.9061508   3.4817340   8.8594456
   9.7477331   2.8864136   8.1268272   9.0381975   3.8115654   9.0920420
  21.9697208  21.1355762   5.0578113  21.0269890  21.2020760   5.2096825
  22.3557529  21.1610832   5.9333453  77.9700623  22.6014156  35.8023109
  78.8976822  22.3742504  35.8666611  77.6474609  22.5481434  36.7019348
  75.9401321  44.1799049  55.8050003  75.3326797  44.8531036  56.1116600
  75.9249496  43.5129623  56.4914284  67.4925842   0.9498265  43.1596680
  67.5199127   0.7320027  44.0913506  67.5225830   0.1028689  42.7147026
  57.9679909  34.4143143  31.2705193  57.3583031  33.7181244  31.5151234
  58.7951775  34.1637421  31.6818657  12.8199596  11.2870169   9.0634594
  12.8469238  11.0969582   8.1257048  12.8726254  10.4284935   9.4834528
  48.8085861  14.3219061   4.8873854  49.1626587  15.0822458   5.3486285
  49.5275307  14.0235043   4.3303351  53.0938759  22.9625111  21.5118237
  52.5270233  22.1913033  21.4996490  52.6561546  23.5721397  22.1059494
   0.7612894  19.4858265  62.1352310   0.9524406  20.1844006  61.5093842
   0.7992022  18.6823788  61.6163216  29.9149761  68.9041595  31.4367046
  29.7138100  68.0329666  31.7784386  29.0980110  69.3936310  31.5327301
  63.3410759  29.6601238  47.1370583  64.1102219  29.2555389  47.5382462
  63.6555634  30.5046158  46.8143158  23.8745346  51.0651817   8.3241215
  23.7692280  51.7939262   8.9357405  24.4222870  50.4358978   8.7933779
  72.7556915  68.5769653  77.4133301  72.8091049  67.6908798  77.0552292
  71.8266525  68.7012634  77.6074219  67.3222198  42.5628815  78.3995743
  67.7427597  41.7097740  78.5072098  66.7494049  42.6454430  79.1620026
   2.9663007  64.2826843  65.3016434   3.3650992  63.8962212  64.5220032
   3.1517537  65.2187424  65.2265701  56.5659828  38.0429840   2.4093885
  57.3240471  37.5125694   2.6548145  56.3176918  38.4937897   3.2164543
  67.4570847  33.5527573  27.5827427  67.2937393  34.3009033  27.0084343
  66.6159058  33.0983467  27.6292229  86.1971664  17.8445015  16.5799923
  85.3239517  17.5355129  16.3386345  86.4369659  17.3148270  17.3403664
   4.2043252  29.6676388  40.9892540   3.6121554  30.1811523  41.5386810
   4.0409164  29.9835587  40.1005898  54.2676125  58.0914688  84.3908920
  54.2522545  58.4760742  83.5144958  54.8490715  58.6625366  84.8929138
  85.1507721  10.2380142   6.3814363  86.0972290  10.2126913   6.5221581
  84.8395615  10.9263964   6.9692388  56.5370903  17.1948948  73.5498810
  57.2650719  17.6917973  73.9231949  55.7765388  17.4586716  74.0677719
  30.4676743  53.9210052  35.0728035  31.2279663  54.3502960  35.4651070
  30.0680332  54.5960121  34.5242729  84.3292770   5.3221488  85.1252365
  84.2883148   5.1987205  84.1769104  83.6367798   5.9552836  85.3144989
   4.1823235  45.0621414  24.8404751   3.3347647  45.2790031  25.2288647
   4.3360133  44.1519547  25.0937920  80.9228363  44.5359497  58.8745270
  80.3204575  45.1233253  59.3309898  81.6493454  45.0987511  58.6068039
  53.4510574   4.9288192  35.6077843  53.9284401   4.1128950  35.4574394
  53.9094315   5.5766163  35.0725441  47.2962837  65.4526367  27.0964222
  47.6992645  66.3155823  27.1921520  46.3832626  65.5850220  27.3515682
  52.8030014  53.4861565  85.0733566  52.4683228  52.7771988  85.6225433
  52.0648956  54.0890923  84.9844437  26.8678455  14.3799286   3.4404645
  26.5503006  14.7390099   2.6119373  26.7454414  13.4345026   3.3543420
  72.7787399  33.6507263   4.8563867  72.6807404  33.3111115   3.9668427
  73.6341858  34.0802002   4.8559017  42.9856873  70.1821823  24.8226089
  43.8373871  69.7770767  24.6591339  43.1907654  71.0915146  25.0400772
  56.0813560  14.7497091  47.3717308  55.3763390  15.2889252  47.0133591
  56.8445854  14.9666023  46.8363152  42.2906342  61.5375214  23.9816132
  42.1465683  62.3670387  23.5262280  41.5133247  61.0161209  23.7812023
  67.6933746  30.2325058  47.4979324  68.5861588  30.4377441  47.7755165
  67.2381821  30.0006981  48.3074379  32.0255089  56.1589622  81.6433258
  32.6521492  56.4589081  82.3018036  32.5662270  55.7550507  80.9645691
  62.6036377  39.2402573  68.4113388  62.7150879  38.4502792  67.8824310
  62.9403305  39.0000191  69.2745590  16.1206856  55.5366783  31.2681866
  16.3202801  54.8436737  31.8975811  16.6114941  56.2954636  31.5837574
  15.2538595  70.3320923  55.7729721  16.0064964  70.0775375  55.2391434
  14.5779886  69.6900482  55.5556946  25.2847633   4.5917149  44.7129707
  25.4900723   5.2157850  44.0168228  26.1199093   4.4450135  45.1570892
   5.3341265  44.0120735  10.7583742   4.7427564  44.7015724  10.4565363
   4.8585224  43.1984138  10.5910711  16.3265152  32.7451324  84.9107971
  15.5145702  33.1223946  84.5721970  17.0152550  33.1394043  84.3756104
  47.0995445  30.3321037  72.5050125  47.4641228  30.9668770  73.1217651
  46.3283615  29.9811478  72.9503632   7.1462679  31.0206394  54.9258118
   7.4815788  31.0838261  54.0314941   7.8076205  31.4591599  55.4611130
   5.7224650  48.1391792  76.7497253   4.7860322  47.9521217  76.8155594
   5.7679486  48.9714622  76.2791214  49.4783134  41.2013283   2.7414217
  48.9434395  41.9650841   2.9578021  49.4591904  40.6634979   3.5330040
  62.1739502  45.3450432  28.6686058  61.3935280  45.6242981  29.1473427
  61.8336334  44.8461304  27.9259720  24.2837200   6.4465294  56.3827286
  23.7701111   5.8960953  55.7915802  24.9258118   5.8502235  56.7679176
  56.4501915  44.1463928  71.9695206  56.1628952  44.4473343  72.8315659
  57.3152161  44.5397682  71.8545303  47.2543640  22.4197025  86.8957291
  47.0506935  22.8364143  86.0584106  46.6741333  22.8490906  87.5243683
   3.3954160  38.4832191  49.6128922   2.5141366  38.1310120  49.7374992
   3.9759901  37.7410927  49.7814445  79.3259583  17.4828014  13.4353828
  79.5496140  18.1532593  12.7898626  78.7310486  17.9234753  14.0421133
  14.0177774  45.9550323  80.3446274  13.3179960  46.5596542  80.5915451
  14.6201611  45.9693108  81.0883713  63.8965187  63.3273621  36.9143791
  63.3034096  63.0117149  37.5961533  64.6646729  62.7604942  36.9839172
  85.1362610  56.7166634  42.1543999  84.9054489  55.9983101  42.7434044
  84.3475876  56.8603439  41.6313438  38.4021149  69.7526169  78.9494858
  38.3904724  68.8020020  78.8380356  37.5142517  70.0309906  78.7248993
   7.4720836   4.3503199  54.3648148   8.0894060   3.7020254  54.7037239
   7.0889573   3.9351780  53.5920906  59.3915329   8.2898169  44.8365746
  58.9664192   7.4703846  45.0896416  58.6767693   8.9243650  44.7846375
  56.4347305  71.0237427  51.6697235  56.9408073  71.7688904  51.3458786
  57.0936050  70.4082794  51.9911537  38.7625809  50.5954018  27.4538803
  39.5514679  50.4962845  27.9868584  38.4237442  49.7051506  27.3596954
  66.7433395  43.4483376  42.9049339  66.9664917  42.8254852  43.5966606
  67.0394821  44.2946548  43.2400169  63.9690933  49.7226219  74.3855133
  64.1636581  48.8287468  74.6672287  64.0052490  50.2404366  75.1897430
  53.8651009  27.4716129  60.8297577  54.5567169  26.9611835  60.4086189
  54.3325653  28.1291790  61.3448486  35.5555878  39.1415062  76.1443481
  34.7341423  39.0500450  76.6271439  35.6526642  40.0847130  76.0133362
  21.0591087  42.4590836  13.4668360  21.3696938  41.9863167  14.2390137
  21.8549004  42.6674042  12.9773960   7.3946853   8.8781643  15.4663725
   7.2272449   9.4814644  16.1904068   6.9026823   9.2438612  14.7312326
  45.8765869  53.9082260  43.4778938  45.2911606  54.4637642  42.9632187
  46.3638802  53.4048309  42.8256912  75.7945557  37.4145393  40.6893616
  75.8909531  37.9891815  41.4487839  75.1657028  36.7498131  40.9702835
  54.2552338  62.3838806  50.4186630  54.8795738  62.6312637  51.1007462
  53.8014755  63.1984863  50.2024422  76.6718597   6.3579664  65.2432709
  77.1781616   5.5459657  65.2200089  76.3462601   6.4628906  64.3492889
  55.2375412  55.2308922   4.3099012  54.9381065  54.8630066   3.4784999
  55.5841599  54.4806290   4.7928023  46.5460739  62.5972252  22.1100693
  45.8433228  61.9486771  22.0681591  47.2339745  62.2416954  21.5473728
  41.9431114   3.9703987  63.0528870  42.6301727   3.3952279  63.3895798
  42.3946724   4.7896566  62.8500481  80.7316971  20.2488670   6.9708700
  80.2060165  20.5176373   6.2174387  81.4571152  19.7524681   6.5919461
  44.0117416  20.7066803  83.4433594  44.8965187  20.3823509  83.2753906
  43.9993820  20.8936958  84.3820267  81.0620117  11.4347334  71.9320374
  81.3384552  11.2867022  72.8364182  80.4921341  10.6923447  71.7312164
  72.7810745  18.7300053  61.3528595  73.2645569  18.3791332  60.6049500
  73.4308167  18.7850285  62.0536003  80.9467239  17.0366154   4.0314908
  80.8407059  17.3094749   4.9428301  81.2472534  17.8247128   3.5789275
  62.6081200  14.4453087   1.9924968  63.3869095  14.1292515   2.4505610
  62.8056412  14.3134890   1.0652210  76.1191483   2.1675866  88.5787201
  76.3942337   1.2511259  88.6044159  76.9360580   2.6608574  88.5040970
  68.9979095  55.5990677  79.5751419  69.7561111  55.1413193  79.9382248
  69.3720627  56.2409744  78.9716568   7.6377392  22.0602303  71.6880341
   7.1673126  22.7778492  71.2638245   7.7105942  22.3297462  72.6036072
  29.3617878  23.6531887  75.6421432  29.9905071  24.3079948  75.3385391
  29.4183006  22.9492302  74.9960098  61.8582687  52.8548355  53.2515678
  61.4748535  53.5513916  53.7845192  62.4428482  52.3896294  53.8499718
  10.8641167  13.2697926  71.8501740  10.8401527  13.9003553  72.5699310
  10.7289619  13.7986231  71.0638504  48.3066444  44.6838760   9.2330008
  47.8873253  45.0002251   8.4327965  47.6611595  44.8446083   9.9212914
  57.0927811  30.9160824  87.1124649  56.3004723  31.1013298  86.6083221
  56.8067856  30.9403667  88.0256195  19.3844719  43.5917282  15.7378969
  19.9308987  43.3559875  14.9881783  20.0028534  43.6992493  16.4605846
  29.6405945  55.9299736  62.1415672  29.1053696  55.9223862  61.3480225
  29.9601707  56.8299217  62.2063255  67.8869247  65.5385208  35.6638260
  67.4567566  66.0707932  36.3330536  68.7296600  65.9691696  35.5204239
  73.5746078  23.4043694  82.5778427  73.7901611  22.8172779  81.8532104
  73.2080688  22.8302422  83.2503433  70.1941223  11.9197912  21.5025578
  70.2106247  11.0854158  21.0337543  70.7193069  11.7639275  22.2874870
  59.6019135  22.6638145  39.4136047  59.9109535  22.3422699  38.5666504
  60.3950272  22.9563503  39.8626289  84.6858368  62.2547302  89.3368683
  85.3246307  61.6195717  89.0132065  83.8820877  62.0510445  88.8586121
  33.6477928  43.3173294  20.7009468  33.6006813  43.2869759  19.7453880
  32.7997551  43.6692810  20.9714985  58.7874985   2.5055509  21.7029724
  59.4314194   1.8445351  21.9572487  57.9614182   2.1879103  22.0675602
  79.5433655   4.0578847  68.1977463  79.1323471   4.2164888  67.3479538
  80.3455811   4.5796614  68.1769028  27.1878166  36.5010033  78.0637894
  27.9669399  36.6284332  78.6050491  27.4055176  35.7572479  77.5019531
  63.5996666  28.7368851   1.7178324  63.0597801  28.4756622   0.9718325
  63.1287766  29.4732151   2.1081045  10.3490038  39.3005753  89.2992630
  11.2321796  39.4979248  89.6111679  10.2642784  39.8008423  88.4876099
  28.3717175   9.0636883  67.4447174  27.7752171   9.7551069  67.7316971
  28.6216488   9.3165960  66.5560074  58.1091690  27.9095230  48.3009338
  58.9705162  28.1480675  48.6435852  57.5201378  28.5809555  48.6451035
  84.4280930  44.8438454  13.4182549  85.1734467  45.1734772  13.9202738
  84.3693466  45.4300842  12.6638641  58.9220505  68.1972122  77.2837219
  59.6140137  68.6068497  77.8029709  58.5276833  68.9208603  76.7968521
  84.4155273  41.9071426  34.0071259  84.2801743  42.4395828  33.2232780
  84.6047058  41.0308266  33.6716957  51.4201775  65.3775787  79.6183090
  50.7419586  65.7212524  79.0368118  51.1180916  65.6030731  80.4981613
  32.5535088   0.4796435  25.0751686  32.7979431   0.1869466  24.1972084
  33.2082253   0.0839468  25.6504955  85.4261093  26.2875729  25.5687981
  85.0052567  25.6637402  24.9772320  86.1251221  26.6797314  25.0455132
  22.4471111  42.4175987   7.6937165  22.6510448  42.9249840   8.4793386
  23.0098152  41.6456413   7.7543850  27.6734047  58.1205177  35.5284462
  27.3173771  58.8572083  36.0252037  27.7102566  58.4360046  34.6254845
  36.1276245  56.3455544   9.4983082  36.1077080  55.4171677   9.2660761
  36.5690880  56.3706703  10.3472548  19.8925056  18.9616890  87.4315567
  20.4965038  18.8613319  86.6957932  20.2165203  19.7281628  87.9045944
  79.5929565  23.6495647  45.4300232  79.5287857  22.8137512  45.8921165
  79.8412323  23.4110146  44.5368881  27.9406013  58.3656693   9.0960779
  28.6730270  58.9472504   8.8922491  27.2322063  58.9546547   9.3558931
   2.0326006   6.3787584  70.7704163   2.2561116   5.4512057  70.8473663
   2.8552933   6.8041067  70.5285797  26.8162022  37.2219276  83.8118591
  27.2456493  38.0273285  83.5235367  27.3058681  36.9546356  84.5896912
  40.0135536  44.2426529  22.1462822  40.8628845  43.8308678  21.9872189
  40.2284279  45.1123466  22.4834652  44.6322975  39.9590492  76.4190674
  45.3882904  39.6851196  75.8997726  44.8630829  39.7274551  77.3186951
  82.6509247  10.8191996  13.9711847  83.4187775  10.3278446  14.2630911
  82.8990631  11.7374086  14.0786667  13.8202515  46.9483109  85.3444672
  14.1886559  46.1643944  84.9370499  13.0323076  46.6384201  85.7909470
  49.6468964  57.4430733  22.1161957  48.7423744  57.5600700  21.8256969
  50.0453339  56.8917580  21.4427490  30.2525711  33.2907639  87.1431503
  29.4402409  33.0546799  86.6952515  29.9929848  33.4260635  88.0544891
  69.1491470  27.9240856  16.1110096  69.5632324  28.7776470  16.2382870
  69.7589340  27.3007946  16.5058556   0.9970153  23.8505135  80.0328827
   1.2122953  24.4257832  80.7670135   0.5707046  23.0950603  80.4375763
  68.0945435  15.3749514  87.1231537  67.7778320  16.2187042  86.8006592
  67.5773926  15.2104998  87.9116592  25.9130707  57.0657730  49.2085152
  26.5418091  57.4409637  49.8250809  25.8336945  56.1498413  49.4749832
  59.6097717  67.0941010  16.3716049  60.0011711  67.9175568  16.6630840
  59.8508987  67.0281448  15.4476242  56.6229286  14.8312902   1.6132184
  56.1797562  15.4056559   2.2376642  57.2915955  14.3840752   2.1319826
  81.1387329   7.9920483  23.1239529  81.1977997   7.1994591  22.5905266
  81.0493851   8.7023067  22.4885159  56.3144226  23.6816559  72.5357513
  55.8099022  23.3002739  73.2542496  57.1396103  23.9510860  72.9391174
  22.2692738  41.5452957  86.4616318  21.6846142  42.2946701  86.3483047
  21.9057636  40.8692589  85.8897324  81.8871918  15.2109079  72.5738373
  81.7166901  14.6157217  71.8438263  81.2998352  14.9126043  73.2682877
  75.0713501  42.7944107  82.5327225  74.3120651  42.8383598  81.9515305
  75.4987106  43.6451073  82.4332047  66.9410019  34.8221283  86.6335907
  66.2173080  35.4481773  86.6572113  67.6716461  35.2850647  87.0435715
  69.4401932   4.4459419  29.7673073  68.6227493   4.3790092  30.2608051
  69.9930191   5.0209394  30.2964497  64.3889313  24.8221493   1.4045777
  64.3533554  25.6809940   0.9834447  63.8541412  24.9194012   2.1924715
  74.5025253  67.0710144  51.6055298  74.9135818  67.7213669  51.0360451
  73.6081619  66.9930115  51.2734756  53.2192917   8.1647282  53.0017090
  52.7449417   8.7982960  53.5400543  53.7268105   7.6498151  53.6290207
   4.1098723  36.5486450  34.4613609   3.9673371  36.2725220  33.5560036
   3.7722631  37.4437065  34.4947586   8.1556940   8.3952627  51.1617279
   8.6181364   7.7531590  51.7003212   7.2428012   8.3300056  51.4420853
  49.1208992   6.3835678   7.0287509  49.0025444   6.5670214   6.0967803
  48.5658417   5.6217175   7.1952682  63.8058128  26.6695881  70.0135803
  63.1232185  26.2390194  69.4988861  64.3633270  27.0961018  69.3628159
  77.8165970  69.8509903  57.9676170  77.3047485  69.2816086  58.5421143
  78.6924438  69.8559113  58.3537598  63.4966774  28.2592983  79.1130371
  63.6095009  28.3863640  80.0550385  64.2893600  27.7993450  78.8367615
  23.6036682  67.1937103  31.4536228  24.3052979  67.4001694  30.8361092
  23.1899643  68.0372162  31.6368542  80.4602432   0.8028284  41.4492531
  79.7211838   0.3285696  41.8301811  81.2318192   0.3145834  41.7365112
  12.4468307  39.8819313  45.2517662  12.8412600  39.7247963  44.3938828
  12.0588789  39.0412483  45.4946175  35.0794106  42.2261658  58.3881226
  34.3776703  42.1778488  57.7389259  35.8553391  41.9087334  57.9261665
  76.5530624  71.7350540  74.0476608  75.6022644  71.7371216  73.9371490
  76.8143082  70.8339996  73.8577271  11.1533337  51.6542664  25.8424492
  10.4237471  51.0892715  26.0968418  11.8271265  51.4866295  26.5013371
  45.0377808  59.8408699  25.4246597  45.9703789  60.0453873  25.3563690
  44.6470985  60.2422028  24.6484299  35.5668831  22.2051449   1.4310436
  34.7423172  22.4233189   1.8654623  36.0868797  21.7718868   2.1078930
  65.3622208  37.4734650  86.4125214  65.3116684  38.2919273  86.9062805
  64.5481873  37.4464378  85.9096756  66.0061417  24.4022827  38.0800591
  66.5538559  24.2713108  37.3060493  66.3077927  23.7399464  38.7017899
  10.5663786  56.8325043  28.6412411  10.8954248  56.1302872  29.2023582
   9.7760944  56.4692879  28.2415428   7.5937023  66.8063889  12.6192417
   7.7440052  65.8749161  12.7804966   6.9465346  67.0618896  13.2766047
   1.5149776  30.5996723  16.1306782   0.7171824  30.1205883  15.9065514
   2.1680305  29.9175472  16.2870770  13.1093645  62.8461914  45.1424637
  13.7052298  63.5676804  44.9408989  12.9007492  62.9597740  46.0697212
  66.5413589  26.4087925  18.4954891  66.6546249  25.9474964  17.6644611
  67.4302673  26.6424847  18.7628040  57.7706833  20.9523964  56.8586502
  58.0715065  20.5484581  56.0446625  57.2860031  21.7280159  56.5762787
  68.9362030  17.1562233  65.5756760  69.7657166  17.4982414  65.2422638
  69.1725082  16.7001743  66.3834000  66.8703003  41.4017143  31.7259083
  66.4805145  42.0061798  31.0943089  66.4934692  40.5497169  31.5060558
  22.2461262  24.1372681  55.3058167  22.2493095  24.2053185  54.3510437
  22.1779995  25.0422192  55.6102104   7.8877816  38.8978882  18.9177589
   7.2196398  39.3643456  18.4155312   7.3976417  38.4385033  19.5996399
  48.9269676  41.7568741  60.1276474  48.2661133  41.2831726  59.6225624
  49.0287285  41.2439957  60.9294167  31.0082722  68.8607254  88.4276581
  30.9924965  68.2171631  87.7192688  30.2358456  69.4048233  88.2741928
  51.6257401  41.8637276  72.2103043  52.3674889  41.7682457  72.8077393
  51.7711449  42.7066879  71.7807617  80.5088882  45.5432739  38.1805153
  80.0425110  45.0364037  37.5158348  81.2511597  45.9259987  37.7127609
  67.8183594  53.9440422  22.3382378  67.5450287  54.4449272  21.5697098
  67.0186539  53.5134087  22.6403084  50.5944977   1.8840127  21.2860641
  49.9518509   1.1793677  21.3679867  50.7552223   2.1674254  22.1861076
  76.7694702  25.3540001  18.4709473  76.7811050  24.8640976  17.6487007
  76.5441666  26.2480831  18.2138805  13.5552073  61.2051506  61.3105583
  13.5873451  60.5607681  62.0176430  13.6580935  60.6888542  60.5111351
  43.0724106  38.1880684  85.8012238  43.8064499  37.7868843  85.3359604
  43.4377136  38.4466438  86.6473465   3.7133548   3.7430608  42.0381508
   4.6464167   3.6096647  41.8713226   3.2870622   3.5121319  41.2128181
  50.1547318  66.4856262  41.5599136  49.2824326  66.8188629  41.3494911
  50.1634483  65.5965652  41.2053413  40.5481186   5.6884556   7.2904053
  41.3952065   5.8219004   6.8651228  40.0739555   6.5065646   7.1417422
  61.3985481  70.5604706  19.8691730  60.5203667  70.9408569  19.8508587
  61.3393135  69.8518753  20.5099602  36.8276367  26.7079086  79.5252457
  35.9767914  26.7398033  79.9625931  36.8468094  25.8501263  79.1008987
  51.8791389  40.7107887  57.9146233  51.2066422  41.3853111  58.0094681
  51.8157883  40.1947403  58.7183151  63.4527817   8.6070910  32.7703743
  62.6324883   9.0970669  32.7131882  63.3944740   8.1387653  33.6031418
  70.1755600  19.8934612  46.7813148  70.8512802  20.3802128  47.2532272
  69.8961563  19.2146950  47.3956795   0.1831716   4.7578802  45.7360802
   0.7809830   4.3980141  45.0808334  -0.5376448   4.1291933  45.7736092
  39.4419594  40.9323349   3.5666010  38.4913521  40.8489990   3.4915328
  39.6262474  40.7510452   4.4882321   0.2624934   1.7883978  17.9241123
  -0.1866152   1.4192178  17.1636906   0.8149790   2.4815338  17.5627899
  32.2976837  47.3196754  33.5269852  33.0706215  47.7133789  33.1222687
  32.4134636  46.3782005  33.3987198  72.5085068  52.3247414  52.3900948
  71.9516525  52.1102104  51.6416817  73.3930435  52.0974808  52.1034355
  27.5750809  28.1738720  87.0727692  28.2121754  28.8875179  87.0403061
  28.1063995  27.3821144  87.1567535  38.8938713  17.0233364  85.5797653
  38.8558578  17.2789192  86.5014343  39.3912697  16.2055225  85.5783234
  58.5147285  11.2849379   8.4807091  59.1129074  11.9796209   8.7560854
  59.0635986  10.6802092   7.9814343  22.1897526   4.0413537  34.8067436
  22.5123501   3.2757902  35.2822189  22.9667988   4.5833249  34.6699982
  69.0444183  32.1540108  81.6241837  68.3491135  32.6944733  81.9992752
  68.6911850  31.8575172  80.7854004  41.5757484  61.9896889  11.7793827
  41.4024048  61.0612869  11.6236420  42.0813713  62.0059090  12.5919819
   2.1383224  28.7571774  46.8982849   1.7268791  27.9721928  46.5366974
   1.4104229  29.2668285  47.2541618   2.2554305  12.3453417  11.9379120
   1.4617261  12.8767748  11.9999094   1.9440315  11.4420795  11.9960451
  64.2413864  11.8644905  15.0681829  64.7490540  11.3061628  14.4793072
  64.4018860  11.5020914  15.9394684   8.6378765  40.8396034  11.7814617
   8.3282270  41.4306755  11.0951786   7.8525949  40.3735580  12.0684509
  48.1222191  14.6692886  23.1547947  47.6313400  14.1222849  23.7680283
  48.5130081  14.0484219  22.5399456  29.0161362  29.6619053  76.1145706
  29.7843494  29.8200016  76.6632767  29.2065296  28.8370190  75.6678619
  58.3609428  24.2157001  28.4074020  58.1235008  23.4421940  27.8959885
  59.1907616  24.5071259  28.0296383  54.9774818  -0.1142287  42.8512306
  54.3598518   0.6159300  42.8108177  55.0532913  -0.4142255  41.9454231
  10.4002390   9.4997864  55.6170502  11.3288708   9.3217840  55.4680901
   9.9494572   9.0140934  54.9263039  52.9840851  38.2371101  78.3326569
  53.8865471  38.2639160  78.0147324  52.6090469  39.0744362  78.0597916
   1.3148868  64.2030792  51.9846878   1.4663266  63.8791695  52.8725967
   0.4137419  64.5255661  51.9978256  12.8321362  65.8350067  30.5417805
  13.7469149  65.9391327  30.8036366  12.8702946  65.3122940  29.7408142
  61.3606377  49.8425484  31.3068047  60.5856056  50.2033577  31.7373486
  61.2960739  50.1481361  30.4019966  73.3693314  56.7908363  82.9250870
  73.2073898  57.6292763  83.3575439  72.7605286  56.1831970  83.3450470
  38.2330589  48.2762184  39.5708733  39.1669044  48.2351151  39.3647842
  38.0034027  49.1986656  39.4586868  31.5219116  62.7896576  89.1345139
  31.9410286  62.1596680  88.5482635  30.8397427  62.2862434  89.5788651
   9.6703939  51.7190475  53.5807266  10.2175989  52.4456520  53.2826614
  10.2935562  51.0571022  53.8802795  31.4891300  58.8453865  45.2015190
  32.0316811  59.6120300  45.3862495  30.9744740  58.7185097  45.9985542
   9.4920502  39.8146439  33.6591263   8.7325439  40.2895203  33.3216705
  10.0522890  39.6842155  32.8940430  26.5336361  62.8987236  78.0562820
  26.0790024  63.3351631  77.3358231  27.4619045  62.9773407  77.8363571
  28.6429634  11.9702806  13.1893358  29.2744961  11.2999468  13.4501991
  29.0936966  12.7993460  13.3497133  37.0364532   2.0425718  54.5592270
  37.1814766   1.8250788  55.4800415  36.3894310   2.7477074  54.5787048
  11.6786289  38.1054115   4.8957872  10.8209200  37.9040909   4.5215716
  12.0539713  38.7533722   4.2995491  15.1418324  28.7054291  14.6068411
  14.8597584  28.9068394  15.4990854  14.4291954  29.0237808  14.0527363
  66.7491989  47.7149506  40.7877731  67.2940521  47.0659714  40.3425827
  65.9744339  47.7990112  40.2319908  63.2434502  36.7894783  20.8901272
  63.8263206  37.4719925  20.5574589  63.8181381  36.0410042  21.0506001
  17.0514660  44.9200058  58.2079582  17.8096981  44.4848213  58.5977402
  16.9342728  45.7122269  58.7322502  76.5506821  12.6848316  58.4829674
  75.6769409  13.0691032  58.5546570  76.4193115  11.8842878  57.9749298
   4.2629972   2.3516529  60.5868607   4.9367537   1.6763387  60.5079002
   4.2500186   2.5692141  61.5189171  33.5680428  43.5256042   1.0237212
  33.9060783  42.6317444   1.0782944  34.3466721  44.0797958   1.0769875
  67.8730774  48.2062569  78.2130432  67.4986649  49.0413284  77.9325027
  67.1314774  47.7204666  78.5739746  35.6904602   3.1050963   4.9717412
  34.8867950   2.8745179   5.4377737  35.4544296   3.0504057   4.0457115
  50.8629875  62.5138969  43.4032478  50.3801155  63.2904129  43.6862526
  51.3906212  62.8161774  42.6640205   1.9823338   3.3029795  44.1024475
   2.5108104   3.6716204  43.3945999   2.5109720   2.5826869  44.4458885
  54.8196716  41.7458992  81.3440247  54.4679337  42.5928574  81.0698395
  54.1025238  41.1294518  81.1959610   2.5800300   8.2169056  19.2584534
   1.8431662   8.8261995  19.2134686   3.0204363   8.3108873  18.4137993
   1.7307422  69.5981979  66.4776917   2.0634551  68.8259583  66.9350586
   1.1131567  69.2485733  65.8353729  57.1916008  24.5453053  69.8785934
  57.0032845  24.3139057  70.7881165  56.7902184  23.8442917  69.3650742
  84.6468124  63.0335350  29.5206165  84.3770752  62.3923073  30.1781120
  85.5958481  62.9263496  29.4567375  33.8368454  36.8752213   3.7316616
  33.5565796  36.0609970   3.3136640  34.7818413  36.7733459   3.8449674
  79.5160141  51.7278214  83.3855667  79.9394226  51.5057564  82.5563278
  80.2188644  52.0928307  83.9231644  64.2168121  69.9195557  53.0428619
  64.5210876  69.3449249  53.7453232  64.9457321  70.5216751  52.8933067
  41.5893288   9.5035229  73.3781891  42.2403374   8.9394789  73.7956467
  41.4013863   9.0750237  72.5431442  28.4951172  16.2460232  74.2441101
  29.2398300  16.3968811  73.6619797  27.7365952  16.5520058  73.7468719
  74.6072922  27.9858685  59.7167130  74.3010864  27.7099094  60.5806122
  74.9437790  28.8714752  59.8534927  84.9062805  19.2333851  46.7956657
  84.5528183  18.5697117  46.2033501  84.3627396  20.0060329  46.6413422
  77.8769073   8.1656733  84.3565903  78.0659485   7.7968063  83.4937897
  78.7266006   8.4641438  84.6808777  38.5214424  17.7564392  88.2938843
  38.1585541  17.0524616  88.8314362  39.4240074  17.8496113  88.5987167
  18.0918903  58.6346703  65.4648743  17.7154770  59.2305069  66.1125793
  18.3080139  59.1959190  64.7202148  23.1511078  34.8829308  29.4742527
  23.1661415  34.5553856  30.3735409  22.3141117  35.3414078  29.4002991
  40.7793388   5.3395696  59.9511528  40.4802170   4.8992357  60.7466812
  39.9741020   5.5706038  59.4880714  66.3474579  38.9889832  30.2512493
  66.2228775  38.5794563  29.3950939  65.6418991  38.6335602  30.7917042
  40.2779083  51.2376099  32.7861977  40.4184494  51.8763695  32.0872955
  39.3496399  51.0129662  32.7222519  63.2618523  14.6955843  79.6919556
  62.9531479  14.7759418  78.7894745  63.9237480  15.3813429  79.7806396
  50.4935379  44.4499588  30.3891449  50.6403465  43.9700508  31.2042313
  51.3630714  44.5265884  29.9963741  67.2478943   2.6685138   1.2074246
  66.5478287   3.1170735   0.7331531  68.0010757   2.7098515   0.6181544
  62.6993866  55.5984421  32.3831940  62.4281311  56.4861984  32.6167297
  61.9823112  55.2625618  31.8454018  69.7890472  64.9571075  74.3456039
  69.0284042  65.0950470  74.9100723  70.4163208  64.4912796  74.8985596
  23.5501194  62.1018867   5.5124693  23.0181942  61.8310738   6.2607651
  23.2097492  62.9648323   5.2764492  76.9174805  38.5826073  69.5554047
  77.2286835  39.4689560  69.7391663  75.9632492  38.6576118  69.5620346
   7.7831483   9.1016998  10.6293087   8.5362148   9.6603603  10.4369020
   8.1042929   8.2106943  10.4907150  85.0353317  69.2172699  25.7532101
  85.4354630  69.8904190  26.3036652  84.8744659  69.6556015  24.9176159
  14.1546392  16.5999966  67.0670395  13.6172295  15.8142557  67.1672134
  14.7544765  16.5765591  67.8126144  81.2637787  45.9330254  62.9753075
  80.7306442  45.2363892  62.5922928  80.7474594  46.7285385  62.8456612
   3.4815333  12.2860832  82.0464096   2.5445602  12.1043987  82.1192398
   3.8833148  11.4261847  81.9224014  43.6794472  70.7710037  30.6425438
  44.5344696  70.8939667  31.0549183  43.4261513  71.6467133  30.3506565
  85.9616547  45.6926994  21.1976299  85.5825806  45.0435486  20.6050606
  86.7139053  45.2489891  21.5893841  37.9078369  34.0754280  65.0511475
  37.0157204  34.0645256  64.7043915  38.2836914  33.2406845  64.7715683
  43.0007935   2.5051866  45.2262192  42.2511597   1.9100959  45.2140121
  43.2703171   2.5320892  46.1442947  44.8610764   0.1674598  27.3999653
  44.5457230  -0.7151629  27.5942860  44.2651405   0.7451204  27.8768311
  61.8581963  43.6087875  41.9885941  60.9527664  43.5007210  42.2797127
  62.1846771  42.7150002  41.8847198  56.0351372   0.0865403   2.3047259
  55.5461426   0.2866072   3.1029043  56.4870110   0.9025359   2.0897980
  65.2338562  11.2895813  73.5394897  66.1566696  11.5128279  73.6611481
  65.1409225  11.1612053  72.5955048  65.7844772  17.6322689  70.1252899
  65.2397614  18.1678391  70.7020721  66.6800842  17.7982521  70.4195023
  67.9877625  23.5533905  57.0125847  68.0726166  23.3683243  56.0772858
  68.8856506  23.5312519  57.3435440  41.6419296  12.3857031  76.9769669
  42.5389595  12.5759249  77.2515182  41.3804817  13.1514578  76.4655991
  42.7215462  61.8697662  61.2004700  43.1642456  61.9682350  62.0434151
  42.6188545  62.7650833  60.8778381  44.7939644  49.9268227  75.4763947
  43.8845329  49.8469658  75.1886673  45.2183075  49.1323242  75.1524582
   1.6142728  37.7726593   0.3326814   1.3982602  38.7043152   0.3725182
   1.1873568  37.3947220   1.1015359  62.3524628   0.3283482  38.7453461
  62.5875320   0.8393066  37.9708176  62.7836914  -0.5162229  38.6150589
   6.7661762  62.4562149   4.8651366   6.2619405  61.6897736   5.1381617
   6.7742538  62.4094658   3.9091129  53.8148193  51.8149529  23.6227341
  54.0415535  51.5535545  22.7302666  53.3592682  51.0556526  23.9862785
  70.7610550   6.7138228  45.9966354  70.7262039   7.6586876  46.1457901
  70.3823013   6.5947018  45.1256676  67.8579559  60.0916214  56.3882904
  67.7260818  60.9139938  55.9165421  68.1498184  60.3594971  57.2596626
   4.8726454  44.0706940  37.2406693   5.0207911  44.8069153  37.8341827
   5.1734338  43.3046761  37.7295227  50.6392708  28.5856113   0.3738133
  50.6298523  28.3758621   1.3077022  49.7570190  28.9094410   0.1921563
  68.1985321  14.3183794  16.3279514  68.1442413  14.4290209  15.3787193
  67.9866409  13.3964443  16.4741325  32.5303345  47.6542473  24.3288975
  32.5214806  46.7041931  24.2125015  32.6551781  48.0025558  23.4461021
  39.7388382   4.0262752   4.7001328  40.6460419   3.7890196   4.5079818
  39.5786438   3.6717367   5.5747027  36.3838234  36.4570770   4.6545463
  36.2709236  36.7862701   5.5462399  37.2980499  36.6463242   4.4433279
  78.5389633  36.2416916  18.2162762  79.1200867  36.8821068  17.8059139
  77.7865829  36.1887741  17.6269073  57.3257065  45.8320923  69.4451828
  57.7699509  45.9343643  70.2868652  57.1293221  44.8968773  69.3900909
  53.0115242  50.4561462  87.7350311  53.1966248  49.7607231  87.1038742
  53.4088097  50.1512260  88.5507584  66.3342972  56.2127914  43.2875824
  66.3492813  55.3029327  42.9906540  66.7928085  56.1981506  44.1276932
  44.2021713  48.7592163  19.6515503  44.5570831  49.6114082  19.9045963
  43.2530861  48.8670425  19.7135506  77.6604614  64.2615051  13.0577650
  76.9286499  63.9487953  13.5896473  78.2913284  63.5417519  13.0715523
  74.8130264  35.0409851  20.0202179  75.4206848  35.7315903  20.2848701
  74.1103592  35.5026360  19.5626469  10.9777250  43.2117081  25.5559521
  11.8698502  43.5582008  25.5729237  10.4285269  43.9732094  25.3696041
  59.5558357  26.1226597  83.9674454  59.6520424  25.3873558  83.3622131
  59.8556213  26.8833447  83.4697342  49.3498116   6.2760305  14.1235847
  49.3363800   5.3475409  14.3558741  48.9938049   6.7205706  14.8929186
  46.7699699  15.1283932  70.3301620  46.2454376  15.3842239  71.0888748
  46.3896179  15.6170778  69.6002579  45.7891388  28.9756927  60.2852249
  45.7724876  29.8840694  59.9838829  45.3165169  28.9907303  61.1174698
  78.7896881  44.4999619  48.6674957  77.8874969  44.2567520  48.8751793
  79.2810745  43.6817284  48.7400513  42.1921616  34.4125748  36.5775604
  42.8429527  35.1038094  36.6996040  42.4936943  33.9332695  35.8058281
  13.5845232  34.4554558  10.4606304  13.2018366  33.6474152  10.1187878
  14.5296288  34.3223419  10.3879070  71.1305618  21.1904984  22.4166470
  71.9604492  21.6544533  22.3058643  70.7004242  21.6395187  23.1443768
  77.4578476  22.6005878  48.6902390  77.7439041  22.6116848  49.6036263
  76.8083420  23.3014641  48.6341362  60.2821541  70.5628357  63.1171799
  61.1489487  70.3479691  62.7726059  60.0437698  69.8071213  63.6541100
  28.8111610  71.0657425  60.0915413  28.1902027  71.5207977  60.6603699
  28.4219456  71.1217270  59.2188377  61.1621971  21.7170429   2.8999860
  61.7227669  22.0674324   3.5922430  60.5721626  22.4383965   2.6814802
   9.3571615  18.7156277  -0.1156216  10.0967188  19.1683140   0.2897933
   9.3001356  17.8828297   0.3528092  19.0602818  26.8486557  18.5424633
  19.9772892  26.9639187  18.2933769  18.5671482  27.2941399  17.8535538
  30.0795441  59.9395142  30.9134178  29.6765041  60.8075142  30.9326687
  29.7759571  59.5166092  31.7166710  40.1326294  55.2773094  21.9619522
  40.8075218  54.6444550  22.2074184  40.6081276  55.9670677  21.4989529
  66.0195999   3.1635175  57.2781525  66.7406082   2.5813053  57.0385590
  65.7636108   2.8792024  58.1555748  54.8482780  50.0267868   1.1901355
  53.9798470  50.2478561   1.5265692  55.4250488  50.0979614   1.9507290
   9.3374367  20.4169731  82.8171463   9.7207575  19.9603786  83.5660248
   8.6084833  20.9146271  83.1875534  23.6504250  43.6181908  54.0865479
  23.2503052  42.7588882  53.9533844  23.4810772  43.8212814  55.0065002
  29.1379871   4.0881133  71.5433884  28.4618950   3.4524949  71.7781677
  29.6986523   4.1383929  72.3175735  33.2538528  43.9052353  83.3064957
  32.6519966  44.4740639  83.7865295  33.8922310  43.6243706  83.9621048
  60.0915985  61.9087029  43.1664200  59.3978386  62.5666161  43.2119942
  59.6331482  61.0898705  42.9778137  58.8401184  15.0593710  11.4351597
  58.5349770  14.1524239  11.4113693  59.7921181  14.9899778  11.5066957
  56.4134941   7.8996902  46.5705490  55.7702637   7.2749109  46.2356834
  57.0907021   7.3546605  46.9712601  28.9062252  58.9034081  21.4203415
  29.7569695  58.5424805  21.1709480  28.3016758  58.5726776  20.7559853
  32.0568390  66.8103867  68.2418900  32.2237396  66.2535553  69.0023651
  31.1378078  67.0638580  68.3277130   3.3845277   9.4893084   8.1565628
   4.0144439   8.8835669   8.5470963   3.6964235  10.3572645   8.4126949
   9.7918110  12.1477842   0.0474421  10.6249275  11.7014170  -0.1039045
   9.8554945  12.4761715   0.9442910  14.6446409  71.3346558   2.6861513
  15.4628458  71.3196030   2.1896169  14.7154865  70.5929794   3.2870984
  56.2273865  16.4165897  60.7822647  56.7828484  17.1949234  60.7387733
  56.0851250  16.1724586  59.8677216  85.4374390  13.8294268  66.6433258
  85.6041565  14.7617912  66.5050049  84.9119339  13.5654602  65.8880768
  83.5518188  68.7909164  52.9816551  82.7274475  68.3354416  53.1525192
  83.9104080  68.3551941  52.2084846   7.0510640  41.1988373  41.1008759
   7.4347067  42.0085411  41.4376717   7.4531336  41.0833015  40.2399330
  29.6286812  51.9153557  15.4709215  30.4310303  51.7185478  14.9874582
  29.8192291  52.7345734  15.9278717  66.0939789  69.0741425  13.3364534
  66.9369888  69.5072021  13.4707251  66.2126312  68.1991882  13.7060480
   6.2673063  30.2795715  81.4433060   6.6451097  30.7692413  80.7127457
   6.1143022  30.9390354  82.1200104  47.2218056  44.6912117  66.3233414
  47.2058563  44.2214394  65.4895020  47.2756653  45.6146088  66.0770340
  43.8435974  49.7232285  59.4186707  44.7898636  49.8026619  59.5390930
  43.4736633  49.9508057  60.2716599   0.7998926  52.8135300  35.2679482
   1.7319629  52.8237839  35.4855995   0.3604101  53.0468330  36.0856628
  70.1246338   1.1480094  73.7046356  70.6923599   1.1884015  74.4742355
  69.2391739   1.0872700  74.0631180  11.7368135  24.2372742  67.9078598
  11.1313419  24.7014980  67.3298187  12.5124140  24.7972088  67.9417496
  55.9325447  39.1734276   4.8536139  55.5748825  39.9360619   5.3082495
  56.2078133  38.5835495   5.5553980  28.7441750  65.2925491  11.8315601
  29.2877235  66.0797348  11.8649836  29.1546421  64.6914902  12.4532366
  46.2930641  49.9096298  60.3806343  46.6755981  49.2233925  60.9274216
  47.0468750  50.3703766  60.0122337  74.0498047   7.0902367  58.3448944
  74.4932098   6.5225816  57.7145042  73.2122421   7.2991834  57.9312935
  40.2604370  62.5141945  47.0220413  40.8591499  61.7719498  46.9392929
  40.3406219  62.7858124  47.9363861  65.2313232  16.2062817  10.1137514
  64.6369705  16.9405212   9.9592571  65.6260605  16.0337143   9.2589798
  45.4679070  69.2601089   3.6503012  46.1771088  69.7535400   4.0623655
  45.2155075  68.6103897   4.3063416  81.4234390   7.5490799  66.6817856
  81.9025269   7.7978225  65.8913269  81.6321030   6.6233273  66.8069763
  24.6682129  62.6087265   8.6498671  23.8527985  63.0108719   8.3505182
  24.7613411  62.9021339   9.5562172  79.6743088  55.6931152  41.2754250
  79.1641617  54.8994560  41.1138954  80.4292145  55.6154709  40.6920586
  69.9361343  25.8216705  77.7543716  69.1390457  25.8318195  78.2842560
  70.6458054  25.7354527  78.3908920  66.9137955  38.9376945  62.4981575
  66.4585419  39.4984169  63.1263084  66.2362747  38.3466263  62.1697693
   0.3884653  61.1221809  52.7482643   0.8366039  60.9099350  53.5670166
   0.3820898  62.0789375  52.7197647  59.9137115  35.8876343  36.8368492
  59.1024284  35.4160423  36.6480370  59.6252747  36.7479858  37.1415291
  50.1126862  34.7564430  57.0105324  49.4747124  34.8539047  57.7174416
  49.6813889  35.1355591  56.2447090  62.0556488   2.1126595  46.0450897
  62.4308586   2.2573972  45.1764679  61.7241745   1.2151471  46.0162926
  34.6227226   7.5014877  67.9241562  34.0321808   8.0965567  67.4622116
  34.2694855   6.6293540  67.7485504  10.9539948  63.3795547  47.7530746
  10.5968027  63.6869774  48.5862236  10.1898079  63.0792007  47.2611046
  69.6177063  16.9381447  79.2058868  68.7735596  16.7304840  79.6065521
  70.2266846  16.9882107  79.9426804   1.7045891  59.6072350  32.1406975
   1.4395633  59.7863045  31.2385178   0.9771008  59.9298897  32.6725693
  39.3024521   3.7662432  70.1207504  39.4530449   3.3392093  70.9640808
  38.7474594   4.5179105  70.3286285  59.5339394  69.1857529  70.0821915
  58.7934265  69.7775879  69.9494781  60.1615868  69.4312973  69.4024811
  84.8074799  -0.2941082  17.1099739  84.1804276   0.3856659  17.3568325
  85.1881866   0.0179314  16.2890434  41.5805588  10.6071510  63.8766556
  40.8685379  10.9012108  63.3085136  42.2383995  11.2996655  63.8141785
  56.8951149  54.8180428  74.3954849  56.3188286  55.3190422  73.8183136
  57.6626091  55.3779640  74.5124130   7.5490050  62.5074692  51.7583466
   8.2163544  62.7931557  51.1344414   6.7274446  62.8452072  51.4016914
   2.9862287  64.3337631  42.6015625   3.3552394  63.9467964  41.8076324
   2.1825302  64.7626724  42.3077240  46.7908287  25.7567101  84.6408310
  45.9793777  25.9794292  84.1845703  46.8695030  24.8080578  84.5403137
   9.1950684   4.2640958  14.6248322   9.4446211   3.6578853  15.3223019
   9.0189648   5.0894523  15.0765018  80.3636932  23.3001385   7.8467574
  79.5645370  23.3506832   7.3223228  81.0725937  23.2992020   7.2035723
   3.1803291  26.0844707  21.3539124   2.3894825  26.4869461  20.9950161
   3.7379210  26.8245392  21.5939560  10.6732931  24.1245842  23.1673470
  10.3217182  23.2937222  22.8475075  10.1254530  24.3419971  23.9215584
  34.9761696  52.2398109  23.1491299  35.0149078  51.4584198  23.7006359
  34.3514824  52.8144989  23.5915432  78.0932007  49.1282272  11.6729679
  77.4660797  49.8500977  11.6299877  77.6456757  48.4521408  12.1817503
  27.5928516  47.1235352  60.3141594  28.5137081  47.3299065  60.4743614
  27.4625435  47.3150558  59.3854103   3.6970432   2.0329027  32.4734268
   2.8484154   2.0161097  32.0309563   3.9654167   1.1148918  32.5116844
  49.5736084  11.0933170  70.6949158  50.1008339  11.4647942  71.4022064
  48.7960587  11.6503410  70.6578217  14.1710987  69.1080704  60.5260239
  13.5270271  68.4088058  60.6375656  13.6829405  69.8194199  60.1114082
  82.7055817  24.4083500  82.9099731  81.9340057  23.8435936  82.9541321
  82.3977509  25.2004070  82.4693832  78.9043808  30.6863613  37.7369118
  79.7593002  30.8801231  37.3524551  78.8751602  31.2147217  38.5345421
  78.0506363   7.7216358  87.3032608  77.3029022   7.6100345  87.8903351
  77.6637192   7.7695379  86.4290543   6.2481346   3.7541246  68.2143478
   5.9637198   2.9447701  68.6389465   7.1796260   3.6188138  68.0404282
  68.9229507  68.6817017  37.4340591  68.4340210  69.4988174  37.3365784
  68.2838898  68.0603714  37.7830467  49.4274559  22.4364605  52.0910988
  50.0880280  22.7951832  51.4984818  49.1422424  23.1859589  52.6137238
  58.9012527  42.4106598  85.1839905  59.2934265  42.8550949  85.9355927
  59.5655861  42.4697151  84.4974060   6.9371238  20.2764683  51.2303085
   7.8408465  20.0364819  51.4350586   7.0155396  21.0458660  50.6662941
  36.4599648  63.1811371  37.7658920  36.6428833  62.7920074  36.9107018
  36.3084297  62.4321709  38.3423576  71.2567673  45.9137421  48.5389481
  70.3074265  45.8174324  48.4633904  71.4471588  46.7503471  48.1145935
  47.0788918  13.7595987  30.0876923  46.8966827  14.1808710  29.2477169
  46.2148743  13.5581465  30.4470234  64.4588699  59.7961998  33.9059792
  64.9447937  59.0956116  33.4709053  63.8161736  59.3402290  34.4493561
  46.2833557  44.1154175  75.8701401  46.8011551  44.8133545  75.4688873
  45.8560295  44.5336838  76.6175919  65.1240463  59.8664474   3.5822120
  65.1826477  60.8216476   3.5624816  66.0293350  59.5730247   3.6851459
  51.7961311  15.6867294  76.0885773  51.1226997  15.1123648  75.7241211
  51.5221176  15.8326044  76.9940414  67.9817581   7.5197873  31.0142345
  67.2611008   7.0560675  30.5877876  68.0308990   8.3589163  30.5563278
   3.3826044  45.0918159   7.8102751   3.5871005  45.3923225   8.6957741
   2.4606466  44.8376427   7.8505430  81.6357346  40.9890404  43.2626648
  82.3795395  41.5190430  42.9761696  81.7202682  40.1720924  42.7710495
  10.2960348  51.2010994  81.4526520  10.9245195  51.8351097  81.1072922
   9.7176266  51.7182198  82.0132370  11.1091328   6.7396350  55.1318359
  11.0015068   6.9610643  56.0568314  11.8514776   6.1355891  55.1149597
   1.3965354  15.3802691  17.2083321   2.1928058  14.8561897  17.2950878
   1.5880630  15.9908886  16.4965076   5.6501937  18.3650532  29.3654118
   6.2160735  19.1004047  29.6005096   5.4150734  17.9663506  30.2032566
  16.5667992   9.0447779  15.7299032  17.3437576   9.5899458  15.6059809
  15.9116259   9.4249640  15.1447201  70.1819077  62.3894348  86.8031464
  69.5707626  62.0337524  87.4482956  70.4117203  63.2544899  87.1424026
  86.2945328  54.3319359  31.1337833  87.1326981  54.4586906  31.5783634
  86.1229095  53.3932800  31.2092896  66.0121613  35.2371407  29.6469574
  66.4591446  34.8545914  28.8919144  66.4816818  34.8889809  30.4049568
  41.3716278   1.4338787  56.4906578  40.5802689   1.7306563  56.9400024
  41.5274544   0.5546791  56.8355598  51.3460541  68.0419235  81.5247345
  51.3160553  67.3700562  82.2058563  50.4273720  68.2205353  81.3238602
  84.9135208  60.7941208  84.5076294  84.2495575  60.4058342  83.9378738
  84.8139496  60.3328362  85.3404160  47.1726875  43.9766045  47.1366577
  46.6176605  43.5494385  46.4841957  47.8486481  43.3291435  47.3369141
  35.4760818  69.7928085   5.0769386  35.2785034  70.2076340   4.2372270
  35.9741936  69.0088806   4.8454919  65.5405731  23.5766544  31.7132225
  65.4684067  24.3508587  32.2714615  64.6355438  23.3008022  31.5681095
  20.9169312  59.0260010  68.1391220  21.3704224  58.4951630  68.7939377
  20.1071320  59.2984276  68.5706787  68.3315964  10.6542635  88.4048233
  68.3981018   9.7088375  88.5389099  69.1532974  11.0035000  88.7498932
  62.8645859   2.1629097   0.8589635  62.0103760   2.5914085   0.9132462
  63.2729645   2.3344843   1.7075039  30.3175697  47.3057861   6.4900546
  29.8190556  46.9278870   5.7655487  30.9159985  47.9248276   6.0718398
  81.4686890  10.7969818   8.7071276  80.7207947  10.4715500   8.2061491
  81.3025131  10.5040379   9.6031208  48.8451500  50.1557617  54.7369766
  48.3285713  50.1294403  53.9315681  48.5136681  50.9194946  55.2092743
  11.5327892  70.7460480  62.8881798  11.2507582  70.4172134  63.7417374
  11.6562738  69.9592133  62.3572617  75.8052368  47.6269989  12.4387846
  75.2992020  48.4014435  12.1930227  75.2409821  46.8890381  12.2079878
  84.6040268  27.7215042   2.0226316  84.3693390  27.9768696   2.9147868
  84.0950775  28.3086987   1.4636984  69.0312500  68.1672516  42.5254822
  69.9108810  68.3592911  42.2005157  69.0398636  67.2257385  42.6978760
  12.5467339  26.4099693  16.8269138  13.0853014  27.1313782  17.1520996
  12.7743235  25.6690712  17.3886127  66.7302475  66.7904663  81.9428177
  65.9765320  67.0701904  81.4232941  66.8569260  65.8717957  81.7056961
  12.0453434   3.5719280  13.4554529  11.4947538   4.3529501  13.5110188
  11.5395145   2.9598277  12.9209414   7.9720111  51.1793633  58.9488754
   7.5486774  51.9189224  59.3848457   7.5877762  51.1661797  58.0722809
  81.4997406  21.6792660  29.3050690  80.5969543  21.4921398  29.0477867
  81.6967087  21.0282059  29.9785328  37.8206673  25.7746925  71.8809280
  37.2102776  26.4667358  72.1353607  37.5810280  25.0295086  72.4318466
  18.4226437  60.4817238  58.5143967  18.8710690  61.2642822  58.8349342
  19.1178055  59.8313370  58.4144897  22.8792267  49.6986046  53.9780846
  22.3908615  49.0873222  53.4266701  22.3089561  49.8491974  54.7319717
   1.1451025  13.5550766  26.0438652   1.0626085  13.0904894  26.8766823
   2.0448799  13.8815985  26.0398598  24.7096748   6.6538763  79.4652176
  24.5616131   6.5047712  80.3990707  24.1372795   7.3891993  79.2463760
  18.1522312  42.1567917  13.5687628  19.0753422  42.1976662  13.3189125
  18.1615257  41.8242340  14.4662876  53.9286690  53.0755196  39.9741287
  54.3346672  52.6336861  39.2283554  53.0080872  52.8163910  39.9338989
  48.1930237  42.3173409  19.0776463  47.9096947  41.4100533  18.9645672
  47.7728004  42.6000252  19.8898869  26.1465130  33.4067345  61.4786224
  25.9415340  32.6133766  60.9838562  26.1952972  33.1153145  62.3890762
  73.0994568  59.2615471  34.1953354  73.2743683  58.4430313  33.7309341
  72.1809692  59.4529648  34.0056839  72.6841202  21.9092751  57.9299469
  72.1954346  21.1133099  57.7205238  73.5337830  21.5944710  58.2384949
  82.3235855  23.4449100  68.8273697  82.7158890  24.3169384  68.7837906
  81.7198410  23.4906616  69.5687408   4.1064663   1.5065249  66.3485260
   3.6051438   2.2970517  66.5484619   4.8947325   1.8272313  65.9103317
   0.8465844   2.3754740  56.8706665   1.7789956   2.2864072  57.0679169
   0.5441365   3.0725162  57.4528084  80.5798416  62.2952766  61.9298439
  80.2103653  62.2063293  61.0513153  81.4792480  62.5880432  61.7829094
  58.6751823  12.2836332  64.4701920  58.9678612  12.0245991  65.3439560
  58.1089516  11.5665445  64.1848831   7.7759371  55.7167511  29.2039471
   7.4472532  56.3586426  29.8333702   7.1609316  55.7625046  28.4718914
  20.6300526  11.0900812  63.4033585  20.2255898  11.0586023  62.5363808
  20.8557339  10.1799383  63.5955544  51.1312790  69.5775757  78.8526154
  51.5918617  69.2692108  78.0722275  51.6228790  69.2041016  79.5841141
  45.8900261   7.3240137  51.4004097  45.6911850   6.8618102  52.2146950
  46.5409431   7.9799047  51.6501045  59.9923134  29.2911720  33.0104637
  60.6314278  29.3757896  33.7179985  60.4692421  28.8482933  32.3085899
  64.9502182  33.6100426  34.6902084  65.7089539  33.0673790  34.9048538
  64.2460022  32.9828987  34.5258789   9.5589542  61.6698151  56.9857330
  10.0112934  62.4711037  57.2494736   9.5053158  61.7279625  56.0318069
  37.7406883   0.4489975  60.6217804  38.4352760  -0.1268202  60.9414825
  36.9792938   0.2260490  61.1573257   3.4607818  59.6280518  19.6208496
   4.2110319  59.4509735  20.1883011   2.8085451  60.0200424  20.2015057
  49.5854912  36.9777603  75.4343872  50.5048828  37.2083015  75.3009872
  49.1697884  37.1525497  74.5900726   9.1194038  29.5480824  12.9481821
   9.2951488  29.1138153  12.1134615   9.9536219  29.5138168  13.4163036
  85.8566818  33.3777618  13.2410822  86.3144836  32.9911919  13.9875498
  86.5474701  33.5572472  12.6032515  10.2316437   3.7085271  43.3842506
  10.4050827   3.4721217  42.4730644  10.4577789   2.9232264  43.8826485
  50.8226624  38.7651901  67.4753418  51.7731018  38.7619438  67.3618088
  50.5890350  37.8413048  67.5652695  63.8920364  41.9152794  43.8633614
  64.6871643  41.3824806  43.8748856  64.2005310  42.8019180  43.6764526
  30.3261986   9.5053816  82.3600388  29.4949493   9.9712763  82.2695084
  30.9784565  10.1074476  82.0018387  33.9712906  14.8631487   1.6968553
  33.2403831  14.3787317   1.3129957  34.4601936  15.1953468   0.9439620
  38.7156143   8.9810619  62.7348442  39.0552101   9.8728094  62.8103065
  37.7679596   9.0914145  62.6573410  70.5367966  26.7133389  81.3770447
  69.9622726  27.4094601  81.0583420  70.4006119  26.7053490  82.3244705
  82.4407806  64.7387009  48.5636139  82.2489243  65.2473373  47.7757645
  83.2530289  64.2758713  48.3580093  42.4070015  60.5507088  50.1027145
  41.6488914  61.1292763  50.0204964  42.8245239  60.5792084  49.2418442
  75.7979660  10.1623001  74.7247162  74.9128723  10.5261221  74.7466660
  75.7601929   9.4050236  75.3089600  18.3987579  59.4238358  40.8148193
  19.0229816  59.6683769  41.4980278  18.8884468  59.5187798  39.9978600
  65.1001740  43.0182915  30.2271919  64.9149475  43.6341362  29.5182133
  64.5097275  43.2812195  30.9332161  27.7977982  20.9511452  81.7947159
  27.4063854  20.1855526  82.2153091  27.4380341  20.9472389  80.9077072
  83.8034668  55.0952263  79.8832855  84.6412735  55.1221695  79.4211349
  83.1499176  55.0073280  79.1894608   0.7653133   4.2806044  66.6037445
   0.6816107   5.1837077  66.9097290   1.6470464   4.2336826  66.2341766
  60.7670708  47.6052361  17.9021549  60.9864235  47.0379181  18.6412506
  59.8213577  47.5036774  17.7946835  34.0927162  70.1096802  70.3199234
  34.8016052  69.5718994  69.9670792  34.4028435  71.0098114  70.2208252
  45.5493698  48.4685936  55.8991966  46.4323387  48.8374367  55.8756065
  45.6322174  47.6833038  56.4402046  74.2172775  43.5749626  22.1490726
  74.5851746  42.7129555  22.3435707  73.3719635  43.3880272  21.7407589
  72.4924774  21.8418140  72.2761230  72.0258942  21.8528728  73.1118317
  73.3102341  22.3071194  72.4521942  66.6270447   3.4102035  78.1303940
  66.6605225   3.3462930  77.1759186  66.2294922   2.5861962  78.4118195
  17.2254982  52.1854897  85.7060623  17.4112396  52.7939262  86.4212875
  17.3245888  51.3178139  86.0979156  52.9628220  63.0610085  67.7830582
  52.1724548  62.7895164  67.3163223  52.8040848  62.8054123  68.6917419
  80.4272842  53.7258339  15.5647888  80.7745972  53.7642746  16.4559288
  81.0715485  53.2112389  15.0786304  53.3742905  59.5919609  81.5726166
  53.7088470  60.0852242  80.8236160  54.0022354  58.8790779  81.6897125
  38.0817375  44.2199287  63.8737640  37.5409851  44.9754677  64.1039352
  38.3279800  44.3707428  62.9611588  52.4619713  68.3608017  37.0090790
  52.9793701  67.9366608  37.6936455  53.0130119  68.3126755  36.2278824
  50.1432037  47.0965385   1.5247713  49.3830223  46.5251350   1.4158787
  50.8144760  46.7121620   0.9609631   0.4540647  57.5760612  49.3165054
   0.8885855  57.8392715  48.5052452   0.0658425  56.7246590  49.1149292
  69.4514771  33.9783554  14.2527113  68.9745560  34.8059464  14.1904869
  69.3386765  33.7047768  15.1630201  39.7539597  63.8258286  24.7787132
  40.0047150  63.0747185  25.3164768  39.6646423  63.4686470  23.8951530
  70.0189362  19.5380535  82.4712372  69.1991806  19.7526741  82.9164124
  70.0041885  20.0674152  81.6738739  15.4664345  68.0497437  21.0180759
  14.9439030  67.7026596  20.2950783  15.1366529  68.9391022  21.1465664
  73.8588943  16.7183800  21.8181686  72.9246445  16.7097778  22.0263443
  74.2878799  16.9176235  22.6503372  58.6005402  46.8891945  20.4823036
  59.5091019  46.9204788  20.7819195  58.5298805  47.6097412  19.8561630
  11.0407248  23.6226921  85.3934937  10.2444725  23.8403530  85.8780975
  10.7288818  23.3493328  84.5307922  69.1425018  22.6309566  64.8854446
  68.2996902  23.0552254  65.0463638  69.7919235  23.2666416  65.1860962
   1.5188717   4.6704631  17.2935638   2.4698398   4.5670414  17.2589893
   1.3196481   4.7432990  18.2269650  39.3401337  41.8362656  68.6189499
  38.9347992  41.4378967  67.8487320  38.8176956  41.5190468  69.3556137
  17.8573933   7.4706464  87.7445450  17.2560081   6.8679934  87.3070755
  17.5658855   7.4801650  88.6562271   1.3189619  46.8991356   5.4559422
   2.0331991  47.2844315   5.9635286   1.6451845  46.8847427   4.5561624
  57.1337547   8.5047483  68.8736420  57.3507690   8.5417557  67.9421005
  57.9086723   8.8535938  69.3141403  46.8306084  18.3068542  78.7512589
  47.2597084  19.0592632  78.3438416  46.0714035  18.1337109  78.1946030
  78.6108017  47.0448151  35.1438217  79.2506790  47.4099083  34.5326767
  78.2008591  47.8101158  35.5469284  44.3378563   2.3202872  12.0780945
  44.8069038   2.2236845  12.9068861  44.2004204   1.4229188  11.7746572
  69.4902802  36.4012527   4.1529346  70.3745728  36.6541100   3.8877592
  69.6130371  35.6013336   4.6641040  28.8704548  59.5440331  40.3619347
  29.6521969  59.1402397  40.7388458  28.1613140  59.2903290  40.9526825
  56.7325706  36.3576050  33.3207359  57.3917236  35.8607712  32.8360710
  56.6910515  37.2019539  32.8717537   9.7424536   7.2486243  45.9512596
   8.8140774   7.0164771  45.9726295   9.8446541   7.8920369  46.6525497
  34.4460526  14.0163107   8.6585979  34.4043846  14.5998783   9.4161892
  35.2966347  14.2011566   8.2603779  60.5379982  70.7375565  84.7945633
  61.3052635  71.0087509  84.2905960  60.3644409  69.8423462  84.5035095
  67.7573318  43.2193031  81.4330063  68.4172363  42.5597649  81.6469345
  67.3840714  43.4677467  82.2786942  50.7987099  64.9746780   1.2695255
  50.0584373  64.3778763   1.1597308  51.4669838  64.6399078   0.6715525
  80.4383926  32.7947388  65.1354828  79.8862000  33.3028831  65.7297058
  79.8729095  32.6043282  64.3870163  59.1107597  45.6869507  66.6717911
  58.1987953  45.9388428  66.8170547  59.0882797  44.7321358  66.6081085
  46.1585884   1.1006227  70.3769150  45.7722702   0.4007480  69.8504562
  47.0640755   1.1578436  70.0718765  55.1027412  41.7985420  25.3829861
  55.6734810  41.6317177  24.6328793  54.2827072  42.1056404  24.9963779
  48.0083466  24.9860554  71.5055008  47.8827782  25.9091206  71.2854614
  47.6176109  24.5098801  70.7728271   2.6421194  12.7500172  30.7918339
   2.2005589  12.9491291  31.6174297   3.4848289  13.1993418  30.8564911
  50.9204712   5.6587386  23.1130695  50.8518982   4.7091928  23.2125320
  51.8173981   5.8038611  22.8119144  79.5096664  67.9849167  10.0549946
  80.4421463  67.8590775   9.8792858  79.0960770  67.9461136   9.1926336
   1.7158023  50.6645355  22.1878700   0.9895835  50.8044052  21.5801907
   1.5798041  49.7785797  22.5237484  15.6637239  46.5813522  62.2670364
  14.9669189  46.0238152  61.9208488  16.2214108  46.7649651  61.5110588
  13.4637299  37.7441521  67.7121048  13.1094961  36.9944153  68.1902695
  13.5356579  37.4391212  66.8076630  25.8012981   9.2498255  68.5566254
  25.9032326   8.4663992  69.0970764  25.5828190   9.9434223  69.1790619
  44.9017563  40.1331940  33.4785233  45.1401024  39.6389809  32.6941948
  45.6892433  40.1138382  34.0223274  28.3063564   2.1997137  63.8229790
  27.8270397   2.8806887  64.2949524  28.9713879   1.9011807  64.4433365
  12.6307993  42.6022263  40.2957916  11.9430246  43.0639648  40.7753716
  12.2523861  41.7449913  40.1003990   2.5556800  48.2441635  28.2937717
   1.9380711  48.4684219  27.5977116   2.2002144  48.6678314  29.0750408
  17.3502007  29.6223373   2.8388605  17.1809292  29.4977589   3.7727015
  17.3472843  28.7371044   2.4747355  34.5663681  55.1725845  49.7415199
  35.2909279  55.4519997  50.3011360  34.1896553  55.9885788  49.4121666
  54.7229576  55.5215950  42.1540642  53.9170685  55.7518845  42.6163826
  54.5791817  54.6238365  41.8547440  74.1375580  56.5458832  43.8854904
  73.5058746  57.1643410  44.2525253  74.6984787  57.0811996  43.3242149
  65.0111084  61.5629196  31.6599312  64.3740845  61.3259087  30.9859428
  64.7475052  61.0555954  32.4276352  72.8038559  29.1958866  37.7779236
  72.5316162  29.7680473  37.0604630  73.0494232  29.7955036  38.4824677
   2.5931313  45.5529518  75.6754532   2.0634191  45.8460541  74.9340134
   2.5421393  44.5976448  75.6434479  16.6649914   7.8684506   1.2226419
  17.3064976   7.3483052   1.7065319  16.8596935   8.7739944   1.4641236
  61.6124535  44.7021866   3.4001076  61.6930695  45.3359795   2.6873372
  62.2984009  44.9502563   4.0199189  10.7677050  70.2739792  53.4819221
  10.7169027  70.5715485  52.5735741  11.3664131  70.8908539  53.9029198
  26.1623478  53.2353439  23.3713799  25.5020828  52.7666435  23.8818684
  26.9736137  52.7520142  23.5277996  57.1243668  40.1498756  53.3683090
  56.3868637  40.7600021  53.3763084  57.8328857  40.6360817  52.9466057
  53.8389168   2.4179482   7.8457160  53.8895721   3.1510587   8.4590797
  53.9805603   2.8145952   6.9861579  62.0734177  58.2987938   4.3831725
  61.9849739  58.7474747   3.5422821  62.7930489  57.6816635   4.2508392
  62.6520119   8.2999096  53.8004837  63.0863380   7.4491463  53.8620949
  62.9013519   8.7549267  54.6048622   7.0004773   3.5008073  88.8077316
   6.7677989   3.5661094  89.7339249   6.2800255   3.9326909  88.3487549
  40.6337318  54.6269417  39.5183678  40.8783417  55.4678917  39.1321030
  41.1157112  54.5936737  40.3446960  68.2894669   9.7987356  55.6633568
  67.5054932   9.2540779  55.7337761  68.8868408   9.2890415  55.1160049
  53.2474251  16.0161781  61.2185669  53.8748360  15.5404930  61.7629128
  53.7729759  16.3705349  60.5013084  55.2194138  29.8257141  37.0805054
  55.6926765  29.7223778  36.2549324  54.6931343  29.0297604  37.1561394
  72.5780334  30.1038723  68.0737915  71.8688126  30.1552048  67.4330063
  73.2302475  30.7302094  67.7598724   0.2788336  44.2775536  71.0232391
  -0.4348491  44.7701874  70.6180191   1.0737778  44.7238770  70.7315369
  64.3889694  56.8769493  76.9006271  64.1208191  56.9260826  75.9830704
  63.7958641  56.2340508  77.2893982  70.0926971  63.6134949  77.2162552
  70.0807266  62.9822922  77.9357452  69.5684967  63.2028465  76.5286331
  50.1321754  13.2269859  39.7131271  50.8004303  13.8757782  39.9338837
  49.8020515  13.5044155  38.8585625  32.9136658  64.6993179  65.8153381
  33.5135002  65.3302841  66.2132187  33.2683296  64.5516434  64.9386139
  60.8773727  11.9193258  60.7740021  61.1908302  12.0689325  59.8820419
  61.6064758  11.4821796  61.2139397  21.2236881  67.7971344  10.3504467
  21.0142212  68.7006302  10.5872173  20.9445210  67.2805634  11.1063881
  47.7978516  31.9259567   0.1780342  47.5652809  31.0392494   0.4535200
  47.0085869  32.4422836   0.3414344  43.2476120  50.9518204  56.8582535
  43.8278618  51.7046280  56.9714966  43.3661423  50.4359474  57.6557846
  80.6489487  46.5500908   5.4243674  81.5396957  46.4233665   5.0976491
  80.5060883  45.8157082   6.0214462  85.9877014  66.9293442  89.0997238
  85.8428497  67.1406708  88.1774521  85.1140213  66.9498215  89.4902267
  33.3135643   9.2018862  59.4971085  32.8788452   8.4137335  59.1714325
  33.2160187   9.1536102  60.4481010  85.3632965   5.2487197  34.9372978
  85.4801712   4.3574862  35.2663498  85.9442673   5.7823277  35.4794807
  11.2869053  28.7533836  66.4921341  11.2766991  29.4013367  67.1966095
  10.9117956  29.2114162  65.7399826   7.1172242  37.5469627  36.1244965
   8.0452127  37.7441025  36.2517967   6.9564948  37.7374077  35.2003059
  69.8971558   9.9098816  14.8822145  69.1555252   9.4130125  14.5367632
  70.6668320   9.4878855  14.5004501  72.2475281  46.2998772  21.7324982
  72.6169739  46.2600403  20.8503685  72.9355621  46.7024689  22.2623692
  26.7879448  23.0344715  78.9541245  26.1734772  23.4307709  79.5718689
  27.6213245  23.4702930  79.1323700  30.5191860   2.5974214  58.0447006
  30.6849461   2.2212930  57.1802444  31.2663879   2.3191023  58.5742836
  12.5952883  11.2883015   1.2714752  13.4998398  11.3879566   0.9746783
  12.2430172  10.5800400   0.7324923  26.5426445  43.6869011  58.1617126
  27.1696701  43.8642349  58.8628693  27.0714779  43.6786652  57.3639030
  52.8057175  66.6780548  39.3344040  52.8385124  66.5104523  40.2762451
  52.7252121  65.8099289  38.9393005  54.7820969  67.3348465  64.0393295
  53.9849892  67.2142334  64.5553818  55.3251152  66.5771561  64.2567520
  72.1662064  -0.1211642  60.8412170  72.3870087   0.0964099  59.9356041
  72.6367264   0.5273725  61.3649025   8.0815611  45.0053329  10.9588270
   8.7263708  44.3169403  11.1218290   7.2386284  44.5519981  10.9723072
  72.0935745  10.6122112  86.1212387  72.7986221   9.9671259  86.0664139
  71.4729919  10.3470316  85.4424210  46.3550415  18.7500648   6.2099047
  46.4901581  17.8162308   6.3709302  45.8801537  19.0598412   6.9811053
  69.8953552  38.8514824  19.7589264  70.4856110  38.1092453  19.8890018
  69.0806351  38.4577637  19.4467678  24.8010406  51.7712173  63.0290451
  25.1661949  51.0276337  62.5494843  23.8836231  51.8038712  62.7579231
   1.7870827  36.5114861  66.2151718   2.4486217  37.0200157  66.6842117
   1.5353738  35.8217125  66.8292465  68.3758087  58.0812721  36.6304245
  68.0205841  57.5374146  37.3334656  68.7946472  57.4596710  36.0350952
  49.6572037  53.0006561  87.7847672  49.4453850  52.8411140  86.8650360
  48.8188553  53.2260399  88.1880112  35.6705933  12.5998068  67.7584534
  36.3398819  13.0042076  68.3104858  34.8958931  13.1486320  67.8803482
  49.8540192   4.9627271  39.2485123  50.4420929   5.4926453  39.7866478
  50.1985359   5.0502996  38.3597641  71.1980286  49.4314232   3.6677842
  71.9224701  49.7005997   4.2325454  71.5683670  48.7436218   3.1146040
  18.1044445  54.7243347  15.4233122  18.4573593  55.3068581  16.0958824
  18.8676662  54.2513885  15.0915804  35.3031883  32.3619347  88.4345169
  35.6888008  32.0299339  89.2452621  35.4280510  33.3098373  88.4805145
  80.2317505  33.8375893   4.7691813  81.1728745  33.8515396   4.5950460
  79.8351517  33.6221771   3.9250598  69.5596771  50.6560555  78.6441498
  69.1407547  50.9525414  79.4521332  70.3824387  50.2606087  78.9320908
  60.6875191  26.0046844  51.7078133  60.4149895  26.9111023  51.8505249
  60.4048080  25.5425110  52.4969292  32.6493034  60.2603035  37.7692528
  33.2076225  61.0197868  37.6028366  33.1675606  59.7051086  38.3518333
  74.4171524  38.3061600  16.5730438  73.9675827  38.3468437  15.7289677
  74.3357315  39.1903152  16.9306374  32.1295853  17.1510277  10.7498608
  32.1120300  17.3888226  11.6768856  32.9094582  17.5863972  10.4056444
  54.1886253  23.0490627  16.0574131  54.9152718  23.1238079  15.4388456
  53.5659828  22.4639492  15.6259117  43.3840408  54.6479149  53.3400764
  44.3094330  54.8925781  53.3357964  43.3777008  53.7401581  53.6436691
  56.2914085  32.6576996  22.2100964  56.1282158  31.7646122  21.9067841
  56.9568138  32.5614204  22.8914165  72.7384720  12.2772112  13.1739492
  72.5869904  12.5113468  12.2582712  71.8914566  12.4120789  13.5989275
  52.4437332  36.8814201  80.8371811  52.3290520  35.9836731  80.5255203
  52.4990807  37.4068260  80.0389862   6.8738403  57.7655449  70.8704681
   6.4485102  57.6081429  71.7134094   6.4236908  58.5315819  70.5143967
  59.4634018  59.9981766  17.1568394  59.6141281  59.2669411  17.7558422
  60.1585922  60.6232681  17.3622589  13.2227306  24.4768753  24.0975819
  13.1098680  25.4270611  24.0722733  12.4301796  24.1305351  23.6875286
   1.6213082  10.4769745  30.3727379   2.2086332  11.2321806  30.4034767
   2.1988490   9.7307968  30.2118130  54.6920891  60.9098473  66.9893951
  55.6296806  60.8544388  67.1740189  54.4162369  61.7317238  67.3951797
  70.1065369  33.2284813  46.0615845  69.3155289  32.8147087  45.7161560
  70.4068985  32.6342506  46.7492676  73.4252243   6.9271941  73.6968842
  72.8479843   7.4534698  74.2501144  74.1424408   6.6694384  74.2760162
  35.2333717  45.9376640  34.4172173  35.9757843  46.5411720  34.3882446
  34.7175674  46.2284126  35.1693115  22.6627064  39.7849693  13.3939381
  22.9416809  40.4651031  12.7808933  22.5958309  40.2346001  14.2363119
  45.9617767   1.0619856  67.5550232  46.1824493   0.9820583  66.6270447
  46.3586159   1.8901160  67.8251190  52.8115845  61.3528824  74.0413055
  53.4384193  62.0753174  74.0039215  53.2473831  60.6847839  74.5704117
  21.7422504  29.2141476  87.1677475  21.4666996  28.6443043  86.4497070
  21.6514454  28.6725159  87.9517212  62.7873726  66.4320984   5.8164577
  62.6011276  67.3294601   6.0926628  62.2811584  66.3191833   5.0119534
  79.0593185  55.0170174  32.6174278  79.9929352  54.8075409  32.5907288
  79.0299530  55.9704819  32.6966629  25.2582626  70.6637650  21.5061321
  25.0209141  71.4607391  21.9801960  24.5190582  70.5051651  20.9190578
  31.9121914  13.5600729   0.7951581  32.0890274  13.3004684  -0.1090359
  30.9910412  13.8202858   0.7938490  31.5229015  21.3520985   6.9600964
  31.2460575  21.3996525   7.8751526  31.1068935  20.5578327   6.6249690
  47.3509445  54.6994591  15.6508694  46.9006996  55.5366516  15.5385208
  47.6322441  54.6996803  16.5658016  12.9556675  70.0611420  17.9351921
  13.7718821  70.5144424  18.1462593  12.3240871  70.3962860  18.5716019
  60.4084358   6.5182357  70.6324844  59.6031532   6.8853321  70.9971695
  60.1089706   5.8673630  69.9977341  15.3768854  66.6851807  31.2757301
  15.5259466  67.2205582  30.4963799  16.1470051  66.8391266  31.8229485
  22.2021408  52.5465317  30.5225754  22.3850307  51.6582832  30.8288460
  23.0577965  52.8940544  30.2709560   7.3357844  26.5654106   1.1184479
   8.0530777  26.8542690   0.5542824   7.1947870  27.2965698   1.7199124
  66.0661011  69.1532745  18.8276825  66.8579788  69.5412292  18.4553185
  65.3491516  69.6611481  18.4478436  72.1520767  57.4547043  32.1470375
  71.2230148  57.6397820  32.0098801  72.6073532  58.1552544  31.6799374
  57.3241882  23.0550194  80.4561768  57.5783768  23.0002460  79.5349731
  57.2875519  23.9938602  80.6391144  81.5831299   0.6773869  75.0584183
  80.7360077   0.7708466  74.6226654  81.9715576   1.5512453  75.0168457
   6.1339183  24.6656666  59.2766838   5.6345668  24.1995716  59.9472313
   5.6308966  25.4638233  59.1149826  68.9898300  26.0407867  53.2475319
  69.9048615  25.8633480  53.4653740  68.8262253  26.9171162  53.5961151
  86.6240540  29.4273396  82.4884644  87.4315338  29.8509293  82.1972885
  86.1589432  30.1075420  82.9755249  49.9674454  61.9013748  58.3587074
  49.9496651  61.2657127  59.0741463  50.6618080  62.5143890  58.6001778
  65.2029953   0.8578289  27.5246906  65.2334671  -0.0533173  27.2329445
  66.1050873   1.1666205  27.4403515  49.9362907  55.5103912  42.8979950
  49.6489410  55.1264267  42.0696030  49.1482315  55.5255127  43.4411011
  56.0872459  22.0100613  21.8952332  55.1697197  22.2773476  21.9494247
  56.4703445  22.5991802  21.2453060  66.7421646   0.9823835  82.0899582
  66.6920776   1.7144413  81.4752960  67.6615143   0.9546661  82.3550186
  46.3578491   5.6474743  14.9209986  46.0903168   6.1046457  15.7182770
  46.8821373   6.2889414  14.4415455  56.1528244  53.2705154  51.7143707
  56.6245613  53.3664436  50.8870277  55.9556084  52.3355408  51.7706146
  86.8908539  22.9563580  55.0877151  86.0600586  22.5268383  54.8839455
  87.1754761  23.3343410  54.2556381   3.9581015   7.2538195  55.8792763
   4.9150105   7.2693129  55.8614693   3.7415097   6.6264482  56.5690041
  20.8101406  16.8721619   5.6519060  21.4116020  16.6368542   6.3583813
  21.3685303  17.2721043   4.9852138  47.2259750   2.0053997   5.0016174
  48.1430893   2.2137318   5.1797476  47.0988541   2.2486343   4.0846066
  52.4944000  41.3672256  78.2406464  52.4243202  41.1056671  79.1587524
  52.0973701  42.2376137  78.2085953  64.9937668   6.7110314  49.4792099
  64.1601028   6.3606782  49.7930222  65.2909927   7.2882013  50.1826057
  11.7067451  23.9748058  76.1601715  11.6133337  24.0585136  75.2112274
  12.6322556  24.1537380  76.3264465  48.4996758  50.1330261  58.6867065
  48.2002258  50.4539490  57.8360748  49.3317528  50.5829773  58.8330650
  71.6914673  47.1437035  82.0009613  72.5038223  46.7665749  82.3387222
  71.2573166  46.4166908  81.5546417  44.3153915  50.7725372  12.7493954
  43.7105560  50.0532608  12.9311895  45.1238670  50.5248146  13.1979895
  58.7983856  57.6989021  34.4101982  59.4065132  57.1004524  33.9762955
  59.2828979  58.0242424  35.1689034  43.6439171  18.3863850  59.6604729
  43.0167351  18.3622360  60.3831711  44.4757042  18.1263981  60.0564117
  70.0287018  67.7906113  48.7907677  70.5027161  68.3787308  48.2028389
  69.5291824  67.2197647  48.2069511  57.5038948  59.2659950  31.5349751
  57.8732796  58.3860130  31.4613457  56.6745377  59.1398201  31.9959297
  60.7882309  10.0217180  51.6513863  60.6216431   9.0866966  51.7706108
  61.5929146  10.1862249  52.1429710  30.2072144   5.0840168  15.7974815
  30.6423912   4.3261786  16.1880379  29.9234123   4.7793779  14.9355745
  24.8345375  54.5220833  17.7472191  24.8254261  53.6537285  18.1498528
  25.5902023  54.9598656  18.1390762  50.8886185  70.7577896  87.3153610
  50.8973312  70.4002304  88.2032318  50.9211998  71.7064285  87.4388657
  33.3254051  42.2391586  56.0165100  32.8063126  42.4406815  55.2379456
  33.1235161  41.3234100  56.2085495  75.9518509  14.9767523  21.1508732
  76.6474380  15.4939966  21.5568905  75.1779404  15.5381536  21.1968822
  53.1385460  62.6005096  45.9203491  52.8281593  61.7996635  46.3428879
  52.4197311  63.2230721  46.0297050  31.5911083   5.3974400  55.8675766
  32.3860474   5.5797415  56.3686485  31.7270603   5.8439612  55.0318947
  84.1761627   3.3964560  52.9700317  83.7982635   2.6994233  53.5062828
  84.9473190   3.6835120  53.4590645  49.9660149  30.6824875  66.5519409
  50.4474258  29.8789330  66.7488632  50.0578690  30.7908554  65.6053467
  65.8243408  34.7792625  62.3700066  65.6521988  35.4175987  63.0621948
  64.9560013  34.5218544  62.0602303  13.5723524  47.2081337  72.3616409
  14.3575459  47.2386436  72.9082413  13.9059153  47.1554756  71.4659805
  54.7215614  47.2190132  68.8287125  55.6318970  46.9275093  68.8791885
  54.6592712  47.6646652  67.9838791  18.9383430  37.6715355   0.5886334
  19.4425335  37.0699921   0.0407538  18.7044086  37.1545067   1.3594705
  73.3249893   5.8210082  28.7423668  72.7377396   6.5219469  28.4594269
  73.6125946   5.4065218  27.9289055  62.3544273  66.5069351  20.9445801
  62.8873291  66.7517395  20.1880608  61.9423370  67.3251038  21.2220974
  72.3450470  61.4032707  51.1465416  72.4361267  60.6429863  51.7209167
  72.4428558  61.0488625  50.2627678  18.9289207  66.3227234   4.7062650
  18.0798683  66.5511703   5.0846205  18.7532845  65.5459747   4.1751833
  51.0990486   4.2397041  82.2948914  51.8573189   3.6988599  82.0741196
  51.2714615   4.5412288  83.1868439  36.4033089  43.2578659  10.6265335
  37.1207962  43.1903114  11.2565203  35.6684418  42.8162689  11.0522003
  55.8249512  41.7312088  32.0914803  55.7341003  42.5597000  31.6207581
  55.1475792  41.7640152  32.7669945  23.6143150  10.3150015  12.4178019
  22.9535236  10.7818604  12.9292974  23.1268711   9.9345179  11.6871433
  64.7936172  49.3485146  34.8298607  64.7771606  49.1914291  33.8857803
  64.6145172  48.4922066  35.2183037  72.4490280  12.8812389  10.4384127
  72.6463242  13.3907576   9.6524754  72.1642761  12.0297365  10.1066093
  49.6284866  60.2687111  62.9089813  49.4598541  61.1985435  62.7566338
  49.5693436  60.1670685  63.8589325  33.7817879  44.2041016  72.5858459
  33.3468704  43.3751907  72.7858124  34.4234810  44.3132973  73.2876587
   1.5727670  50.6171341   6.6259599   1.6460290  51.4200783   7.1418529
   1.9968129  50.8274612   5.7939868  86.9442673  59.0393295   4.7781887
  86.5564270  58.5385857   4.0605078  86.5043106  58.7129288   5.5631299
  50.5117302  14.2202787  10.4767828  51.3441620  14.6921988  10.4527636
  50.7360992  13.3562918  10.8223486  22.4272385  11.5286407  83.9194183
  21.9975166  11.9483643  83.1741638  22.2404995  12.1058607  84.6598129
  21.9498348  42.8336716  66.5340195  21.9802761  43.5359306  67.1837387
  22.0387173  43.2816429  65.6927948  55.9184570  63.5609550  12.4261303
  56.7519073  64.0115967  12.2900600  56.1655388  62.6694717  12.6719751
  33.1103020  59.7145691  16.0071373  33.9046326  59.6339035  16.5351143
  32.8947945  60.6466293  16.0395393  58.4118538   6.4607029  11.4117918
  58.4823532   6.9238811  10.5770893  58.1316910   5.5772405  11.1725559
  40.1065331   5.6162391  11.1460714  39.7751236   4.9890580  10.5033875
  39.3692665   6.2046213  11.3087883  28.2846508  19.9505997  76.1063385
  27.5462685  19.3538017  76.2282181  28.6037979  20.1208687  76.9925613
   9.7661943  26.1699352  79.6202469   8.9601116  26.0326729  80.1178589
   9.7476549  27.0976963  79.3854065  57.9899826  50.1141930  45.7128029
  57.4186592  49.4335976  45.3569794  58.5106697  50.4053192  44.9642296
  43.0699501  48.1772194  54.5599747  43.5531425  47.7792168  53.8358536
  43.7392006  48.6264153  55.0762672   8.6119146  59.6272316  62.9565048
   8.1756802  59.5748444  63.8069077   9.3345804  60.2393684  63.0953293
  69.8228149   0.4375507   4.1261778  69.9968185   0.5527819   3.1920071
  70.2618179   1.1780481   4.5447087  82.1513062  67.4213104  13.6561470
  81.5105362  66.9963684  13.0860004  82.9540787  66.9145584  13.5337381
  73.5925446  64.4089508  35.1976433  72.8440323  64.7863770  34.7355804
  73.6155701  63.4960327  34.9108047   9.1624365   6.1636782  76.7176666
   9.3422985   5.3402114  77.1713028   9.3898096   5.9886899  75.8044815
  67.1346817  48.2611732  46.8051300  66.2562485  48.1879883  47.1782532
  67.5159225  47.3903809  46.9174232  72.8503418  26.4335327  77.3356323
  72.9068756  26.1236267  78.2395096  72.2664413  27.1908169  77.3781586
  79.9249649  47.2408485  86.9325409  80.0531921  46.3300781  87.1976624
  80.3671417  47.3084908  86.0862961  10.6933813  47.2081909  29.1348572
  10.7483816  46.6084633  29.8788567  11.3068151  46.8504677  28.4930115
  80.7572174  22.8891296  17.7654381  80.9830170  22.0909119  17.2878475
  81.2424545  23.5818233  17.3171635  67.7827682  13.4173975  25.0975819
  68.3977966  14.0583258  24.7409554  67.0603104  13.9436035  25.4402027
  56.9927483  54.4687386   6.9423242  57.1884537  55.2753372   7.4191203
  56.0951195  54.2528763   7.1951008  62.7728920  36.2316666  69.5381546
  62.1706848  36.6805687  70.1315002  62.8230553  35.3384132  69.8784714
  60.5977097  25.5424423  60.4579887  61.5072136  25.7782345  60.2751236
  60.1062584  26.3502197  60.3089867  56.8174171  50.8287086   3.5142734
  56.5205307  51.3119011   4.2853856  56.9515152  49.9346619   3.8288143
  60.7526169   7.3359857  51.9509621  61.1447601   7.2890921  52.8228874
  60.3288307   6.4858689  51.8328972  32.9663010  29.3118858   5.1982522
  32.3160324  29.7606068   5.7386556  32.6189232  28.4263802   5.0912871
  39.5127144  23.5852776  64.1663284  40.4616013  23.4596176  64.1736145
  39.2237244  23.2772846  65.0253143   0.7156447  51.6554375  26.3576832
   0.1490191  51.4544296  27.1025085   1.0205030  50.8013725  26.0513115
   2.9726362  11.1962337  43.2320175   2.3621924  10.8230257  42.5961685
   2.9267259  12.1405506  43.0823936  45.6819344  54.5873413  34.3186874
  46.6027222  54.8297653  34.2206192  45.2295876  55.0839119  33.6367531
  57.0129166  48.4254265  22.1767349  57.4687920  47.7006187  21.7488728
  56.9048920  48.1385078  23.0835094  71.6581497  19.1745033  38.7304306
  71.4531479  19.9009914  39.3190041  72.3409424  18.6823120  39.1862564
  13.5449467  40.3947525   7.6654811  13.6263247  40.4776917   8.6156025
  13.7886114  39.4873466   7.4825268  22.8065052  49.1475601  24.3671265
  22.8832493  49.3188858  25.3057365  22.0265007  49.6327782  24.0980797
   5.1575527  35.0059967  88.3727264   4.7307544  35.6471558  88.9410477
   5.9750452  35.4275322  88.1076889  23.4494114   6.7585907  66.2558136
  22.6509132   6.3272247  65.9515839  24.0362167   6.0392590  66.4891663
  58.8831139  61.8837433   6.6349735  58.8865547  62.6277313   6.0327258
  59.5483971  61.2903442   6.2863965   3.0471523   2.4221761  58.2529984
   3.4807971   2.3766828  59.1051216   3.6393139   1.9621714  57.6580429
  60.0063057  25.4778862  56.5355682  60.3866768  26.2601814  56.9350243
  59.8980370  24.8657856  57.2634697  59.5320663  35.2945442  33.4822311
  60.1614914  34.8469315  34.0476532  60.0705338  35.8418312  32.9105988
   5.6360602   1.0414451   9.9758301   5.5018759   0.5188503   9.1851845
   4.9855471   1.7408929   9.9138823  33.7978630  21.7581444  80.9048080
  32.9612541  22.0916080  80.5805893  34.1694565  22.4866009  81.4023056
   0.2236848  52.8022652  54.1297913   0.8333167  53.2162895  54.7406616
   0.4271509  53.1987991  53.2826805  86.0217285  33.1897392  85.0102844
  85.6441956  32.6303062  84.3315048  85.5403290  34.0137939  84.9366226
  43.0550575  37.3595238  70.3272934  43.6526222  38.1067963  70.3002472
  42.1844330  37.7454376  70.2307739  37.0286407  48.3263626  27.1761189
  36.1336861  47.9899139  27.2218781  37.5218887  47.6355629  26.7336979
   9.9858427  52.8759995  71.4230423   9.3156414  53.3973618  71.8648987
  10.6228113  52.6741905  72.1084442  41.8230553  27.3122444   6.1321521
  41.7036171  27.7034740   5.2667584  41.8721924  26.3710690   5.9648018
  85.7355042   3.7581122   1.0118024  86.6737213   3.5991879   1.1153643
  85.6843872   4.5534234   0.4816147  33.6119423  71.3834610  53.3414764
  34.0610580  71.7922211  54.0813675  32.7496262  71.1490631  53.6845474
  70.5803375  63.6289330  50.9512444  69.7730484  63.1236153  50.8554573
  71.2519531  62.9737473  51.1407089  12.6336899   4.2106657  24.3519726
  11.7661533   4.2885337  24.7488976  12.4599552   3.9712913  23.4416180
  39.3747444  48.9564438  69.4790344  39.2216415  48.2011795  68.9112625
  39.8915482  49.5580864  68.9431458  33.8056259  48.9344139  26.6672897
  33.9847374  47.9970016  26.5937176  33.5311279  49.1955223  25.7882538
  56.4560814  66.5670929  35.3205528  56.0308075  66.2028351  34.5442200
  57.2524109  66.0461502  35.4240608  33.0234795  55.0650826  17.5914974
  32.3958359  55.7863770  17.6365471  33.8321152  55.4283257  17.9526005
  52.1354904   7.8032074  73.9274368  52.6529922   7.0353503  73.6849136
  51.3575287   7.4429979  74.3531876   2.4426365  58.0521049  46.7726059
   2.9199498  58.3840675  47.5330048   2.6632662  58.6602478  46.0671196
  48.0567589  65.8252335  46.1044693  47.5120354  66.5959702  46.2640610
  47.7006226  65.1552429  46.6880074  73.8582458  49.1431046  60.8592186
  73.9262390  48.9389038  59.9265289  73.6462936  50.0761795  60.8852844
  67.0511856  46.2904167  15.6524515  67.2717133  45.3611870  15.5882092
  67.4345245  46.5706558  16.4835663  44.1591187  67.6661224  62.0900040
  44.3965302  66.9638748  61.4844360  43.2060623  67.7266235  62.0247879
  57.0280838  66.3639908  51.4517136  57.9398270  66.1564865  51.6564102
  56.9879494  67.3199463  51.4795418  26.2597885  44.0258255  17.7966537
  25.6858025  44.3233948  18.5025063  26.8734989  44.7487144  17.6661663
  58.4561996  14.4540319  25.3169880  57.5803490  14.7407961  25.5756092
  58.5699768  14.8002987  24.4318962   8.4526587  17.2867985  86.9110336
   8.6691380  17.9019852  87.6116867   8.8189077  16.4521885  87.2034683
   6.2072663  56.5972481  88.4079056   5.8801737  55.9171410  88.9967117
   7.0841408  56.7965889  88.7359085  48.3962784  61.8197784  53.7667847
  47.5742416  62.2766228  53.9450836  48.1595688  61.1369934  53.1390877
  17.3968086  65.6299896  74.1166458  16.9079514  66.1999359  73.5230103
  17.1174030  64.7447815  73.8830414   5.1729341   1.8063958  72.1443710
   6.1189375   1.8060920  72.2903442   5.0757780   1.9550277  71.2037811
  46.4477730  38.9616089  22.2237244  46.2701530  39.8420486  22.5546455
  47.3605423  38.7965431  22.4600258  45.5519447  46.1598663  64.0216370
  46.2866135  45.6041794  63.7614288  45.8221169  47.0446739  63.7759666
  26.9027901  60.4111671  63.2590904  26.3081608  59.8098564  62.8106728
  26.9292698  61.1854553  62.6969452  79.8630600  18.5185623  57.5690536
  80.4729309  18.8782883  56.9249344  80.0355682  17.5770588  57.5625114
  73.3117905  36.4614410  64.4955292  72.8146896  36.9904327  63.8715897
  73.6720047  35.7469406  63.9702034   5.4038796  44.4420052  62.7610703
   4.5614014  44.6525040  63.1637497   6.0276971  44.4612198  63.4868202
  24.8994579  57.6959648  43.8588600  24.5968609  57.3183746  43.0329704
  25.0917110  56.9388962  44.4121399  13.4865074  15.6208591  21.0664921
  14.0269976  16.1726189  20.5011063  12.6183329  16.0226803  21.0341797
  61.4913101  65.1486053  28.6152954  60.7602997  64.5833359  28.3656406
  61.2862854  65.4248123  29.5085526  74.6935883   6.7843542  40.4331512
  75.4937363   6.7701712  40.9583206  74.9749603   6.5095143  39.5604973
  76.7080841  34.0841751  59.5107040  77.3877716  33.4358940  59.3263397
  76.9431229  34.8380814  58.9697685  28.8525944  36.1822624  73.7065506
  28.5924397  35.3635941  74.1288528  28.1800499  36.3334465  73.0424347
  53.8799515  42.4091072  68.8904037  52.9346237  42.2692757  68.8353119
  54.1213074  42.0764008  69.7548599  19.1048050   2.5102761  19.5427113
  18.2136250   2.3257809  19.2460785  19.4238853   1.6724488  19.8780689
  57.0320969  21.0075283  36.2892151  56.8891144  20.9268570  35.3461990
  56.9336433  21.9428596  36.4672432  26.3150845  66.4251251  50.5160027
  26.6680183  66.8769226  49.7494850  27.0367718  66.4207230  51.1447983
  13.3862953  25.1588840  84.0763626  12.8595095  24.7717438  83.3771820
  12.7718182  25.7082310  84.5630493  71.6051483  46.8034248  25.2873650
  72.3814316  47.2665329  24.9724884  71.7067337  46.7851143  26.2389812
  80.2191696  15.7198181  20.2861290  79.7987213  16.0720024  21.0706177
  80.2091675  16.4459515  19.6625404  61.1645241   6.0234122  56.0953140
  60.8311920   5.3355732  55.5191193  61.8715668   5.6036186  56.5853081
  30.0920105  41.7813301   4.0064631  30.0170708  42.0074806   3.0793867
  29.8725643  42.5902176   4.4688182  72.3901978  69.1361542  33.1813850
  72.1570816  69.8476486  33.7777596  73.3353806  69.2257233  33.0595703
  85.6214676  39.1279831  87.0784378  86.5176315  38.8562241  86.8802719
  85.1409988  38.9813271  86.2636566  68.5326538  69.8429184  14.0697021
  68.5886383  70.3577576  13.2646933  69.4132767  69.8847961  14.4425144
  33.9857979  43.4561119  17.9239788  34.3510628  44.3153763  17.7130756
  33.8882446  43.0226707  17.0761318  22.9277439  65.3713913  33.4134979
  22.6125565  66.0405426  34.0210571  23.0600510  65.8395691  32.5891571
  86.3097839  33.3575897  60.8531609  86.6927032  34.2340584  60.8156090
  86.2186508  33.1759071  61.7885284  69.7000122  11.8135948  73.4154663
  69.3111343  11.1910734  74.0298538  70.4626770  11.3561182  73.0615158
  26.2778378  25.8574162  10.5001945  26.3198032  26.7680073  10.7922478
  26.6304817  25.8747463   9.6104898  24.6397228  46.3636093  14.1442175
  24.4247131  45.8959885  14.9512691  24.4856415  47.2849808  14.3529558
  55.9138908  41.1612358  57.8974953  55.6537971  40.7114754  58.7014236
  55.1083107  41.2184143  57.3836823   6.8139181  35.6369438   5.2547088
   7.4859200  35.5103722   5.9245028   7.1198077  35.1218147   4.5081801
  25.4731674  20.0868950  77.0087662  25.4520206  20.2657890  77.9488602
  25.0360012  20.8402004  76.6117096  15.8439913  26.9281673   6.9435902
  15.9361992  26.1113701   7.4340725  15.9177923  26.6661243   6.0259199
  53.6108894  53.0380287  55.3219299  53.3201180  52.1263161  55.3434563
  53.3605118  53.3488007  54.4518967  14.7454576  15.8087177   0.3862548
  14.5116014  15.7983122  -0.5418802  15.6879358  15.6418715   0.3976669
  55.4105301  66.3672638  73.3771286  54.8998680  67.0940094  73.0203323
  55.0374298  65.5876617  72.9657288  84.6769714  31.2627296  83.4327011
  84.3773117  30.6891613  84.1380081  83.9695969  31.2395325  82.7882462
  40.9492149  33.0595741   0.0935651  41.5287666  33.5326614  -0.5035430
  41.1962357  33.3712654   0.9642311  36.2007294   9.7868319  86.1701431
  36.3395424  10.2937250  85.3701248  35.2727661   9.5531502  86.1476364
  11.9659700  53.2052803   9.3338223  11.4663248  52.5282326   9.7901077
  11.6816616  53.1393394   8.4222021  13.5532179  60.5665894   7.8042827
  13.0515203  59.7601700   7.9235425  12.9090433  61.2069931   7.5023704
  68.7323837   7.0852652  62.9384003  68.4573593   7.9401388  62.6070671
  69.0750275   7.2665305  63.8135986  16.2545319  46.9286995  12.6671000
  15.4623165  46.9144058  13.2041492  16.5142078  46.0099297  12.5988121
  24.4328918  58.7864647  52.4468460  24.6787682  59.3782234  51.7357903
  23.6257706  59.1598549  52.8009186  57.1789894  29.2671947  81.0564194
  56.4859810  28.6143818  80.9573822  56.7983894  29.9360619  81.6256256
  25.8487034  61.4755630  60.2342110  25.0653229  61.3547020  59.6976089
  25.8979149  62.4208145  60.3767128   4.2594657  34.1704941  15.3350239
   4.5005226  35.0780258  15.1492586   5.0490327  33.7861137  15.7159004
  53.1417198  40.4837074  44.1796875  52.7447739  39.6153336  44.1119041
  54.0379639  40.3625031  43.8661728  13.5145254  53.7206116  56.0926590
  14.2652283  54.1816597  56.4669685  13.8982010  53.1083145  55.4648705
  15.3605890  69.7020264  63.0316505  15.6738577  69.1209793  63.7248116
  14.8695784  69.1291656  62.4426079  32.7446098  50.7908897  57.7155647
  32.6885605  49.9776649  57.2138138  33.4687080  51.2708740  57.3136597
   9.4160519  55.3001633  55.6553345   9.7836533  56.0640144  56.0998993
   8.6181736  55.6262741  55.2390709  54.2489052  43.6263008  77.0720825
  54.5559731  44.5190315  76.9140472  54.3228493  43.1934929  76.2215271
   4.8605137  33.2761230  56.2327957   5.4652786  33.7549095  56.7995872
   5.0564718  32.3539162  56.3982391  11.2614727  36.4251328  62.9954414
  11.1991673  36.9584923  63.7878304  11.7686787  35.6584015  63.2620811
  24.6680622  26.0216866  65.6149979  24.2883759  26.8135014  65.2340775
  24.5429382  26.1259193  66.5582428  39.9479179  53.8603821  62.3538818
  40.2013664  53.3348694  61.5950432  39.6343727  54.6842117  61.9807549
  80.9056549  57.4351959  78.0724792  80.4041748  56.8888054  78.6776276
  80.4295349  58.2652359  78.0485229  75.5866470  58.2947922  58.8240623
  75.8341522  57.3974724  59.0472107  76.4096985  58.7154617  58.5753670
  10.0299845  54.8058434  69.4381409   9.1014957  55.0357132  69.4020844
  10.0817804  54.1225357  70.1064529  11.3003063   3.4647267  74.4246521
  11.1650181   2.6414657  73.9554291  11.3811626   3.2065933  75.3428345
  40.5627785  46.6407051  84.3424301  40.1742783  47.4172478  83.9395981
  40.2098618  46.6304512  85.2321396  30.2032948  49.2829094  24.5830212
  29.5587807  48.5753326  24.5958977  31.0494576  48.8368073  24.6181889
  68.1388550  23.0970230  45.9326515  67.9378815  23.0256138  46.8657837
  69.0667343  22.8705635  45.8694763  49.7391167  43.6791649  15.1508274
  50.6554451  43.9523048  15.1952019  49.6390114  43.3187866  14.2697277
  70.2207031  16.8868046  25.9265308  70.0188904  16.4605083  26.7594624
  70.4543228  17.7834282  26.1667824   4.3522043  61.4823875   9.5507164
   3.9579408  61.9677811  10.2754116   4.5095363  62.1438255   8.8769360
   9.9326553  47.1183281  40.5947456  10.7460537  46.6149521  40.6297569
   9.2701168  46.4841309  40.3207550   2.5497906  32.7926521  74.6078110
   2.0395029  33.3069878  73.9822769   1.8987206  32.4355621  75.2118225
   6.1735539  30.9158783  49.9691200   6.8104973  31.3136616  49.3755722
   5.3243127  31.2160683  49.6452293  77.8543015  54.1411209  48.6987419
  77.8397064  54.5113029  49.5813408  78.5188446  53.4533501  48.7384377
  83.0195236  54.8560448  28.4205055  82.3210373  54.9630890  27.7748375
  83.2674637  53.9338722  28.3544769   8.0199356  63.2384949  15.9607058
   8.6947079  62.6721191  16.3350506   8.3656206  64.1248398  16.0661831
  86.6935959   3.5741599  29.5114498  86.9615936   4.4911556  29.5708408
  86.2564697   3.5068803  28.6625519  82.4057312  26.7169456  52.0893173
  82.1602173  27.2938213  52.8126221  82.0762177  27.1597881  51.3073082
  54.1317368  37.3328056  55.8491898  53.2077675  37.2172966  56.0709267
  54.5503693  37.5617905  56.6789780  73.1345901  15.5191813  11.5081959
  72.4016418  15.4799404  12.1225843  73.0087662  14.7617960  10.9365606
  86.6147385  15.8642101   7.9875813  86.0202789  15.5991306   8.6894188
  87.3501663  16.2774620   8.4399176  62.5964622   0.4656613  41.9470100
  61.7979469   0.0538640  42.2772026  62.5675697   0.3201759  41.0013733
  44.8241348   1.1475608  43.3826065  44.6551971   0.9941275  44.3122025
  45.4722900   1.8518080  43.3700104   4.4778075  69.6854630  38.8189316
   4.7328181  69.3021164  39.6581268   4.8144059  70.5808945  38.8524895
   4.2633505  60.9680901  58.5718575   4.7805367  61.6779175  58.1912003
   4.7919803  60.1830826  58.4285278  54.0003204  56.5870476  18.8633308
  53.8027611  57.2271614  19.5470371  53.8445244  57.0562592  18.0436974
  80.9495087  55.5542717  22.1355915  80.8641281  54.6991882  22.5572262
  80.2579956  55.5651283  21.4738388  63.3152580  67.1616821  53.3485489
  63.6108589  66.4873581  52.7368774  63.6125069  66.8549500  54.2051620
  21.6908627  63.3342056  44.4833145  21.0825253  62.6669502  44.8010063
  22.3730850  63.3749008  45.1534996  73.5702362  34.1014519  25.2954884
  73.9602585  34.6302109  24.5994110  73.6343231  33.2011223  24.9768486
  54.0413361  48.3882179  74.4470825  53.3325500  48.3230667  75.0870972
  53.8402138  47.7145004  73.7975540  86.7060623  54.2915039  51.4646378
  87.3999710  53.8064842  51.0180130  85.8941650  53.9082947  51.1326790
  64.7159042  38.6652985  18.4349937  64.1881561  39.4638519  18.4292831
  65.2549438  38.7288055  17.6465549  55.8647919  69.1716309  15.6154699
  55.2938576  69.7596436  15.1209946  55.2810860  68.4834442  15.9347115
  17.9310894  62.8474770  78.6967468  17.2896881  63.4758224  79.0284424
  17.6967144  62.0207558  79.1184540   3.8213110   8.4117603  75.8453369
   4.2396593   9.0031824  75.2196884   3.5671437   7.6511183  75.3227921
  67.5062103  70.7871780  84.9208069  67.3295593  71.6760178  85.2290192
  68.1329422  70.4347153  85.5526352  33.7889824  34.0929413  75.0448074
  33.2738724  34.7551689  74.5839996  34.0672035  34.5250664  75.8523254
  71.2661285  16.3616486  61.7513771  70.3151932  16.2535133  61.7350349
  71.4327850  16.8992004  62.5256500  80.3660965  22.8892479  66.5912170
  80.9368286  23.3053360  67.2372513  79.9511032  22.1694736  67.0665436
  60.0717545  22.5646420  51.2950363  59.3880196  22.0495205  50.8667984
  59.6134377  23.0445805  51.9848480  46.3418579  32.7890015  76.6610107
  45.4541664  32.5266876  76.9047928  46.8554764  32.6669083  77.4594574
  73.2702637  28.1818066  87.5717926  72.9410858  28.0722008  86.6796799
  73.4975357  29.1097527  87.6309128  49.0735474  29.5935116  48.8772964
  49.7589264  29.7901783  49.5158958  48.8938141  30.4324169  48.4528389
  26.4625130  38.9711113   8.7558622  26.1234646  38.3125610   8.1495695
  27.1941071  38.5378418   9.1954956  17.9608593  -0.1389923  31.0796413
  17.2612038  -0.1851748  31.7312393  17.6336746   0.4724095  30.4198151
  48.8817177  27.4120007  47.1668282  48.9692001  28.1633282  47.7534142
  49.5268288  26.7815971  47.4872246  33.7208672  59.9184952  35.1247749
  33.3870888  59.8638878  34.2293205  33.0860214  59.4284515  35.6473236
  56.0271416   2.8991351  71.5944595  56.6260452   2.9524262  70.8496780
  56.5772896   3.0766828  72.3573837  48.6111526  70.5246735   2.4702549
  48.5039749  71.4752884   2.4374738  48.7114334  70.3269196   3.4014201
  77.3549042  71.2159653  49.7992058  77.1563187  70.9381638  48.9049911
  77.9231720  71.9787903  49.6924019   6.3787193  49.7218094  49.3707504
   5.6950932  49.0543289  49.4286537   6.4032421  49.9597664  48.4439240
   0.6963784  21.9284382  75.1496124   0.3466537  22.1560459  74.2881470
   1.3729970  22.5851059  75.3145523  16.4103909  40.5448570  57.1121101
  15.5401163  40.1683578  57.2428818  16.9808369  39.7882118  56.9767990
  64.0477676  51.1629791   1.1488211  63.7005119  52.0469208   1.0292737
  63.4970894  50.7796059   1.8314717  24.9323711  62.6406593  14.0614491
  25.4283123  62.1595802  13.3990011  24.1743431  62.9855537  13.5895662
  13.5363178  32.5374489   3.3844128  13.4557934  32.5407410   2.4306114
  13.0848703  33.3332748   3.6656370  10.2571030  34.9735832  58.5344849
   9.9855785  34.8600616  57.6236496  10.7824421  34.1967850  58.7263985
  85.1590652  68.7067032  16.3415966  85.1919098  69.5985260  16.6877098
  84.2992935  68.3789215  16.6053829  51.8736191  22.2246132  14.4503517
  51.9552460  23.1260872  14.1390438  50.9317360  22.0930805  14.5589361
  33.3963547  59.6935310  53.6626167  33.9337730  60.3007507  54.1712379
  33.7867432  58.8347130  53.8246765  50.8294830   2.3398483  72.0032654
  51.6352501   2.5808835  71.5462418  50.1703758   2.9439974  71.6614914
  65.6682892  59.0159187  51.6037865  65.9902420  59.6057663  50.9221268
  66.1831741  59.2415352  52.3785286  75.7374039  53.1056824   0.7880419
  76.2796478  53.7401428   0.3193584  76.0646744  52.2530060   0.5015675
  67.9554520  43.0095825  35.5718155  67.5590057  43.3371506  34.7644997
  67.2235489  42.9322433  36.1838303  67.3924103  42.0098343   1.1177483
  66.5089722  41.9195366   0.7605137  67.4128494  41.4073448   1.8612680
   3.0942352   3.8191969  71.1540604   3.2548127   3.4968421  72.0409317
   2.3269215   3.3302436  70.8567657  19.7393074  46.5786705  18.1134644
  19.2307510  46.0030518  18.6846619  20.2788410  45.9836349  17.5928211
  25.0829830  32.8344765  81.8241501  24.6502323  33.0399971  80.9954681
  25.2092285  33.6845284  82.2457047  11.4399452  54.1511345  54.2435379
  12.1963501  54.1939774  54.8285599  10.6828680  54.1751213  54.8287659
  54.8608170  41.7756538  87.6904984  55.0895729  41.5258446  86.7952347
  55.3612595  41.1744728  88.2421951  39.9455948  31.8250160  74.4466934
  40.7127228  32.3175926  74.1549530  39.4535255  31.6507339  73.6443710
  34.1568222   4.2446742  15.2982149  33.3639984   4.4146514  15.8069096
  34.0317802   3.3629527  14.9472685  34.3334656  36.9244308  81.9739685
  33.9729919  37.7081146  82.3888474  35.2569695  36.9234009  82.2257080
   7.2996273  38.9515305  14.3903084   7.6592956  39.7385635  14.7995157
   6.7766876  39.2795677  13.6587648  70.8050079  58.2011566  79.6524429
  70.6550217  58.1208153  78.7104797  71.7572098  58.1746216  79.7464752
  53.0235138  30.5833530  68.8590164  52.8116798  29.9387054  68.1838913
  53.1069908  31.4097652  68.3832932  21.4742298   5.2291460  58.0406876
  20.6720009   4.8898454  58.4375992  21.1739273   5.7202015  57.2758904
  52.9369507   5.0981197  57.3663368  52.8173904   4.1702943  57.5690155
  52.6538391   5.5547457  58.1585312  58.2240753  65.7707520  24.5091248
  58.0606995  64.8285675  24.5519352  59.0703850  65.8869476  24.9409714
  36.6160049  33.2769737   8.1678057  36.7089119  32.8698654   9.0291195
  37.5127602  33.4771957   7.8995366  75.8037109  32.0422974  88.8576965
  74.8669434  32.0499001  89.0542603  75.8598633  31.6814003  87.9729233
  10.6947517  14.6382971  69.6529312  10.3247738  14.7560768  68.7780151
  11.0362396  15.5013990  69.8867493  76.0188675  24.6041355  80.3349228
  75.6526337  24.8077736  81.1955261  75.5979385  23.7819061  80.0839539
  24.1828518  26.2155476  83.0026474  23.4026546  26.3685741  82.4696274
  24.8820858  26.0659351  82.3663177  36.5455093  20.1015816  84.8217087
  36.8799667  19.5423203  84.1205750  35.6610985  19.7750359  84.9872818
  20.1646900  45.7017517  89.0306549  20.6482468  45.9096565  89.8301468
  20.0813141  46.5401154  88.5763092  47.2854996  63.6468239  72.4811478
  46.9313240  63.3003960  73.3001633  47.7850380  62.9196968  72.1096878
  68.5198517  21.6357059  73.2526855  69.0301743  21.5783691  72.4449005
  69.0813446  22.1215858  73.8567352  43.7393646  55.1635857  18.4514313
  44.0010872  56.0288353  18.7661972  43.0848846  55.3422394  17.7761726
  41.5643806  58.7849350  44.0771141  41.4931870  57.9015808  44.4388504
  41.3052521  58.6900215  43.1605606  85.8005447  29.4554501  34.3044586
  86.5844421  29.4700699  34.8535652  85.9743652  28.7722111  33.6569977
  46.3057289  57.6227264  62.4601173  45.6908264  58.3362923  62.2899704
  46.9931221  57.7373161  61.8039207  54.9794388   4.4651117  48.3664970
  54.8371201   3.8307803  49.0690613  55.6820526   5.0283504  48.6910439
   4.3150516  53.9185295  30.5019436   5.0046186  53.3658333  30.1341743
   4.7770534  54.5237579  31.0820179  15.6288967  52.9291687  53.7789650
  14.8617630  53.1574211  53.2539520  16.3603458  53.3552246  53.3320999
  84.1418991  60.2622910  53.6480331  84.9611206  59.9926910  54.0632858
  83.7929688  59.4586296  53.2625351  64.1641006  59.7913361  68.2338333
  63.6195259  60.5558968  68.0464401  65.0373688  60.0390167  67.9300461
  40.4287987  65.5502625  41.6756248  40.4455414  66.3101654  41.0938263
  39.6591225  65.0532837  41.3984146  77.7717514  71.5925064  41.6852188
  77.2878342  70.7813263  41.8402519  77.8326874  72.0035782  42.5475082
   6.9665232  69.3835983  19.6809063   6.9677606  68.6045532  19.1247463
   7.6276107  69.2020493  20.3489132  53.0706139  21.6250858  30.1528072
  52.4303474  22.3333282  30.0843792  53.7025871  21.9353600  30.8013248
  79.1440277  58.0951881  65.1992645  78.3808899  57.5355949  65.0553589
  78.8681107  58.9595604  64.8943787  32.3055229   9.3617249  10.9055910
  32.2191811   8.4512177  11.1879950  32.3762741   9.3111525   9.9523497
  28.8980541  32.2358971  58.8011093  29.8327274  32.0299683  58.8156166
  28.5240040  31.6079178  58.1830788  41.5071373  -0.3546675  64.2232895
  40.9924622   0.3347725  64.6428299  42.1900330   0.1143620  63.7438126
  13.2824326   8.7453814   9.7138739  12.4160471   8.6760216  10.1148710
  13.8910398   8.7166281  10.4521170  11.5771523  48.4871216  17.5126877
  12.4746370  48.4767799  17.1800537  11.2799006  49.3860474  17.3719559
  77.1837692  32.4240837  32.1564903  76.8285522  32.7619286  31.3343525
  76.9814301  31.4886913  32.1383934  44.3780899   1.0350478  77.9304428
  43.4331703   1.0323130  77.7776260  44.7371063   0.5030646  77.2202759
  27.6726818   6.5746598  48.6532974  27.6415939   7.4207954  48.2068443
  26.9503899   6.0757961  48.2716408   7.1345344  12.8478174  41.8424568
   7.0117621  13.5540466  42.4768028   6.9828410  13.2605181  40.9922218
  59.2354736  59.4984856  21.2067814  59.1223221  60.3658638  20.8180923
  58.7628136  59.5449257  22.0378475   9.4866962  14.8768129   1.8909111
   9.9942579  14.0830517   2.0598965  10.0400114  15.5881376   2.2135429
  82.5338974  17.6055870  56.0335197  82.7433624  18.2627354  56.6972313
  83.3818817  17.2380924  55.7843361  37.5361366  34.9528160  86.0221329
  37.6856766  35.8449821  85.7092361  36.7027588  34.9998436  86.4906387
   3.5377426  46.3284645  78.1397858   3.3390682  47.2600975  78.2336960
   3.1004224  46.0709229  77.3282166  86.9687042  11.3113499  38.7197533
  86.5072479  11.5136337  37.9058914  86.8668518  10.3653173  38.8240623
  16.1083145  50.9371223  39.5501785  15.3358097  50.3838196  39.4347534
  15.8966360  51.4901161  40.3022614   7.0421968  27.8703022  78.1293793
   6.6287074  28.6601391  77.7809296   7.0240555  27.2492943  77.4011917
  36.3089104  50.9188843  14.1967421  37.0232620  50.9974213  14.8290138
  36.0839500  49.9885216  14.2038765  39.1950150  12.6260386  82.0297012
  38.9811974  13.4303703  82.5025253  39.4520760  12.9225645  81.1566467
  67.0690842  33.6323929  37.8575058  66.9099045  32.7100563  38.0579872
  66.2194901  34.0549545  37.9834290   1.1174195  49.6461220  44.5882225
   0.1695920  49.5425301  44.5038261   1.4709415  48.7762833  44.4021187
  10.3881140  60.7536125  40.9656715  11.0914726  60.2064972  40.6161308
  10.1035261  61.2828217  40.2205696  61.5973854  28.2969398  76.4199753
  60.8518028  27.7299023  76.2229919  61.2057953  29.0861225  76.7942505
   3.0476193  66.2021103  34.4447632   3.8063052  66.0787201  35.0152054
   2.4199631  65.5400162  34.7344322  47.0851974  43.4724731  27.4912243
  47.4057159  43.1949310  28.3494015  46.2421608  43.0293236  27.3956223
  18.4133034  70.6428986  25.6350002  18.6969757  71.0798874  24.8320045
  17.8343964  71.2755432  26.0602798  55.2085953  57.1805611   7.5680566
  56.1547127  57.0387955   7.5365157  54.8342171  56.3819580   7.1961589
   2.9694607  42.0665855  27.2041016   3.6487560  42.0229683  27.8770695
   2.1837032  41.7299042  27.6347542  43.2963104  65.4471970  57.4431419
  44.1183014  65.8048630  57.7787552  42.9447784  64.9324646  58.1695747
   1.2219468  66.6024323  76.0793381   1.6874261  67.1278763  75.4285965
   0.2957767  66.7431030  75.8827362  49.1161499  67.9259415  64.7367096
  49.8098869  68.4239426  65.1690979  49.5805588  67.3195953  64.1597366
  86.2017822  51.6425552  15.8788242  85.4704742  51.3831329  15.3183584
  86.8633423  50.9652138  15.7381763  23.8385372   5.5982237  39.8067436
  23.4959679   5.4189301  40.6823769  23.7932816   6.5506105  39.7222252
  55.1741943   5.0006394   3.3362999  54.7757492   4.7970705   2.4901125
  55.9695816   5.4854918   3.1160653  23.4176235  62.1026154  72.4014893
  23.9488640  61.4075737  72.0129852  22.6287937  62.1321564  71.8600998
  22.4528484   4.1232309  52.5591202  21.9732723   4.8870697  52.8797264
  23.2049522   4.0487514  53.1465073  79.8358612  44.3744278  86.9060211
  79.9345016  43.4371452  86.7386703  79.0044708  44.6055031  86.4917450
  63.6073647  54.3378639  70.3230209  62.7413521  54.1147842  70.6643295
  63.4876633  54.3785896  69.3742065  83.0054550  64.2331772  17.5086517
  82.7946777  65.1329422  17.7581024  83.9226151  64.2685394  17.2370052
  74.3773575  21.5927963  33.8906708  73.8373566  21.5142555  33.1042519
  75.2180481  21.2076664  33.6433868   0.9964929  59.8282433  29.6182919
   1.8198991  59.6735878  29.1553478   0.3222207  59.4979782  29.0245628
  56.0194931  52.4204178  68.7792206  55.3700142  52.8543243  69.3325195
  55.9354019  52.8510094  67.9284897  35.8022766  52.2691307  11.9227533
  35.9439163  51.5417709  12.5286551  35.4459801  52.9698715  12.4688730
  50.7621460   0.3945292  76.3212967  49.9806442   0.5770590  75.7995911
  51.2694893  -0.2164839  75.7869720  55.8607864  66.8299026  25.5377483
  56.6488838  66.2869568  25.5188770  55.1422234  66.2141418  25.3937149
  54.8943863   4.1731663  20.0114136  55.3453178   5.0134029  19.9283581
  55.1220856   3.8648171  20.8885155  40.6805191  17.7415638   4.5639329
  41.6222115  17.8452797   4.4272332  40.3950653  17.1765480   3.8459454
  57.4924126  10.5499840  77.9642029  57.3124962  11.0976849  78.7283249
  57.3909645   9.6531820  78.2830887  79.9535675  15.5105085  35.6161766
  79.2962646  14.9137077  35.9739609  79.6317902  16.3836155  35.8406143
  79.1215363  28.6645775  33.9821091  78.3754501  28.9637070  34.5018311
  79.8259735  28.5476379  34.6195450  42.8893738  20.4850750   3.7193096
  42.4067993  20.1133976   2.9809260  43.8104553  20.3614674   3.4900413
   8.3069334  42.5286980  76.5414886   7.6607366  43.0182381  76.0325546
   7.9136410  41.6640625  76.6596375  70.6836166  70.7940216  31.2459488
  69.7934494  70.5900421  31.5327072  71.2452316  70.2698975  31.8170128
  27.1706829   1.5182402  88.4708939  26.7494106   2.3752890  88.5359192
  26.4471931   0.8924748  88.5057068  28.2096729  45.9365501  53.2111053
  27.5574341  45.3846588  53.6426582  28.6395378  45.3541756  52.5847778
  54.5702324  50.4527321  29.2991943  55.2914314  51.0647926  29.4457798
  54.2743225  50.6401787  28.4083900  54.1006126   5.3268509  14.3115139
  54.4768066   5.8232946  13.5847025  53.5189590   4.6924901  13.8925905
  85.0024643  24.4094009  48.4126167  84.0850677  24.4510345  48.6825714
  85.3318558  23.6019516  48.8072815  10.6922197  13.6066074  16.4462891
  10.8971519  12.8375244  16.9780273   9.8882160  13.3705587  15.9835882
  26.8262997  60.9709663  73.6750031  27.5076694  60.5741425  73.1323242
  26.7634029  60.3968353  74.4383163   9.7632990  11.0100002  10.2084684
   9.7256365  11.4184122   9.3435907  10.6868086  11.0573578  10.4556942
  60.8570328  60.9160042  34.6911964  60.7763481  60.4855576  35.5423355
  61.3864746  61.6941566  34.8655624  80.2491455  29.6499596  46.0375366
  80.7741470  30.3279514  46.4628906  79.6589279  30.1321621  45.4584351
  12.1715651  64.1851044  69.0992355  12.5867357  64.8184204  68.5137711
  12.5770302  64.3451004  69.9514313  50.9207420  60.8611794  77.0600891
  50.6797371  60.0505753  76.6116791  51.7762909  61.0904121  76.6971512
  61.2539978  41.1371498  38.5420151  62.2050438  41.2158432  38.4675064
  61.1102829  40.7966919  39.4250031  72.6275711  21.0573044  31.7299480
  72.1917953  20.2272167  31.9230423  71.9200439  21.6415119  31.4573116
  19.9868965  50.8955307  64.3258057  20.1667614  51.4727058  63.5836792
  20.8354931  50.7853966  64.7547379  25.5063553  12.6469603  26.9057636
  25.7703457  12.1283464  27.6657505  25.7168751  12.0937891  26.1534901
  34.6717415   7.7225862  88.8987503  35.1734238   7.6609797  89.7116165
  35.2214470   7.2909389  88.2447357  43.6775131   2.1964328  47.9634705
  43.3430443   2.4742670  48.8162117  44.5933418   1.9712921  48.1271858
  20.3803768  59.5945702   5.3224440  20.8895130  58.8480797   5.0065923
  19.6793594  59.2030830   5.8435426  44.7252045  24.5565529   6.8244586
  44.2023926  23.9161854   6.3419342  44.5830536  24.3368416   7.7451925
  20.1521244  38.5818214   8.6877308  20.4932632  38.8722076   7.8418388
  19.2009716  38.6300278   8.5917196  61.4875183  58.5863113  83.7862473
  61.7423439  59.3252411  84.3387680  62.0401688  57.8633957  84.0832367
  46.2810936  14.3929005  56.0225372  47.0612984  13.8396959  56.0609894
  46.2816658  14.7462978  55.1329651  44.7397728  67.7128601  67.7141190
  44.9792366  66.7918701  67.8173828  44.2965202  67.7515182  66.8666077
  26.1380005  21.2530041  10.9652433  26.9866524  21.6923275  10.9103289
  25.5157604  21.9563313  11.1506701  19.4272556  24.8385048  56.9901772
  19.6630039  23.9213047  56.8508949  18.7230129  25.0026836  56.3630219
  20.4825993  12.4049673  22.6611385  19.8773060  13.0574989  22.3089256
  20.7570171  12.7637062  23.5050774  42.4069633  54.5163231  50.7411003
  42.5486870  53.5786362  50.8710785  42.1456413  54.8407784  51.6028824
  70.4336929  58.7794800   6.1755333  69.9220505  58.4611015   5.4318342
  69.8132401  59.2964668   6.6893373  54.0661659  38.4263039  18.0119190
  53.9983063  37.8909035  18.8024712  54.6241455  37.9165039  17.4245548
  40.2974892  36.2612686  78.9118729  40.1531258  36.5688667  78.0170135
  41.0767975  35.7086639  78.8523941  86.5826721  52.9820900  10.5510139
  85.6956635  52.7968941  10.8594751  87.1447678  52.4254112  11.0898952
  59.0751228  40.7462654  16.4919643  59.2362137  39.8293037  16.2695637
  58.1513786  40.8847389  16.2827950  67.8399887   5.2783771  14.5773602
  68.7615433   5.0331516  14.6600266  67.5983887   5.5983305  15.4465485
  82.5969467  32.2382660  87.3512726  82.9115372  32.3071251  88.2526703
  82.3190765  31.3264923  87.2635651  79.8386765  46.2433777  50.6192131
  79.5206604  45.6606941  49.9295921  79.7868195  45.7192078  51.4184570
  57.8873444  43.5680504  40.2789459  58.5427399  43.5470123  39.5816269
  57.2125587  42.9527473  39.9920654   1.0859771  33.6514664  17.6110859
   1.2040415  33.1110573  16.8298988   0.2965906  34.1623268  17.4318562
   4.5610766  24.3780384  36.9571648   4.8644705  25.2496147  37.2112122
   3.6694329  24.3250828  37.3012581  62.2495880  38.0387115  44.0501595
  61.7784843  37.6270981  43.3256798  63.1676979  37.8160706  43.8960876
  45.3203735  60.5961304  39.6410065  46.2730827  60.6086159  39.7327690
  45.1616211  60.0606880  38.8636208  84.0403061  27.1677532  81.7499695
  84.8092499  26.8918324  82.2488022  84.3056946  27.9886742  81.3353729
  29.6993046  42.9221420   1.4778082  30.1526909  43.6552734   1.8939681
  28.7833042  43.1973610   1.4400117  20.1462517   6.0887041  22.9995346
  19.8995838   5.2035818  22.7313080  19.3134346   6.5263686  23.1758881
  43.7529526  40.3117943  19.8962669  42.9370041  40.0383377  20.3154125
  44.1777267  40.8747444  20.5434799   3.6223662  16.5972729  76.2629929
   2.8473079  16.2528133  76.7066803   3.6812019  17.5068722  76.5552216
  75.0863342  52.8771782   8.3277235  74.6477280  52.1350174   8.7437248
  75.6728668  53.2179909   9.0030422  11.3878298   9.3816881  21.2369709
  10.9684658   8.6152563  20.8458862  12.2290659   9.0567713  21.5578823
  65.3630371   6.5811725  36.2568703  65.2171860   6.4577265  37.1948051
  64.5358658   6.9353900  35.9304390  16.7036743  55.9609337  33.9340248
  15.8748846  55.8114586  34.3889923  16.6994648  56.8960571  33.7296753
  18.3772011  18.0980339  67.0009918  18.4824028  17.8139687  66.0929871
  19.0773640  17.6493225  67.4749756  73.9149780  14.5312510  77.4319382
  72.9791565  14.6291332  77.6077118  74.0713882  13.5884333  77.4854279
  85.1386948  64.9680710  22.5818996  84.8820190  65.6952057  23.1490173
  85.5293274  65.3882599  21.8156910  72.5895996  58.7183456  16.2593651
  71.9589996  58.1730347  15.7890253  73.3285828  58.1350594  16.4322872
  49.1968079   8.0057116  48.5176773  49.4408913   7.9726448  47.5927086
  48.2516632   8.1570044  48.5107155  78.1925583  35.9110298  77.4653854
  78.8317413  35.4885635  76.8916168  78.7224503  36.3767815  78.1123199
  71.7247620  29.8958035   4.6936078  71.4298706  29.7730846   5.5959439
  71.1315994  29.3550205   4.1721320  78.0073471   0.4546377  71.5568161
  78.4228058   1.3141394  71.4869003  77.4219284   0.5321520  72.3101425
  64.5650635  47.2222328  15.2264128  64.0018539  46.7283211  15.8222980
  65.4333267  46.8364029  15.3425255  59.4890823  14.6707468  36.8435669
  59.6575928  13.7747841  37.1352654  59.2666588  14.5830374  35.9167061
   5.4023705  69.7534637  65.8360062   4.6715717  70.1247025  65.3416901
   6.1820107  70.1408615  65.4381104  69.6469955  69.6209488  71.4775925
  69.8709488  68.8462448  70.9619293  69.8679504  69.3816452  72.3776703
   1.8391967  24.9542236  31.7728024   1.0770122  25.4304142  32.1022720
   1.8566073  25.1489525  30.8357811  36.0516701  27.1526394   4.0296617
  36.9839096  27.1712227   4.2460365  36.0012093  26.6246281   3.2328625
  82.8833771  63.8633614   6.7264848  82.6558151  63.4137306   7.5402894
  82.2325363  63.5584373   6.0943017  31.2944660  56.8197594  32.7824860
  31.7901325  56.5700417  33.5623512  30.3776894  56.7474976  33.0480576
  78.7836075  54.1396065   6.0609126  78.3451538  54.8673820   6.5017433
  79.5998688  54.0220222   6.5468330  17.4820118  12.3885794  17.5808868
  18.0698490  12.2659693  18.3263035  18.0205498  12.8242807  16.9203014
  45.8096123  67.6357956  70.3522034  45.1882019  67.7094727  69.6278763
  45.9711189  66.6959229  70.4345627  22.1594925  16.4381351   7.8404737
  22.9119873  15.8498182   7.9026556  22.4293022  17.2232819   8.3168974
  47.1747971  11.6286964   6.2460542  47.4688530  12.3147755   6.8452702
  47.0882912  10.8506002   6.7967939  84.7997055  32.3468285  56.1032181
  84.2116623  31.5946903  56.1719437  85.1414413  32.3028603  55.2101822
   0.7562884  71.4299698  72.5016022   1.2988436  70.7150574  72.1688004
   0.8006792  71.3411560  73.4536438   3.4881024  28.1199741   7.1149464
   3.9370525  28.2105083   7.9554691   4.0560327  27.5462399   6.6006351
  84.0279770  57.6906776  24.7850513  83.6190414  58.1211433  24.0342541
  83.5157089  56.8920441  24.9115353  66.5296326  26.6337051  39.6343231
  66.3426056  27.3310070  39.0058136  67.0484695  25.9988518  39.1403618
  49.8107376  32.3302155  26.0052967  50.1862144  33.1523056  26.3206005
  50.4254913  31.6578941  26.2990570  22.8465042  59.0615997  65.7968597
  23.2249680  58.1825905  65.7783585  21.9827137  58.9421959  66.1916275
  56.9298096  57.3453369  43.0227585  56.1307030  56.8235550  42.9492264
  57.6358795  56.7321548  42.8185349  57.9559746  69.3859024  17.2627544
  57.2613106  69.2232742  16.6246147  58.6443062  69.8229523  16.7613354
  70.3489380  47.1637650  62.8211632  70.3136597  46.6432991  63.6237221
  70.5764542  48.0451775  63.1171074  80.1290283   7.1457834   8.0594578
  79.8201828   7.7709274   8.7152328  80.4439240   6.3995390   8.5695467
  45.4527740  39.9415169  85.7935257  44.5911255  40.2694435  85.5361176
  45.4964867  39.0622597  85.4177170  74.4622040  30.6808815   9.7034426
  73.6854477  30.1233673   9.6581259  74.5089264  31.0969715   8.8426762
  38.7985497  69.6056213  38.4895020  38.5804100  70.4242249  38.9350815
  37.9508438  69.2095032  38.2877121  47.9668770  65.8692627  30.8635712
  47.5689545  65.0625839  30.5362301  47.8422279  65.8301697  31.8118153
  32.5447121  30.4057045  63.8296432  32.1665764  29.8318729  63.1633415
  32.6862526  31.2372818  63.3772316  70.1598663  69.7718430   6.8239379
  70.2667999  69.3214569   5.9861126  69.9992523  69.0698013   7.4544692
  10.2716980   5.1293125  61.8522987   9.7526493   4.6878099  61.1800652
   9.7291794   5.8686604  62.1266518  86.4713745  39.3459930  82.0290146
  87.2983627  39.3772469  82.5100021  85.8350830  39.0236549  82.6673355
  20.8128796  10.3068619  76.9895706  21.5789337  10.1140680  76.4489975
  20.1969681  10.7286625  76.3904343   3.3953643  25.6827068  42.8508835
   3.8076749  25.9804134  42.0399551   2.5907490  25.2497864  42.5655632
  69.6950531   2.1703079  65.6804428  68.7865372   2.2857637  65.4020538
  70.0154953   3.0602415  65.8273163  69.9409485  38.7044907  34.4493523
  69.7681656  38.7574883  35.3893356  69.0930939  38.4871521  34.0618629
  12.6411800  58.3594742  74.9637680  12.6874104  58.8254051  75.7986298
  12.4316406  59.0380821  74.3220367  81.2105179  67.6899872  64.9331284
  80.4265366  67.4865494  64.4230194  81.4321594  66.8675995  65.3699112
  60.8316574   0.5534304  22.3397636  60.9317703  -0.2680066  21.8586712
  61.7279320   0.8552988  22.4873981   5.4501715  46.4606400  69.4677429
   5.6164422  46.7666245  68.5761337   6.3022833  46.1552277  69.7789688
  16.4893532   4.0184755  68.2610168  16.0052700   3.8019421  69.0578918
  17.3696194   3.6753957  68.4148331  57.5285034  59.0967789  75.5413742
  57.1162224  59.0060768  76.4004593  58.3290443  59.5933189  75.7111130
  46.8474121  35.3391914  88.7060318  46.2499886  35.9531136  88.2789230
  46.2843933  34.6240921  89.0024643  58.7124786  51.1176491  32.4597588
  58.9762154  51.5506897  33.2716408  58.4258194  50.2468338  32.7349739
  56.6119614  25.5890083  45.3011322  55.7636833  26.0116711  45.1669121
  57.0303116  25.6129150  44.4405251  25.3749104   3.6027718   2.9221945
  26.2591152   3.9336517   3.0800979  25.3943501   2.7027318   3.2474360
  60.3754578  33.2786064  51.0728111  60.7462425  33.6304207  51.8821182
  61.1370735  33.0491676  50.5403366  70.8069458  49.8805046  39.3536186
  69.9024200  50.1871262  39.4172974  71.1840897  50.0668068  40.2134361
  51.1657906  68.3212128   9.3452368  51.8446465  68.9550247   9.5769062
  51.6456490  67.5152206   9.1545858  32.3816147  55.7126503  44.9176788
  33.2196960  55.7784157  45.3754196  32.1118164  56.6207161  44.7803345
  31.0292110  68.9720764  76.1430893  30.6571751  69.7351227  76.5853424
  30.3612328  68.7140961  75.5078888  34.4579353  12.5324755   5.3058109
  34.3187599  11.8296700   4.6710467  33.9969063  12.2399092   6.0919962
  79.3292160  30.8129730  85.7786636  78.9971848  31.5864353  86.2344437
  80.0465088  30.4997787  86.3296890  76.2160110  48.3786087  57.5078316
  75.8437119  49.0065460  58.1269608  76.5266037  48.9160614  56.7792015
  52.7081566  48.7226524  11.3166866  53.2840691  48.3650017  10.6409302
  52.2268906  47.9641342  11.6472416  42.6231728  46.8364716  10.2808580
  43.1290474  46.9844131  11.0798798  43.2627563  46.9197083   9.5735865
  67.4101639  70.1827698  41.7235756  66.4792480  70.1672592  41.9457779
  67.6844330  69.2672577  41.7769508   5.0432053  71.6230621  88.0087357
   5.9899154  71.7381592  88.0907288   4.9094911  70.6781540  88.0829544
  49.7608337  51.8172607  74.6956100  49.7122841  51.0213623  74.1660614
  49.0078354  51.7599068  75.2837753  72.9694748  16.3559799  83.6499481
  73.2692719  17.2384663  83.4318542  73.2671127  16.2172832  84.5490646
  42.4718628  37.8411484  17.4030304  41.9173241  38.5119324  17.8014870
  41.9236946  37.4504166  16.7225380   0.7746437  27.9142399  13.4382095
   1.1527040  27.2124557  12.9083004   0.9101217  28.7064571  12.9183369
  44.2004471  65.6343613  33.9631691  45.0291328  65.5610504  34.4366035
  44.4313087  65.4685440  33.0491447   4.5725884  16.3359051  49.2799873
   4.9673815  16.8948288  49.9492950   5.1521392  16.4226856  48.5231361
  56.8358841  21.6859589  14.9403458  56.8444099  20.7350311  15.0494118
  56.7524147  22.0283756  15.8302984  62.5186615  44.4936752  35.9034615
  61.7514839  44.2522354  35.3844452  63.1736526  43.8305740  35.6854782
  55.3479118  53.0119743  44.7434349  55.2482643  53.7098160  45.3909798
  54.6690559  53.1904068  44.0926323  20.3195839   1.4827645  88.7126465
  19.8521233   0.8871128  89.2982330  20.9745941   0.9320335  88.2838287
  60.4090919  65.0807114  33.7321243  60.8465118  64.2564316  33.9453506
  59.8709297  65.2719574  34.5002632  15.7112532  49.3825455  49.7871132
  14.9150906  49.6959991  50.2161827  16.2188320  48.9776421  50.4904251
  69.8431854  29.9117832  59.8367004  70.4888382  30.3381901  59.2731972
  69.9505768  28.9772873  59.6594543  61.9513435  55.8356209  19.4727592
  62.6244011  55.5220528  18.8686886  61.9847870  55.2230530  20.2075233
  61.4332199  43.6716461  26.5549431  62.2931099  43.2526894  26.5189877
  61.2161713  43.8518791  25.6402645  16.0670586  60.2514038  53.9622078
  16.2596207  60.2943535  53.0255623  16.8914032  60.4880180  54.3872986
  57.4315224  51.0242081  40.0032921  57.9648933  50.6852112  40.7221985
  57.6696854  51.9494057  39.9439621  86.3803329  61.7446899  47.6578331
  86.0964127  60.8707390  47.3898163  86.4803543  61.6831894  48.6078072
  77.0950699  58.5587959  73.9701309  77.8347855  58.6643143  73.3718643
  76.4327393  59.1667747  73.6416397  52.4491234  12.6227131  76.4181519
  52.9462662  13.1385078  77.0530090  51.9427795  13.2701254  75.9275360
   6.4927340  28.3269653  14.0517731   7.2814126  28.7774429  13.7496328
   6.7797651  27.8288097  14.8170738  64.6228485  57.4019623   7.3143501
  65.0873184  56.5669518   7.2573261  63.7761459  57.1791267   7.7012253
  75.8022003  58.2608795  52.5846939  74.9388885  58.3720284  52.1864853
  76.0692902  59.1470757  52.8287277  28.5034122  68.7720413  79.5352097
  29.1186790  68.1115189  79.8536301  28.9722710  69.6012268  79.6292877
  46.7434540  59.7418404  74.7362289  46.9572220  58.9885254  75.2867279
  47.4583244  60.3600082  74.8880844  76.1205444  16.6140556  30.6416683
  76.8999023  16.4833813  31.1818142  76.3883667  16.3400459  29.7645016
   8.8262691  44.6978760   0.0643867   9.1593513  45.5208206   0.4222292
   8.0931616  44.4677963   0.6352174  23.9136105  37.8926468  68.3769608
  24.1558800  37.9076271  67.4510422  23.3035908  38.6234970  68.4767685
  77.5215836  41.1377220  69.4248352  77.7309799  41.8836098  69.9870071
  77.1397705  41.5295334  68.6393814   4.7205749  49.1425362  24.7710266
   4.6136222  50.0746155  24.5812473   4.6264744  48.7126923  23.9209614
  59.3790016   9.8439541  70.0103149  59.8098030   9.7091169  70.8543854
  58.7554817  10.5524158  70.1701050  35.1326294  10.2566519  63.2835350
  35.4064636  11.0172949  63.7960472  34.3387985  10.5446863  62.8328667
  65.5580063  16.3458233  17.6187916  65.6001358  15.3961220  17.7307129
  64.6290970  16.5295086  17.4787235  28.4799538  61.1842651  53.2780037
  27.8170395  61.0748482  53.9597702  29.3029938  60.9437065  53.7034073
  14.8813324  25.3815136  88.1268234  15.2991076  25.1424751  87.2994461
  15.1522570  24.6969128  88.7385025  69.2344971  59.0604630  73.2601547
  69.4602203  58.1360512  73.1565018  68.5038071  59.0607185  73.8784790
  35.7784119  54.2366943  36.9765892  36.2434273  54.4939575  37.7727127
  35.4316559  55.0571251  36.6260414  44.2741661  63.4453278  19.5141182
  44.0807762  64.3827286  19.5244484  44.8180008  63.3215256  18.7362061
   2.2284055  65.8858795   2.2298074   3.1528265  66.1287689   2.1780405
   2.0961001  65.6407166   3.1455708   8.7262669  27.2540703  86.9732895
   9.3060274  27.0334435  86.2442932   7.8595629  27.3327026  86.5746994
   5.2075944   5.9503131  12.9603662   4.9914241   6.2350473  12.0724306
   6.0653443   5.5338836  12.8762026  58.9044075  27.1278706  69.5951996
  58.2603378  26.5171890  69.9536362  59.3228111  26.6440468  68.8831024
  30.7547894  55.0939369  50.5585976  30.4470577  54.9248085  49.6681328
  30.8223515  54.2264328  50.9574776  36.7422218  44.9344864  17.3161545
  37.6543503  44.6484871  17.2666092  36.6445160  45.2701149  18.2072430
  14.2474976  49.8231773  68.5207748  13.3335581  49.5436783  68.5739441
  14.2071505  50.7049103  68.1504440  81.0473099  51.9209175  62.4902954
  81.4850616  52.2284927  61.6965637  80.3648376  51.3292427  62.1734657
  17.9569092  18.2118835  64.1470566  18.4157505  19.0471191  64.0571594
  17.4846935  18.1078987  63.3209610  66.7443237   0.9810237  50.2095909
  66.8726654   1.8169041  49.7611885  65.8875656   0.6773682  49.9096107
  51.7520485  62.2750893  11.4892626  52.2011185  63.1163406  11.5721207
  50.8428192  62.4651642  11.7203512  20.0324287  29.2743187  81.5181808
  19.6153679  30.0953484  81.2570267  19.7423820  28.6394100  80.8632050
  48.6010056  56.4410782  88.7160873  48.6311646  55.4862213  88.7758713
  49.5170555  56.7046394  88.6287842  45.3983383  36.9267693  25.0032387
  44.9370728  36.1729202  24.6355705  44.7056580  37.5548820  25.2079468
  55.6691093  14.1884356  69.0896378  55.0767097  13.5736666  69.5224838
  56.4260902  13.6575279  68.8419495  72.1733170  19.5355434  17.8999767
  71.5933914  20.0304375  17.3211861  72.6608429  18.9573708  17.3132324
  83.8603134   0.6197425  66.9630051  84.7118759   0.9311679  66.6562729
  83.3654175   0.4477881  66.1619186  43.6034279  58.9748192  68.0587387
  43.1835136  58.5402069  67.3164291  43.1072388  59.7852478  68.1737747
  73.2018509  37.8782997  27.4262714  72.8788147  38.5362587  28.0418739
  73.9330215  37.4618912  27.8825951  51.9470367  66.6837158  31.7800236
  51.1471138  66.4564056  31.3060112  52.2496758  67.4916840  31.3655052
  15.9315710   8.1119747  66.5769730  15.3507462   8.6583424  67.1064606
  16.5018730   8.7350359  66.1266632  71.1139374  51.9528275  68.9263840
  70.9332886  52.4021301  69.7520523  70.9355850  52.6089516  68.2526474
  11.4288025  21.4234219  26.7510242  11.9163713  21.9174328  27.4101620
  10.6179333  21.9180241  26.6323166  12.2252913  16.9420338  84.7543640
  12.3534765  16.8796329  83.8078461  11.5227375  16.3197231  84.9424591
  72.2325439  14.3931313  87.9563370  71.6940079  14.8391151  87.3026505
  72.2715149  15.0043411  88.6919556  30.2836857  66.9709625  80.5553436
  30.5566921  66.0536575  80.5712738  31.1032734  67.4651184  80.5730286
  63.7588120  67.0066833  18.5962906  64.2926178  67.6575089  18.1405354
  63.5444717  66.3596268  17.9242725  79.2036514  60.5836830  31.2768021
  79.9552841  60.8317223  30.7385101  78.6257858  61.3461914  31.2471676
  81.5866699  37.1671371  68.6423798  81.2087936  36.3141365  68.8564529
  81.7871323  37.1126022  67.7079926  17.5054493  34.3509941   3.7360156
  18.4423733  34.2940826   3.9235356  17.3880119  33.8295670   2.9419415
  49.1988678  62.8160019  62.6139908  49.2551689  63.5806313  62.0409279
  49.1881714  63.1803055  63.4990883  71.6744385  64.2516479  60.5715981
  71.9701233  65.1389008  60.3676567  70.9895782  64.0733414  59.9270782
   5.5912976  23.8628139  52.8114929   4.8847928  23.9531612  52.1720238
   6.3488383  23.5890369  52.2943764  54.6579590  71.0045395  13.9290028
  54.8004875  71.7936478  14.4517059  55.1302681  71.1692810  13.1129045
  75.8896027  28.7687149  11.0240383  76.6879501  29.2073421  11.3181267
  75.3818741  29.4576321  10.5952806  30.3289509   1.6667259  29.3105659
  30.9054871   2.4299970  29.2751312  30.4264603   1.2528940  28.4529705
   8.5079880  17.5482426  65.6319656   7.9671621  17.2437172  66.3606644
   9.2242022  18.0271206  66.0490341  67.3602829   6.1205540  68.8294296
  67.3654785   5.2703447  69.2691422  67.9490967   6.6644068  69.3526459
  77.7458038  32.2333488  55.7154999  77.4615402  33.1117477  55.4628258
  77.1622086  31.9902325  56.4342117  37.9512978  65.0931778  56.6800804
  37.8502960  65.5861816  55.8658485  37.0702057  65.0634460  57.0529404
   2.2593513  48.3019638  33.0939293   2.2987843  47.4191818  33.4618645
   1.3353709  48.4312057  32.8799477  29.7104721  47.2472649  73.8198242
  29.5236111  47.0541039  74.7385178  28.8484631  47.3161163  73.4094162
  21.5336819  12.3291283   5.6689477  21.0382137  12.5701838   6.4516578
  20.9482231  12.5381060   4.9410763  24.8352203  10.6320915  83.1309586
  24.0708809  11.1124077  83.4492569  24.5972271  10.3642569  82.2433472
  25.1075993   3.9427834  88.0551605  24.1886120   4.1430840  88.2328491
  25.5949841   4.4812202  88.6786804  58.9726143  67.0211792  88.5655136
  59.5480461  66.5056381  88.0004349  58.3118324  67.3785477  87.9723129
  43.9888344  42.2686806  15.9207230  44.1687965  43.2082062  15.9544964
  44.6573486  41.8764229  16.4823780  34.7274361  70.6008377  73.3603516
  34.1987495  70.9690323  72.6524277  35.5485077  70.3469009  72.9389343
  73.4410019  15.6723270  68.0826492  74.2676392  15.2912874  68.3787918
  72.7857285  15.0014353  68.2743683  27.8905220  49.9742508  26.3052330
  27.3344727  49.8190002  25.5417290  28.7757854  49.7733231  26.0016384
  37.0475845  48.6420975  11.2625694  37.7659760  48.9762726  11.7996674
  37.4266739  47.9012642  10.7896099  42.5900459   7.9824467  83.8683777
  42.4936714   7.4129186  84.6316452  43.5359955   8.0849743  83.7639542
  51.4909935  25.6112785  71.2524033  51.7515144  26.1519489  70.5067215
  50.6161461  25.9248772  71.4815903  55.9113617  68.6747131  18.9005070
  56.6624031  69.0620346  18.4508972  55.7895241  69.2206802  19.6772327
  10.4576731  58.0721092  78.9580078  10.3341951  58.9501419  78.5973892
   9.7062788  57.5735054  78.6370163   0.4926253  50.4098358  74.1747818
  -0.3390821  50.7894173  74.4583588   0.2639439  49.8701096  73.4180603
  72.3863373  45.9498940   8.9078474  71.5478134  45.7689743   8.4831390
  72.4908218  45.2415504   9.5431137   2.4587765  50.6520004  53.5276756
   3.2250328  50.1134224  53.3301468   2.3326793  50.5522041  54.4712715
  61.2460060  27.1796513  89.0801315  61.1283340  28.0633278  88.7315598
  61.3407936  26.6268654  88.3044510  10.7218151  16.5844555  20.9073887
  11.0200491  17.4543571  21.1730137  10.2393017  16.2548351  21.6655216
  29.7525597  59.0708199  13.6535254  29.9547558  59.9242363  13.2700825
  30.2657719  58.4488564  13.1377678  12.0824394  71.1260147  85.5614700
  11.4106445  71.7452240  85.8469620  12.3427467  70.6693573  86.3614273
  60.5818138  26.0266209  13.7711477  60.3711548  26.8061562  14.2851334
  59.9137535  25.3878841  14.0200357  71.7057495  38.3865891  74.7936935
  72.2797546  38.0254402  75.4692078  71.5626450  37.6598549  74.1873856
  23.8653488   2.1532903  61.9003792  24.4300976   1.9831077  61.1465073
  23.1769695   1.4910898  61.8382912  22.0728397  54.8856926  51.7735367
  22.4020290  53.9913139  51.6843414  21.3178501  54.8060036  52.3565216
  84.9238510  63.5830536  84.4094849  84.8250732  63.9485970  83.5303650
  84.8637848  62.6361122  84.2832794  13.9551725  21.8324928  64.5494995
  13.5454111  22.5840378  64.1211166  13.4823856  21.7412052  65.3767624
  31.0138149  46.6309853  45.6698685  31.5765610  45.8583145  45.6196289
  31.1629868  47.0900879  44.8433075  50.3493118  46.1318550  49.4360580
  50.3336449  46.0128441  48.4864120  49.6345291  46.7435265  49.6126137
  21.1593857  13.6929760  10.4514875  20.3611584  13.5011482   9.9592819
  21.8346786  13.1622267  10.0289745  58.4888878  54.4176369  67.5898895
  58.3906670  53.4731636  67.4692535  57.5941238  54.7567062  67.5642242
  15.0910320  50.2985344  28.0986557  15.3104849  49.7136078  28.8238659
  15.7766953  50.1425400  27.4492226   6.0981789  25.6334553  49.5023079
   7.0174279  25.8797741  49.6049728   5.6125741  26.4366455  49.6902008
  38.3110733   5.9381962  58.7539787  37.5912476   5.5757575  58.2375298
  37.8844986   6.3379722  59.5118980  13.5419121   2.1068130   1.2989719
  13.5802879   1.7693850   0.4040410  13.8706331   1.3888240   1.8399581
  49.3212280  39.9930878  21.9837704  49.7148018  40.8626289  22.0561123
  49.9825439  39.4003906  22.3409882  68.5038681  12.3612041  54.3228378
  68.3644180  11.5232630  54.7640152  67.6516876  12.5773115  53.9442711
  77.9123917  66.7401199  34.1698570  77.9435806  66.0985870  33.4601440
  77.0184326  67.0813904  34.1451149  13.3607340  14.4940882  79.7182846
  14.1396494  14.0411024  79.3952866  12.6497631  14.1732950  79.1634445
  76.1365814  60.4837532  29.1576195  75.7519836  59.6883583  29.5259514
  77.0549088  60.2588005  29.0082893  29.5573444  61.5505753  33.9453468
  29.8102226  61.3090172  34.8363762  29.1626263  60.7565689  33.5848160
  25.7061520  36.3840752  63.9358978  25.8975773  36.6554947  63.0381660
  24.9709721  35.7770042  63.8509674  41.7641182  49.7143288  23.2970352
  41.4355125  50.3493652  23.9334126  41.7711372  50.1895599  22.4661694
  55.4613800  58.4868355  71.7169571  54.5138206  58.3971176  71.6153870
  55.7341881  57.6756401  72.1456375  10.3947754  46.0510750  81.8897095
  10.9709024  46.7892380  81.6911545   9.5793819  46.2535210  81.4310379
   3.5054369  69.5013123  48.4838905   4.0319138  69.0080261  49.1129532
   2.8111310  68.8952713  48.2252846  66.0985870  47.1259689  86.1100540
  65.2892609  46.8196411  86.5191956  65.9249039  48.0416031  85.8916931
  12.6289921  31.2133331  78.5662079  12.7609158  30.3245983  78.8963242
  12.5038252  31.1026268  77.6237030   1.9071217  42.7404289  48.9929085
   1.4201456  42.0043983  48.6223030   1.6897857  43.4808731  48.4265709
  65.4338760  10.5971670  62.8209190  64.7865677  11.0725355  63.3417282
  65.0492554   9.7298288  62.6943398  85.4915161  51.4324913  55.7414513
  85.6065979  52.0388222  56.4731255  85.9073410  51.8711319  54.9992142
   4.4003539  66.0650940  85.1167755   5.1047153  66.7098007  85.1835480
   3.8462026  66.2360458  85.8783035  51.2295761  23.6795635  50.6647606
  51.1618156  24.1978798  49.8628960  51.6762810  24.2555199  51.2852135
  24.5566978   3.2319033  13.8872852  24.9484005   3.4321182  13.0371590
  24.9732170   2.4130490  14.1560268  55.5575180  62.4650040  36.8630829
  55.9432869  62.5449562  35.9907188  56.3047981  62.3178062  37.4428520
  32.5628929  68.7994995  80.4722595  32.3273087  69.7269669  80.4953766
  33.2249641  68.7034149  81.1568451  38.9343491   2.0275745  23.6852398
  38.0535889   2.2942190  23.9486656  39.3676262   2.8441982  23.4369888
  56.4653625  40.2079620  62.8243790  57.0168762  39.6705208  63.3929062
  56.4142532  41.0535393  63.2700500  44.4917526  47.4713058  12.3595686
  43.8368492  47.8819008  12.9241428  45.1930122  47.2105255  12.9566088
   6.9080410  43.9796066  27.4950924   7.7373853  44.0297737  27.9703846
   6.9434471  43.1383934  27.0397472  72.6341934   3.4573810  80.1659164
  72.0652161   3.5431740  79.4009781  72.6398315   2.5193067  80.3562241
  22.1579762   6.3943233  81.6715240  21.8243198   6.0450249  80.8451538
  21.9976292   7.3363342  81.6155243  50.8462486  69.6939240  66.2022324
  51.3516731  70.4480896  65.8989029  51.4924850  68.9938049  66.2941513
  33.4171066  20.5409679  66.6005096  33.2172050  19.6300964  66.8163376
  32.5722084  20.9210682  66.3598785  11.6047430  28.3525715   7.7746005
  11.7760334  29.1406708   7.2590504  10.6502075  28.3022137   7.8251700
  83.7879410  39.1011925  67.9878159  83.0088577  39.2829208  68.5133972
  83.5149612  38.4082222  67.3865662  11.0193129  68.3115845   2.1993423
  11.1965485  67.7625885   2.9631646  11.1861000  67.7401352   1.4497674
  60.7566299  64.7157669  80.7350159  60.9907532  65.0761642  79.8797226
  60.2083397  65.3896179  81.1369171  28.4733505  30.9558067   1.3519515
  29.1701412  31.5229378   1.6822200  28.7199593  30.0783329   1.6442801
   3.3202388  44.6196518  64.3390350   2.9724970  45.4290733  63.9646683
   2.5743010  44.0198708  64.3475266  20.1737614  51.8981857  86.5824585
  19.5141010  51.4711952  87.1290512  19.6690388  52.4499016  85.9848862
  67.2640915   9.3707142  49.5056419  67.5669708   8.7708969  48.8239441
  68.0658722   9.7555876  49.8595390  41.9756622  57.8448982  24.8180618
  42.6470261  57.2363205  24.5096226  42.3438988  58.2231598  25.6165295
  59.6845512   3.9184084  78.2905884  59.5134773   3.0192816  78.5708389
  60.6353188   3.9605691  78.1881714  76.2498398  47.8285370  82.1159515
  77.1602020  47.6976204  82.3811417  75.7434998  47.2891846  82.7233734
  86.0287552  70.9742050  87.9200668  86.4974060  71.7944717  87.7659378
  86.4513931  70.3436661  87.3369522  52.9548683  70.2406540  10.0787544
  53.3075867  70.4230042   9.2077961  52.9973183  71.0809937  10.5351152
   0.9667372  16.8010826  87.6381683   0.2904389  16.6034698  86.9902496
   1.2332855  15.9455605  87.9747162  10.5494299  47.7624588  63.9574547
  10.9434252  46.8955879  64.0551071   9.8230886  47.6282234  63.3486519
  57.2321701  43.0224113  34.4862099  56.4631577  43.5740623  34.3429222
  56.9183426  42.1305428  34.3368378  81.2319565  42.7886162  23.3863659
  81.3060684  42.0589180  24.0014095  80.7597733  43.4645958  23.8725052
  13.6296921  54.5781898  52.1505699  12.8667021  54.5611267  52.7283134
  13.3413067  55.0792809  51.3876953   4.2391901  55.5177383  46.6851578
   4.5280609  55.9769211  45.8965263   3.7362742  56.1707458  47.1718674
  74.9729004  53.6656685  11.8026953  75.3084793  54.5620270  11.8153868
  74.0858078  53.7469711  11.4524202  85.5976257  26.9383659  54.5369072
  85.8850403  26.1826916  54.0244751  84.6913376  26.7382698  54.7710724
  42.0776367  61.7040939  73.3883514  42.6639709  62.4575768  73.4569855
  42.4410400  61.0615349  73.9976807  37.1851387   6.9635763  87.2460175
  36.8065681   7.7555380  86.8642883  37.9710770   6.7987046  86.7250977
  52.3133774  52.9923744  36.9862404  52.4875755  52.0603943  37.1177788
  51.4388504  53.1264725  37.3515511  50.1721306  35.9876556  67.7677078
  50.1586456  36.1012535  68.7180481  49.2574615  36.0828819  67.5021057
  28.7336025  10.3721361  71.3320770  28.7606525  10.1748419  72.2683334
  29.1636715   9.6243677  70.9172134  64.6356277   6.5008187  64.5370560
  65.4800415   6.2825012  64.9314346  63.9879341   6.1686244  65.1586380
  57.2832603  52.2181358  81.5604630  56.6271706  52.8586006  81.8353806
  57.4082375  52.3889122  80.6269531  68.0291595  34.0098114  31.2162361
  68.5747299  34.7868233  31.0944424  68.6494446  33.3126259  31.4293251
  50.0424805  29.0543213  45.0964699  49.4647865  28.6842194  45.7639465
  50.1900063  29.9563236  45.3808212  43.8325844  33.8093109  62.6131287
  44.4484787  33.7239799  61.8853760  44.3297157  33.5293312  63.3817024
  51.8097305  70.6479568  52.8644180  52.6998329  70.9421692  53.0577774
  51.2595711  71.1246872  53.4859314  46.4901237  71.3007126  46.3137054
  45.6838417  70.9827347  45.9074669  46.9766998  71.7053757  45.5955696
  21.4950428  57.3258553  50.1803932  21.4602222  57.4702110  51.1260071
  21.3772926  56.3814812  50.0777779  20.3497753  27.4502029  76.1717911
  19.4801922  27.1760483  76.4631653  20.1831608  28.1768589  75.5714264
  84.9945068   1.4064057  82.6773453  84.5071030   2.2097690  82.4949265
  85.3324280   1.1324358  81.8247147  58.7728653  31.2095985  74.1218414
  59.5792809  30.8461304  74.4876556  58.9976883  32.1123047  73.8964386
   2.1558204   0.4410112  48.3876991   2.7609594  -0.2528282  48.6496658
   1.3473759   0.2451492  48.8612900   0.2021452  16.7212257  14.2816505
   0.0973890  17.2314758  15.0847082  -0.1607499  17.2795773  13.5940590
  73.1633530  50.1509399   1.0744867  73.4820557  49.8716927   1.9327896
  73.1219406  51.1054344   1.1332973  54.9721642  20.1235733  71.9810791
  54.5526772  19.7410507  71.2104034  54.5104179  19.7337132  72.7233887
   8.4973583  15.6567955  55.4062920   8.3719044  16.4502640  54.8858109
   7.6195164  15.4307404  55.7137413  60.5107040  44.3632050  63.9538193
  61.0792503  44.9041977  63.4058113  60.4075623  44.8661537  64.7616806
  53.8334656  68.1833572  72.1739883  54.1262169  69.0083313  72.5612183
  52.9325752  68.3540955  71.8992615  80.0095367  18.1766949  69.0407104
  79.5355988  17.7600441  69.7604446  80.8460922  18.4390182  69.4248886
  17.5693932  10.3453226  58.7589645  17.3944378   9.8153772  57.9812889
  17.3372192  11.2366858  58.4985847  63.0065727  14.9153595  39.7171898
  63.5638847  14.4490671  39.0941277  62.3633614  14.2641230  39.9971886
  67.7284241  32.0111351  45.2921333  67.0162430  32.1479950  44.6673965
  67.4419708  31.2677898  45.8228073   7.0040951  21.8987503  74.1674576
   6.6053133  21.0848980  73.8594818   6.9268298  21.8576031  75.1206436
  42.2138367  66.7736664  75.1089935  42.9048996  66.4600067  74.5256577
  41.5630112  67.1602249  74.5231400  55.9667244  15.4611702  26.7168674
  55.1351700  14.9953632  26.6286831  55.8773689  15.9590178  27.5295143
  34.1789856  58.2205925   2.6313622  34.4700546  58.3463631   1.7282058
  34.8876762  57.7277222   3.0449679  74.6828690  39.3034134  80.7349777
  74.7234955  38.3536148  80.6233292  74.4767227  39.6385460  79.8623886
  76.8641663  10.1075592  79.4205475  77.6363220  10.2801666  79.9592743
  76.2764893   9.6164026  79.9946747  53.2122231  10.4379158   4.1368737
  53.6537247  10.2348127   4.9615293  53.8446884  10.1954451   3.4605403
  38.9999084   8.0870152  83.6855316  38.0676575   8.1612158  83.4814911
  39.4092865   7.8513331  82.8530045   4.4434562  30.9162617  34.8300629
   4.5394387  31.5664463  35.5259628   4.4652457  30.0740795  35.2844696
  15.1439943  13.1950846  70.1443863  15.0772924  12.2402363  70.1374893
  15.0542173  13.4480925  69.2256012  53.7557945  54.8001823  73.8656464
  54.2077751  54.6116104  73.0432129  53.1832504  54.0454559  74.0028000
  69.1871490  56.4199982  20.1047840  68.6014557  56.8009567  20.7590523
  68.6488800  56.3437195  19.3169460   5.0491071   7.5754147  10.5718021
   5.8915987   8.0170212  10.6786842   4.4094524   8.1892176  10.9328012
  58.7211609  53.1500359   9.9765606  57.7866554  52.9693527   9.8751631
  59.0833549  53.0388985   9.0975285  67.4170914  14.4913616  47.6826668
  67.1471634  15.3235283  48.0710869  67.5076981  13.8974390  48.4278374
  61.7724457  21.4484711  45.7168999  61.1974983  21.9914112  46.2562332
  61.9543266  20.6806126  46.2586975   6.5927811  52.9553452   8.3475800
   6.4657068  52.0241280   8.1661568   7.5053883  53.1228333   8.1123600
  80.7607498  49.5663643  10.2464809  79.9086609  49.9915047  10.3435822
  80.6990356  49.0929031   9.4168673  48.1870804  70.2490845  43.0384827
  47.8484383  70.8212585  42.3498840  48.4246445  70.8444824  43.7493248
  34.1986389  61.0930634  65.6722870  33.9443741  61.7230301  66.3466187
  34.8634338  61.5494881  65.1565781  12.9596186  43.4433289  29.4520626
  12.0977268  43.1575279  29.7548714  13.3314123  42.6716461  29.0248566
  11.2963219  45.9151955  53.0185242  11.1562777  45.1524582  53.5796394
  10.7727022  45.7371750  52.2372704  14.0821915  68.0430450  42.9668083
  13.8181076  67.4350433  43.6573296  14.7097063  67.5486832  42.4394913
  37.5110397   2.7930763  50.2771988  37.3752670   3.4790087  49.6235237
  37.4759369   1.9767432  49.7786026  63.4354820  64.5334778   7.4556870
  63.0857620  65.2834320   6.9745398  64.2301025  64.8660889   7.8730345
  77.1953049  12.4354725  74.1436005  76.7378693  11.6192722  74.3456039
  78.0340271  12.3588800  74.5984802  24.8242245   0.8145325  44.5618057
  25.4610615   1.1211888  45.2072792  25.3553448   0.5271829  43.8191261
  50.5774231  39.5700684  71.3077621  51.1017838  40.2948189  71.6483688
  49.9140854  39.9907532  70.7607346  19.9591675  62.6117172  14.7165604
  19.1377029  63.0870895  14.5922689  20.1419811  62.2218361  13.8616896
  18.7944927  51.4105759  39.7209244  17.9376564  51.6261520  39.3526955
  18.6378860  50.6284370  40.2500381  17.8524895  26.5959663  77.1445770
  17.4449501  25.7832794  77.4440460  17.1464462  27.2417622  77.1707230
   4.2467256  35.8992920  70.0289536   3.7472670  35.0836487  70.0676498
   3.5996020  36.5656738  69.7978745  49.9357719  28.0376339  55.8380661
  50.8897629  28.0603752  55.9130211  49.6291809  28.6673565  56.4905090
  67.1987152  40.0625458   7.8484163  66.3643036  39.6033630   7.9439635
  66.9629135  40.9134140   7.4787502   2.7250357  42.9771729  74.7990952
   3.2383833  43.3761940  74.0966110   2.2604527  42.2551842  74.3758621
  47.4055824  49.6973991  52.5444336  46.5339661  49.5274391  52.1871796
  47.8321838  50.2446060  51.8850327  53.0763664  65.0692444  61.9427147
  53.4046516  64.6827927  62.7545738  52.8965950  64.3191223  61.3759499
  41.6742172  68.5264282  69.9770889  41.4644051  67.6096344  70.1551437
  42.0429459  68.5205536  69.0937729  32.7269592  47.9975395  61.4617958
  31.9054680  47.6011200  61.1715622  33.3994255  47.5714302  60.9303360
  73.1910019  30.2506905  44.5652428  73.2920914  31.1227474  44.9467239
  74.0017166  30.1074200  44.0769348  25.6299591  37.2870369  80.3620529
  26.0292416  36.7079277  79.7128754  26.1403351  38.0950356  80.3083344
  19.9507236  68.1067047  44.1841965  19.7174664  67.4581680  44.8484497
  20.8900909  67.9829865  44.0481339  77.1585083  56.6336975  18.4827461
  76.4024048  57.1943550  18.3089466  77.2993622  56.1605263  17.6626873
   9.1943808  68.6927490  25.2279739   8.7332973  69.3464508  24.7023220
   9.1017189  69.0014420  26.1292820  29.9666405  38.6957016  87.3347778
  30.6213264  38.6863289  86.6365433  30.2795544  39.3611183  87.9475937
  80.6311874  18.8562393  31.5625496  80.6886597  18.1183414  32.1695404
  79.6957169  19.0526981  31.5122509  83.0440826   2.3439920  69.4050293
  83.9379044   2.3727908  69.7463303  83.0459976   1.6103556  68.7902069
  82.3158875  51.0150223   7.1823187  81.6051102  50.7079620   6.6195202
  82.7702103  51.6734390   6.6566687  78.0935059  13.8437662   0.8693094
  78.6906281  13.4267693   1.4904362  77.5175095  13.1364918   0.5791045
  14.6149426  25.5343246  76.3748932  14.2908363  25.1736984  77.2002029
  15.0658321  26.3403549  76.6263733  41.6998901  61.6902580  64.9907837
  42.5300827  62.1643906  65.0377960  41.9420433  60.7713394  65.1055908
  25.8577118  66.9517822  68.2053452  25.7109070  67.8241196  68.5710068
  25.3356152  66.3696823  68.7574387  68.0600662   2.9352994  86.4446411
  67.8262405   3.8630700  86.4164124  67.4574203   2.5175796  85.8293686
  51.5822258  18.2919712  59.0915108  52.4601631  18.0315056  58.8129196
  50.9939232  17.8172092  58.5043716  39.1298561  29.2283802  79.2289581
  39.4748497  29.4760189  78.3711166  39.0001030  28.2818012  79.1707687
  21.4834061  25.7070599  10.0352192  22.1024380  26.1738701  10.5965748
  21.0111065  26.3990154   9.5722256  67.8552933  50.7496300  43.0854340
  68.3421326  51.5565338  42.9177170  68.2360764  50.4035301  43.8925629
  79.0215836  70.5491180  18.3589153  79.6176300  70.3897400  17.6270981
  78.7793732  71.4712677  18.2740955  41.2162781  26.0821495  64.7647171
  40.9008560  26.5663261  65.5278091  40.4288406  25.6893730  64.3880157
  39.7420616  60.8128662  23.3636627  39.5790634  60.2917824  24.1498795
  39.4938736  60.2380486  22.6396351  80.7654800  66.0673370  67.8688354
  81.4428711  66.0883713  68.5447998  81.2377930  65.8586197  67.0628586
  43.5876770  55.4671745  70.0642014  42.7803955  55.6122055  69.5707474
  43.6919518  54.5157814  70.0785904  52.2715302  49.6442528  42.0099411
  53.0079193  50.1369896  41.6477623  51.9787827  50.1658020  42.7572823
  50.7842941  44.0216179  74.5134888  50.3482056  43.1902046  74.3269119
  50.7073822  44.1248550  75.4619904  68.6293869  19.4616432  33.5899086
  69.2403717  18.8814754  34.0441475  67.9320068  18.8821831  33.2831116
  63.0089302  18.3995018   2.7281737  63.8853722  18.5934944   2.3958294
  62.4235001  18.9196205   2.1777365  56.1468391  16.0498180  22.1108112
  56.5430794  15.3594618  21.5791817  56.0900726  16.8025570  21.5222607
   1.8138744   1.8091965  30.1657467   2.6008825   2.1730981  29.7602539
   1.1441830   2.4802167  30.0335464   8.4248867  68.2592697  15.4331646
   9.0315619  68.2156067  14.6940632   7.7342339  68.8542862  15.1412926
  21.0232372  71.9812088   8.5490017  21.1355782  71.4019775   7.7952762
  20.8589783  71.3896027   9.2833366  79.6945572  13.6666775  17.7877197
  79.6078339  14.0386276  18.6654224  79.4953156  12.7372828  17.9006824
  26.1044521  54.6743317  45.2143517  25.4132442  54.9623032  45.8106194
  25.9682980  53.7308388  45.1276894  28.8026142  66.4963455  52.0994034
  29.4559784  66.2173233  51.4579277  29.2101402  66.3218842  52.9477654
  81.7564011  44.3018265  45.8599014  82.6509781  44.0409889  45.6409874
  81.2578964  43.4848480  45.8434906  55.1668091  16.5547886  63.3395920
  55.9240685  16.3353405  63.8823891  55.5167351  16.6070900  62.4501839
   6.1218443  64.7492905  60.2764206   6.4157457  64.4493484  61.1365891
   6.8946867  64.6681366  59.7175293  15.4763355  45.1408234   1.0160993
  15.7866173  45.4682159   0.1718404  15.9360638  44.3096123   1.1342801
  28.3820171  32.5477753  71.1490173  29.0018730  33.1740379  71.5229263
  27.5377884  32.7901115  71.5295181  42.1366577  33.1713142  73.8087540
  42.2351074  33.0863647  72.8604279  42.9279594  33.6296501  74.0915909
  70.3051682  25.6013279  63.8780441  70.4638901  26.4625092  64.2645721
  70.5659027  24.9813576  64.5591354  20.8957825  15.0777979  59.1476936
  21.6597557  15.2420588  58.5948868  20.5419064  15.9478970  59.3319016
  46.3485527  37.0217476  77.0878754  45.4196739  37.0322876  77.3187637
  46.4089165  37.5795097  76.3123169  81.8979874  54.5097580  33.0078011
  82.8074570  54.8052139  33.0502319  81.9505386  53.5586014  33.1014633
  48.2244453  34.2706642  70.4261246  48.0037994  34.0516434  69.5208206
  49.0018959  33.7458572  70.6168518  75.7053604  47.5567207  29.7099781
  74.7968292  47.8416710  29.8079834  75.9380569  47.8020592  28.8144913
  66.9700623  43.2084427  12.1249685  66.3806992  43.7552795  12.6444378
  66.7618942  42.3126602  12.3904305  14.9831533  21.4751034  70.1670914
  15.5699348  22.2199459  70.0362167  15.5622530  20.7549210  70.4165115
  16.7840576  60.4037285  10.1819086  16.5868511  60.6813507  11.0764856
  16.1837292  60.9112587   9.6357841  33.2792702  69.1429596  23.8216877
  32.6212234  69.2804565  23.1402912  33.7409973  68.3490295  23.5520363
  77.1525879  70.0766525  84.8757477  77.2933426  71.0105896  84.7202530
  77.8750381  69.8175201  85.4477158   4.4055753  41.0227013  29.4365559
   4.7888393  41.5023079  30.1709404   3.6899116  40.5202980  29.8259754
   7.2595053  29.4162693   1.0381976   8.0170298  29.8800926   0.6814668
   6.7727985  29.1241207   0.2674853  10.6488409  41.7022743  53.2985039
  11.5838108  41.7656670  53.1034546  10.2512722  41.4175987  52.4756241
  14.7463942  30.0056648  69.0465164  15.2794714  29.9468536  69.8393631
  15.1045485  29.3335361  68.4666901  29.6325665  38.4014168  15.6735592
  30.1051159  38.5744553  14.8593197  29.6746273  37.4508095  15.7775135
  44.9574509  54.3241692  20.6412544  44.4408264  54.7726555  19.9717846
  45.7097015  54.8977394  20.7874432  22.7438545  54.4205475  73.2049942
  21.8923912  54.0537033  72.9669418  22.6031933  54.8127937  74.0667267
  30.6504879  44.3908310  16.3970814  31.5866299  44.3049049  16.2168331
  30.3289967  44.9828415  15.7170820  35.9627228   5.7368770  22.3413219
  35.6324081   5.6201501  23.2321091  36.5428200   4.9885259  22.2009983
  71.2845840  19.8528423  88.4219055  70.4375381  19.4176464  88.3252411
  71.0723572  20.7113609  88.7881546  37.8348236  65.4694443  16.0095272
  38.2701569  65.4826508  16.8619003  38.5498848  65.4062881  15.3763351
  85.6325226  29.1894245  59.0574074  86.0105591  30.0533218  58.8930855
  85.7975693  28.6986866  58.2523193  48.0192032  51.1270561  49.8462257
  47.3669090  50.9806404  49.1611671  48.3497658  52.0093880  49.6775551
  17.0564213  49.9930191  82.8361282  16.2927265  49.7891693  83.3759842
  16.6937561  50.4180679  82.0589218  66.0806427   6.8400321  13.3139582
  65.5129700   7.3169384  13.9193869  66.6038284   6.2685404  13.8760118
  30.1541367  68.1112900  43.2902184  29.2216415  68.0998535  43.5059814
  30.3607140  67.2024231  43.0722504  21.6461525  47.4832039  48.2804146
  21.6386623  46.5625877  48.0184250  22.2550526  47.9006615  47.6711502
   1.0243862  42.1335411  30.8040218   0.9585485  41.3296013  31.3193645
   0.6309122  41.9102173  29.9604950  44.1309433  56.2499161  60.5754547
  44.9861870  56.4926109  60.9302597  43.8980751  55.4462433  61.0403366
  66.2465744  53.5109940  42.6677208  65.5703049  52.8993454  42.3765602
  66.8578262  53.5598640  41.9327278  60.1409492   4.0808940  54.3570938
  59.2585640   4.2193704  54.7012596  60.0350342   4.1134090  53.4063301
  82.4639816  36.1837807  12.1805105  81.6245956  36.6434898  12.1987495
  82.7282333  36.2040596  11.2607327  72.2226944  69.5573730  28.4964046
  72.1342697  70.2568512  29.1438141  73.1675873  69.4412231  28.3968277
  77.9461136  46.1481895   8.0054855  77.1267929  45.8088684   7.6451921
  77.9224472  45.8997650   8.9295835   3.3032560  59.2756920  11.3527260
   2.9614229  59.6890373  10.5599298   2.5447898  58.8404846  11.7420301
  44.7622375   3.9660881  78.5234146  45.6638412   4.1699233  78.7719955
  44.7911491   3.0499763  78.2474823  28.0959053  10.3345318  19.3723526
  28.2202034  10.8375883  20.1771603  27.1466465  10.2407427  19.2927227
  65.0164185  32.1307144  15.4550562  64.2918472  31.7181511  14.9849262
  65.6694717  32.3102608  14.7786551  26.5145817  38.3730850  72.4715118
  26.1227303  38.7816391  71.6996536  26.5704746  37.4439392  72.2483521
  46.7863846  18.9557915  66.3430481  46.2404480  19.5346165  65.8109360
  47.6836929  19.1763153  66.0931702  49.0220413  18.1555481  10.0189543
  49.4288445  18.8851032   9.5515203  49.5804405  18.0204792  10.7845783
  46.1787910  71.0065613   6.8806477  46.2883148  71.7347183   6.2690678
  46.2373734  70.2233429   6.3334990  68.7988281  67.3310623   8.1789036
  68.1176453  67.7071915   7.6214542  68.6939926  67.7771683   9.0192795
  65.3356781  26.9680481  84.8395920  64.6917572  26.6921291  84.1873093
  65.9571762  26.2414722  84.8848801  31.8332767  11.5322943  65.8477859
  31.7467136  11.6974554  64.9089203  31.9557571  12.3998260  66.2332916
  77.4712296  15.9330435  18.3549213  77.2680054  15.5913649  17.4841805
  77.6435852  15.1539869  18.8836918  40.7875023  43.3830376  15.5674496
  41.2078094  42.5314598  15.4474926  41.3283768  43.9903297  15.0625896
  12.1969423  43.7058640  50.5339317  11.3445711  44.0799408  50.7570114
  12.2571774  42.9127121  51.0663834  62.4492950  61.1085091  64.8343506
  63.0664749  61.6723671  64.3681107  62.4885216  61.4095955  65.7421188
  65.1793289  49.3780670  42.6126595  65.9979172  49.6485138  43.0285988
  65.3983154  48.5635223  42.1601219  12.9642153  32.3149300  85.7851562
  13.3149023  33.0710335  86.2558517  13.4929314  31.5772057  86.0892105
  44.3912659   7.1831985  38.5371056  44.4875641   8.0653858  38.8958588
  45.1451721   6.7022142  38.8784447  57.3294258  16.2459984  17.0328560
  57.5140076  17.0372295  17.5389347  58.1254463  16.0969067  16.5226078
  82.9067078  15.4971056  21.6021118  82.3452988  15.2770834  20.8587132
  82.6159134  16.3681126  21.8723240  44.4490280  67.6292496  50.2971573
  44.1541862  66.7186432  50.2877693  45.1740799  67.6526947  49.6726761
  70.5988693  56.7180367  23.1015072  70.1583862  57.0678825  23.8759861
  70.0805588  55.9513435  22.8570290  76.9900970  15.4565859  83.3835526
  77.5615997  14.7601652  83.0601120  76.7011337  15.1495495  84.2428894
  63.3502693  69.3336716  38.1737785  62.9714355  68.5537033  38.5792007
  63.4163513  69.1126328  37.2447968  47.9410782  39.3043861  19.5003910
  47.6810226  38.3992767  19.6717987  48.1837196  39.6506004  20.3591652
  59.2833023  22.9714184  82.7120972  59.0598755  23.2554379  81.8257294
  58.5381927  23.2460117  83.2465515  83.2824631  15.0506620  36.1453552
  82.6476212  15.5359917  36.6722946  83.5572739  15.6709175  35.4700813
  76.9196472  15.4791994  50.3655167  77.2942047  16.2717190  50.7500305
  76.9008102  14.8492689  51.0859795  53.1296997   3.5758960  46.1795502
  53.8369560   3.7768617  46.7924347  52.4388084   3.2009120  46.7257118
  21.5590687  59.3019753  52.9109383  21.5151711  60.2581635  52.9127846
  21.2137241  59.0447044  53.7657967  72.3792114   5.8039713  42.0134048
  72.6395340   5.9777708  42.9179802  73.1034241   6.1419458  41.4866028
  44.1435776  57.5647621  29.9187698  44.3336296  58.4125900  30.3203907
  44.4509735  57.6528282  29.0165596  83.6772842  54.4430275  57.0492363
  83.7273636  54.1980629  56.1252670  84.3381271  53.8988342  57.4774551
  71.7466049  -0.0472443  18.2489052  72.3219376  -0.1811805  17.4957237
  72.2970428   0.3951296  18.8950920   8.0206881  11.6387253  17.9130173
   8.9416399  11.8887682  17.8384590   7.5410399  12.3756886  17.5347939
  67.1593399  55.6923561  48.3899498  67.4963608  55.6923065  49.2858543
  66.3338470  56.1738281  48.4446068  10.0062256  11.9167490   7.3861556
   9.7301016  12.5847139   6.7586126  10.7735863  11.5113707   6.9823508
  35.8154030  35.8393974  55.1395760  36.4152794  35.5674362  55.8341408
  35.7605972  36.7908020  55.2293587  34.6217690  61.2829666   9.7810402
  34.6930962  61.8903542   9.0446825  35.2251282  60.5721283   9.5644875
  34.4988632  21.3218994  68.9935226  35.4512215  21.3723011  68.9116364
  34.1944237  21.0972710  68.1142731  72.8752518  45.5141563  74.3576508
  73.6274414  45.0498047  74.7248230  72.7265472  46.2431755  74.9598541
  60.3936844   0.6169964  35.8717613  61.1111107   1.1719000  36.1777229
  60.4447632   0.6641868  34.9170914  78.6856155   6.3072200  46.5036469
  78.7804489   6.7110486  45.6409988  78.7795334   5.3687301  46.3404045
  26.9372044  14.0584879  58.8721123  26.9575272  13.3573771  59.5234680
  27.8259468  14.4139585  58.8750343  18.6953220  56.8413277  48.5694351
  17.7918491  56.7888184  48.2576447  19.1340961  57.4107590  47.9374123
  26.3598671  53.5001221  33.1953316  25.9736309  54.3687134  33.0830536
  27.2735291  53.6083145  32.9312325  82.0859528   7.5237784  53.9971008
  82.5934601   7.3203559  54.7827797  82.7048645   7.4094300  53.2759171
   8.1811867  15.1497822  85.0593719   8.0020323  16.0741577  84.8871384
   7.4735069  14.6819963  84.6159744  76.4088821  16.6880264  70.3534012
  76.2497253  16.2112217  71.1679916  77.3510742  16.8568420  70.3548584
  35.2060471  20.2926273   5.8204966  34.7153053  21.0057354   6.2290068
  35.4304543  19.7099495   6.5460038  24.9321041  17.2039471  80.2100906
  24.5745106  18.0908222  80.1675339  25.8701820  17.3305035  80.3523026
  52.3558922  33.2960510  37.4226189  52.3327751  32.4987869  36.8934059
  51.5163994  33.3027306  37.8824387  73.9299774   6.3489647  13.0721111
  73.7462158   5.5041466  13.4828997  74.8127823   6.5718946  13.3673868
  44.1717072  50.2106895  79.1199646  43.2760010  49.8869476  79.2155609
  44.4826126  50.3238754  80.0181656   3.2996612  55.8400116  28.6827030
   3.5742526  55.1079979  29.2349606   3.5004122  56.6194115  29.2008400
   4.4088187  54.2769547  38.7758141   3.8143501  53.8085632  39.3618584
   3.9521964  54.2935791  37.9347153  62.2633553  34.5104637  56.7908897
  62.8285065  34.0496635  56.1708145  61.4542847  33.9991035  56.8032265
  36.8321037  71.2804718  83.8189697  37.5620461  70.9786606  83.2783051
  37.1601486  71.2255783  84.7165298  85.9958038  42.9536400  47.4871483
  85.7565002  42.8203926  46.5699768  86.6744614  43.6282005  47.4620399
  67.4473495  43.3531075  15.5433741  68.0464554  42.7001572  15.9052477
  66.6645508  43.2892189  16.0905361  84.6345596  58.1401138   9.1815491
  83.7570572  58.3608627   9.4937878  84.7143097  58.6003380   8.3460464
  76.4052658  39.6538506  10.3991327  77.1638718  40.0548668  10.8233261
  76.5308533  38.7131004  10.5234299  24.1960621  41.1442413  77.6076813
  24.0631332  41.9180641  77.0601807  24.6139412  40.5086441  77.0266266
  27.8268757  49.8762550  37.3695107  27.9094181  49.0886421  36.8318443
  27.3574524  50.4978867  36.8132324   2.8622301  68.2317886  74.4987106
   2.9005868  68.6765900  75.3454208   3.2481453  68.8549423  73.8830948
  47.1292801  39.0294075  74.8602829  47.7340431  38.4293098  74.4239578
  46.4299126  39.1706009  74.2221832  42.1317139  39.1004944  57.9416008
  42.7026634  39.6456604  58.4829292  41.3908424  39.6677704  57.7282028
  52.9247742  62.8484230  34.4566078  53.1332970  63.1097031  33.5596771
  53.4432831  62.0571136  34.6022453  55.0553894  29.9236698   3.6188378
  55.7827835  30.1159878   3.0271075  54.4292564  30.6314983   3.4666445
  40.8451309  45.1550446  30.7740097  41.5166435  45.0243912  30.1045094
  41.2601738  45.7248421  31.4215412  43.1547279  52.4659958  86.7112427
  42.3338203  52.6954575  87.1467743  43.3693619  51.5959854  87.0477676
   8.3573418  68.1134109  76.7418442   9.1367598  67.5663986  76.8393784
   8.0253735  68.2185059  77.6334610  85.5472641  32.0711479   9.3113804
  85.0411758  31.8661690   8.5251961  86.4597015  31.9579487   9.0451450
  79.0968246  25.5367298  66.3813324  79.5334244  24.7045822  66.1992874
  79.0639725  25.5860004  67.3367004  33.3923607  21.7201900  88.2568893
  33.2584343  20.9967518  88.8692017  33.5650826  22.4779930  88.8155746
  26.3821774  35.6463394  71.6262741  25.8128071  35.6961937  70.8584442
  26.4056129  34.7152367  71.8470230   7.4782209  58.9881248   5.0512805
   6.8278818  58.2920647   4.9575405   7.3686934  59.5254822   4.2667518
  77.8932190  50.6389618  30.8316689  78.0521164  49.7909317  30.4171467
  77.5181961  50.4218483  31.6851616  70.0805740   5.5372591  40.2913475
  70.8694839   5.6974220  40.8092346  69.5181198   5.0180283  40.8660431
  18.4379292  66.6766815  86.6681061  18.7802296  66.0142288  86.0679245
  19.2161942  67.0503616  87.0815048  16.4195900  67.4362946  60.5822105
  15.6921291  67.6114197  59.9852524  16.0559330  66.8363647  61.2334175
  27.4230518  22.2132301   7.3054786  27.9151535  21.6919937   7.9398122
  28.0814381  22.7718658   6.8923349  51.0190926  59.4008293  72.5629196
  51.7393951  59.7832451  73.0640717  51.1899414  59.6644440  71.6587372
  23.5189457  63.1684113  46.5311165  22.9111786  63.0678749  47.2637444
  24.2788410  62.6404305  46.7761230  15.8607683  60.7802696  12.9048319
  15.0363083  61.2556305  12.8022070  16.2814980  61.1907845  13.6602755
  31.8807468   4.4391122  33.1186485  31.7783413   5.3908143  33.1214142
  31.7085400   4.1770592  34.0230293  65.3430939   3.5385838  43.5219498
  65.7093353   2.7371871  43.8959312  64.4012680   3.4665504  43.6769028
  13.6453333  50.0054054  46.0116577  13.0541687  50.3952484  46.6556892
  13.5648851  49.0620956  46.1528397  81.1249695  32.7779694  15.0187807
  80.4279175  33.3543854  15.3319778  81.0696487  32.0067482  15.5830355
  25.5641994  68.9654083   5.1453738  26.3659725  69.4106674   4.8712735
  25.1227055  69.5958328   5.7144723  18.2721672  53.2312469   4.4973869
  17.8904324  52.3540306   4.5289717  19.2083492  53.0902863   4.6385465
  58.2872276  53.3791656  43.7974510  58.2365494  52.4236641  43.8234482
  57.6150055  53.6715050  44.4129906  16.8531723  55.5675659  11.8636999
  16.7243347  56.4710617  12.1523685  15.9707165  55.2481728  11.6753111
  71.6056824  42.6964302  28.7138481  71.6399002  42.9536629  27.7924938
  70.8215790  43.1274567  29.0538921  52.4996452  39.9419060  25.1104374
  51.6738358  39.4948387  24.9249516  53.0349998  39.7888565  24.3318462
  79.7415314  58.5044060  81.2978973  79.8597031  59.2814522  81.8442154
  79.5838699  58.8508301  80.4196243   8.9160681   7.5556545   5.0988731
   9.6361494   6.9891510   4.8217659   9.0756235   7.7075062   6.0303850
  37.4024849  15.0344973  10.7527122  36.4882851  15.1459627  11.0135584
  37.3872223  15.0886335   9.7971668   0.2431342  71.0964737  10.4422874
  -0.0896664  71.8115997   9.9000092   0.2914298  70.3476868   9.8479633
   4.5149975  22.0631657  71.8293991   5.1957417  21.6799812  71.2762375
   3.9769106  22.5760555  71.2263718  30.3030624  55.5605469   9.2345943
  30.6751804  55.1067619   9.9907961  30.9443302  55.4281311   8.5364008
   7.0350909  18.5529976  75.3936920   6.5977402  19.3247623  75.0340576
   6.4644046  17.8220310  75.1565552  60.3542633  61.5994873  12.9194241
  60.9454918  61.5180168  12.1710644  59.7144012  60.8982544  12.7966022
  85.9547348  70.2128983  56.9501305  86.8120728  70.4907761  56.6276588
  85.8229599  70.7223206  57.7497253  69.2051392   4.3558273  63.7401886
  69.2419128   4.6787071  64.6405411  69.1535110   5.1470218  63.2039261
  45.1059723  21.0093479  54.8680420  46.0090714  20.8667545  54.5846519
  45.0806465  20.6749573  55.7645760  57.4798164  31.9389572  15.6652756
  58.2520409  31.6279793  15.1928463  57.6180344  31.6493931  16.5670948
  41.5715065   9.8456497  14.7176714  40.7361565   9.7436161  14.2615900
  41.5464592  10.7365103  15.0669165  44.2244263  46.5863876  82.0786667
  45.1110649  46.3319244  82.3343124  43.8302689  46.9225807  82.8835526
  39.1141319   6.6048155  70.9028625  38.3855934   7.1899986  70.6954346
  39.0162735   6.4224787  71.8374252  74.2487793  26.2344818  72.0550003
  73.6874466  26.6636906  71.4093018  74.0528336  26.6822224  72.8780212
  72.8147202  42.0767784  15.0979404  72.6067123  41.4979782  14.3644857
  73.7652664  42.1820641  15.0578594  14.2867956   1.9660323   9.6532383
  13.9928160   1.2068518  10.1566792  15.2203388   1.8110718   9.5093060
  74.6040192  54.8204689   3.4794171  74.7084503  55.4788094   2.7924602
  74.0364838  54.1555023   3.0896046  45.2322922  39.2159233  78.9459915
  45.6174774  39.3263969  79.8152771  44.6235161  38.4839325  79.0450363
  62.3598709  18.3600368  74.7880936  61.6494980  17.8599777  74.3861694
  63.1527596  18.0348568  74.3616943  83.9744034  32.2894783  17.7497826
  84.7810059  31.9222794  18.1114349  83.2858505  31.6952934  18.0482407
  20.2043400  60.9836426  31.3515358  20.6244049  60.1255760  31.2923698
  19.7588882  61.0907059  30.5110950  23.7746162  32.7250099  13.2651644
  23.3959980  33.4585342  13.7497501  23.0511303  32.1067009  13.1627283
  54.1923752   0.3963954  79.2398376  54.8799133   0.5777013  78.5990219
  54.6601715   0.2815551  80.0670090  65.5197754  51.5966606  63.1560745
  65.0388718  52.2587013  63.6527214  65.5414810  50.8332558  63.7331123
  48.7719040  54.4804077  69.5463943  48.6407242  53.6026268  69.1878815
  47.9065247  54.7426910  69.8603439  40.4691620  12.1659698  72.7351532
  41.2696838  11.6422472  72.7684250  40.1694183  12.0880184  71.8294449
  57.2890854   4.3432312   9.8589020  56.4180527   4.0314097   9.6133518
  57.6683197   3.6227624  10.3622293  64.0441055  29.1641102  26.3285027
  64.9433212  28.9914627  26.0495167  63.7496986  29.8762302  25.7606602
  72.8722687  67.5333328  12.0175734  73.2020111  67.0315018  11.2721386
  72.4986038  66.8747864  12.6031713  15.3849583  36.2065353  13.8403206
  15.9868813  35.8577805  13.1828327  14.6148357  36.4771690  13.3404207
  38.5762024   2.6131907  30.6296387  39.1067581   3.4097292  30.6131992
  37.6734161   2.9276834  30.6775913  12.4503088  39.3725166  71.1969070
  12.3303843  38.4916115  70.8421555  12.7245903  39.2305717  72.1029205
  86.1417007  46.6489792  25.0746307  85.4375916  47.1565208  24.6710663
  86.1531982  45.8254242  24.5869217  60.2644463  52.2478828  13.7641420
  59.7966843  51.6349831  14.3314018  61.0951843  52.4037209  14.2133875
  72.3160095  42.7778740  43.1577568  72.5581970  42.3001900  43.9511032
  71.8463364  42.1357307  42.6255150  36.5710182  20.7373753  76.3032074
  36.0803146  21.1398144  77.0197830  36.0271759  20.0005779  76.0246429
   0.9445867   5.6619296  48.5428619   1.4604871   5.0841408  47.9805107
   0.4458404   6.2063179  47.9336586  36.2540894  18.7996616  69.2332153
  36.6571198  19.5335693  69.6970901  36.9904594  18.3318596  68.8393250
  59.8024254  16.9691982  78.8481522  59.7120361  16.0189629  78.7766571
  60.7475319  17.1186028  78.8742294  86.1564865  15.6800642  82.8636169
  85.8854294  14.8692083  82.4331818  85.3969879  16.2575378  82.7866592
  37.5916786  67.5882568  40.9652367  37.0907402  67.9703293  40.2446022
  37.4183388  66.6487656  40.9057617  31.4415169  65.7347565  48.7494240
  31.2310371  65.9204865  47.8343086  31.6019287  66.5948715  49.1376228
  24.9543476  62.7940445  66.8481979  25.1088753  62.8382149  67.7918091
  25.4661999  63.5180283  66.4875183  77.6304474  47.2502823   2.1829858
  77.0494766  47.9789276   2.4015665  78.0604782  47.5217819   1.3720633
   9.6717176  26.6755142  17.0422573  10.6079979  26.4777565  17.0198574
   9.3702126  26.5085011  16.1492672   7.2095551  46.6570663  50.8074951
   6.3005652  46.4586449  50.5825539   7.6021986  46.9471474  49.9841385
  35.4657898  39.8157043  24.6242294  35.8323021  40.0081444  25.4872875
  35.3504333  40.6738815  24.2162323  70.8060226  46.3712845  72.7427368
  71.6108322  46.0794029  73.1708908  70.3860245  46.9422874  73.3860016
  58.9720688  55.4448929  41.9144249  59.9279518  55.4030914  41.9421768
  58.6845589  54.7402802  42.4950218   9.8501434  42.1677971  -0.1670138
  10.5906572  42.1511955   0.4392831   9.6044493  43.0914192  -0.2197741
  29.8909187  26.8821392  74.7670059  29.2121048  26.9349308  74.0942078
  30.6681156  27.2574368  74.3530655  41.5636330   1.4600078  13.9554939
  41.9927216   1.6713516  14.7846193  41.9340401   2.0815825  13.3288546
  73.3163300  56.7881012  19.9132328  72.6713486  56.0890388  20.0206299
  73.0851440  57.4321785  20.5825253  26.3383675   7.4244418  72.3756180
  27.2195854   7.1260033  72.6006088  25.7743282   7.0275965  73.0393982
  73.4066010  50.2029037  66.1305389  72.5176392  50.5496216  66.0545654
  73.7386017  50.1961899  65.2327805  40.0621223  68.1802368  30.7850246
  39.6356125  68.9657211  31.1275692  39.7821350  68.1350174  29.8708076
  37.6447830  64.9834595  48.7246170  37.7189331  65.0300140  49.6778030
  36.7027969  64.9437943  48.5593147  65.2891617  42.7602921  36.2846832
  64.7476501  42.3003159  36.9260979  65.0772095  42.3435364  35.4494438
  15.1260080  49.3308716  33.0230484  14.8540859  49.3388710  33.9407768
  14.5374765  48.7027512  32.6043282   8.8568354  21.3542480   8.8103895
   9.5880833  21.5465031   9.3973713   9.0338821  20.4702435   8.4887924
  40.0422630  46.7043724  77.1306229  40.0135727  45.7756310  76.9007263
  39.7313004  46.7368813  78.0353241  18.5650005  12.1890526   6.6336818
  19.0412273  12.9256105   7.0169845  18.8693542  12.1529083   5.7268777
  20.7291908  10.6682053  73.8314972  20.9379463  10.6111135  72.8990860
  21.5686092  10.5396738  74.2731857  81.6929092  39.2860222  70.0504990
  81.7714920  38.4707832  69.5550842  80.9543457  39.1372414  70.6409378
  43.3786469   0.3529694  68.0015411  44.2839165   0.5682393  67.7770920
  43.3886566   0.2364212  68.9515610  50.6002693  44.3466225  77.1686935
  51.4024277  44.7828178  77.4559402  49.9902229  44.4632607  77.8970261
  83.0318832  47.0709877  31.4638042  82.6131287  46.3096809  31.0621929
  83.7565231  46.7057419  31.9714680   8.8248959  19.9546318  25.6145344
   7.8859587  19.8507271  25.4601593   8.8995476  20.7832584  26.0878582
  58.8269081   9.3316984  39.1413841  58.4078255   9.9312487  38.5240135
  58.2822800   8.5448799  39.1183243  48.0726089  16.3224182  31.2365150
  48.3703384  15.4404211  31.4593887  48.2256966  16.8346596  32.0304947
   0.2865752  43.1496353  35.0236359   0.3704660  44.0442314  35.3536301
  -0.5893143  43.1174126  34.6389160  34.7436028  41.4475441  22.3861904
  34.3531837  42.1505814  21.8670177  35.0818214  40.8302383  21.7375183
   4.4024062  71.0956879  32.2761536   5.2576494  70.8585205  32.6346817
   3.8629706  70.3159866  32.4077148  58.7039032  13.9619560  79.3722839
  59.6096497  13.6755800  79.2546158  58.3518410  14.0140972  78.4837036
   0.5680717  34.2275772  67.6392899   1.3180324  33.7495995  67.9933090
  -0.0444574  33.5443459  67.3668289   2.7371814  39.2461586  34.7798233
   1.7959560  39.1254005  34.6543503   2.8799808  40.1815834  34.6355133
  27.9270859  70.5188446  21.4031353  28.1607075  70.8156128  22.2826710
  26.9828053  70.3676147  21.4443207  74.1788025  56.6541138  17.2181320
  74.4443970  55.7851677  17.5191727  73.8532181  57.0910683  18.0050831
  19.9888859  42.7587738  27.2617970  19.5208092  42.1139526  27.7922115
  19.5379238  42.7472191  26.4175625  62.5331764  46.7564964  62.2908478
  62.1767960  46.6463165  61.4093208  63.4792900  46.6623611  62.1801949
  33.1384621  40.7595482  61.4971352  33.8790703  41.1676064  61.0485611
  32.5476532  41.4864616  61.6940384  69.3575974  20.4469147  51.5052261
  69.9360199  19.7792015  51.8737679  69.2861862  20.2170620  50.5787849
  27.7612228  59.4223671  60.2748909  27.3188457  60.2708740  60.2510834
  27.2131863  58.8513451  59.7365379  45.9537849   2.6507547  14.0532188
  46.2540169   3.5499535  13.9208059  46.6552010   2.2354894  14.5550146
  85.3065338  35.5111008  35.1507378  86.1237259  35.1920395  34.7678185
  84.6194839  35.0851555  34.6381340  61.0202751  29.4689026  64.9096069
  60.6107368  28.7423840  64.4398346  60.2976456  30.0654202  65.1050644
  44.8402596  63.0545311  47.4502563  45.2014732  62.5128860  46.7485580
  44.9562645  62.5293694  48.2420731  49.4614296  39.7579117  51.3220634
  49.5435905  39.1512413  50.5862389  49.5374222  39.2038689  52.0989113
  51.1097031  22.8116131  71.5759125  51.8798027  22.5560932  71.0680847
  51.0792923  23.7654190  71.5013199  40.5655861  65.0067139  28.0156898
  40.8290558  64.4542618  27.2797451  39.8431740  64.5310364  28.4256611
  48.9507866  37.0244255  10.0381937  48.6462250  36.1864090  10.3863344
  49.2534142  36.8204079   9.1533070  26.5995274  44.2388687  10.6216984
  25.6996555  44.3483582  10.9290657  26.5999069  44.6168442   9.7422857
   2.0447876  54.8237991  12.9588757   2.3159831  55.4696846  13.6111927
   1.1085329  54.9829102  12.8391171  73.8798523  37.2830734  69.0673141
  73.9414215  38.1451187  68.6558304  74.6002350  37.2664375  69.6973953
  70.4983749  52.2482758  20.9501781  71.1503067  51.5564194  21.0622005
  69.8415604  52.0697098  21.6231880  69.0960846  30.5234661  19.3389263
  68.5141602  30.5643272  18.5800247  69.6994934  29.8075943  19.1397877
  20.7881298  11.3129110  57.7959175  20.8022442  10.6086521  58.4440346
  21.6072712  11.2092276  57.3116798  34.0527725  54.8124123  75.0234299
  34.3841820  54.0681038  74.5210342  33.7603912  54.4313660  75.8514099
  22.5885220  52.3190498  79.7074280  23.5158157  52.5543175  79.7391968
  22.1873779  52.8308144  80.4098587  65.3877640  24.2167625  53.2896309
  65.3930664  24.4700985  52.3665771  64.4886856  23.9329243  53.4549370
  53.8406754  64.5112152  64.7661133  53.7172203  63.5878181  64.5462799
  54.4973183  64.5059052  65.4625473  74.9497452  53.3456955  17.3024006
  74.0260391  53.4063110  17.5459652  75.3831711  53.0119705  18.0878983
  85.3453445  15.4977331  49.5392151  85.6596222  15.7699356  50.4014015
  84.3966522  15.6179590  49.5811615  33.2279167  44.9011497  23.7834625
  33.4794464  44.1913643  24.3743706  32.4884109  44.5494499  23.2878132
   2.5459540  71.0284653   1.9618433   3.2145636  71.3843842   1.3765961
   1.9045439  70.6262131   1.3761697  69.9495087  23.3851337  -0.0081227
  70.5146179  23.8670597   0.5957209  69.2704315  23.0063114   0.5500680
  28.3978291  49.4676285  84.5656586  29.0151062  49.4516716  85.2970581
  28.4094334  48.5739708  84.2229156  80.8662643  59.8706322  21.1654339
  81.5245819  59.3281784  20.7311649  80.0321198  59.5689812  20.8056526
  20.2240620  33.9491882  87.9541016  19.9337082  34.8333893  88.1779633
  19.5137539  33.5915184  87.4214096  60.1526642  10.1006021  10.8288631
  60.6303291  10.0187235  11.6543121  59.8710251  11.0151138  10.8048115
   5.4660072  19.8909225  73.4260635   5.2428441  18.9605083  73.4536362
   4.6657720  20.3203068  73.1236038  71.5664215   1.3741564  76.0618439
  72.3418121   1.1291631  76.5667953  70.8623505   1.4154657  76.7090073
  27.5257244   7.3499274  83.3495712  28.4696236   7.4954123  83.4137497
  27.3095284   7.5758572  82.4448929   0.7947021  19.5486546  45.8691673
  -0.0246039  19.8634720  46.2510834   0.6405886  18.6182861  45.7051773
   1.2320842  35.4578056  69.9344406   1.1696864  34.8761101  69.1768341
   0.6903748  36.2121162  69.7024994  52.0396004  50.6239929   7.9279561
  51.9296494  49.6806221   8.0471058  52.0034981  50.9831924   8.8144684
   8.3937073  65.1235123  36.1742859   9.0838528  65.7545624  35.9700584
   7.9927564  64.9248581  35.3281136  77.5749893  54.3594017  56.1429939
  77.6543274  53.8997307  56.9788437  77.8137817  55.2643433  56.3437119
   3.1449332   3.7424545  73.8745880   2.6722567   3.7297771  74.7068405
   4.0307112   4.0215101  74.1064453  31.3005009  23.9643764  86.4756317
  30.5367928  24.5290661  86.5943985  30.9347401  23.1173077  86.2208252
  65.8287125  26.4943123  55.8575974  65.0645905  26.1848145  55.3712234
  65.9333954  25.8608952  56.5675659  66.3005447   5.4523458  55.9017067
  66.5306931   5.3345881  54.9800797  66.5259628   4.6180964  56.3133469
  45.5859718  62.1140442  49.8046227  45.2896194  61.4034195  50.3733215
  46.1022911  62.6803398  50.3781700  69.5693893  39.6292458  37.9046783
  69.2670135  40.3096809  38.5061836  70.4925461  39.5068245  38.1260872
  24.3373661  37.9335480  14.7560005  25.1424942  38.1952019  15.2026978
  23.6545830  38.0233536  15.4208117  82.1778564  67.5234680   5.8388534
  81.2875824  67.2987823   5.5683780  82.4218369  68.2568512   5.2741852
  29.3095093  67.3144913  69.2896881  29.3647060  68.2466125  69.0791397
  29.4031982  67.2780075  70.2415924  32.3784561  71.2914276  40.2857742
  32.5808334  70.9129105  39.4302025  31.6342106  70.7803497  40.6037941
  77.8522491  61.1815491  88.6381607  77.2310638  60.5210419  88.3314133
  78.6524353  60.6900368  88.8234711  66.6192856  29.0033283  25.5249443
  66.8407745  28.9815674  24.5939789  67.4653397  29.0288086  25.9719009
  19.3079681  11.8697414   4.0030169  19.5686169  10.9500437   4.0525084
  18.5217323  11.8668165   3.4570715  19.9923229  49.2432480  32.5111809
  19.7404461  48.3243599  32.4193192  19.1639214  49.7222137  32.4872208
  51.6215096  28.6411991  61.8959007  51.5423813  29.4137859  61.3363609
  52.3630981  28.1572266  61.5325089  62.6175041  42.3557587  86.4425354
  62.7464142  42.9669266  87.1678543  62.1572151  41.6133118  86.8338623
   8.4375095  28.6501312  75.0467453   8.1108685  29.2837639  75.6855316
   8.0601110  27.8150463  75.3232117  71.2728271  38.6715508  86.1435852
  71.4132233  39.4140053  86.7311935  72.1425476  38.2882614  86.0299225
   5.9538598  64.8359299  72.5425720   5.1778340  65.1310730  72.0662308
   6.0582347  65.4734955  73.2488632  56.1319313  28.9066505  14.7985382
  55.2591248  28.5742893  15.0082445  56.0295334  29.3264351  13.9444151
  31.0915985  12.1339035  62.9924889  30.2899914  12.0766821  62.4725075
  31.5225697  12.9299688  62.6814003  18.3841362   3.6215549  71.4384842
  18.3244305   3.1049044  70.6349030  17.7579517   3.2106147  72.0345154
  15.7923231  34.7058296   0.6993037  15.0421553  34.2372932   1.0653037
  16.1866779  34.0851097   0.0865849   8.5247345  47.5957947  11.3201351
   8.3956423  46.6942253  11.0256157   8.3252230  47.5729179  12.2560320
   3.4480355  63.3083572   1.3627638   3.5991628  62.7971611   2.1577923
   2.4964685  63.3999672   1.3141831  29.8314075  46.2591438  41.8385925
  30.3659153  46.8963470  42.3124123  28.9385834  46.4220619  42.1428146
  29.2476234  44.2939377  60.2640686  29.2103100  43.3385086  60.3087425
  29.1861458  44.5789223  61.1757889  83.6791840  44.5230484   5.5311732
  84.6046143  44.7263908   5.6670399  83.4871902  43.8400269   6.1737099
  21.5995140   2.0247238  28.1714706  21.7149620   1.4088960  27.4478283
  21.9630413   2.8480670  27.8456078  71.5794525  41.5188599  48.4802895
  72.0411530  40.6820068  48.5326042  72.1464996  42.1346817  48.9444504
  61.1240349  24.5852699  74.8306503  60.8975105  25.4632530  74.5239487
  61.4859810  24.1482487  74.0597839   4.8748894  57.4901237  50.3615799
   5.4813743  57.4946136  51.1021118   4.9228907  56.5979691  50.0180855
  79.3120346  33.0899849  51.1125412  79.6261902  33.0166550  52.0137405
  79.7544174  33.8653221  50.7670250   7.9120483  40.3727341  66.0964966
   7.5140395  41.0974197  66.5788345   8.3941269  39.8794060  66.7601700
  22.4824486  44.4646187  39.4715042  22.3610821  45.1090012  40.1688385
  23.0779305  43.8155594  39.8461494  69.4224777  41.1840477  32.7314720
  68.5372162  41.4773712  32.5158195  69.3355026  40.7718506  33.5909843
  83.2879486  65.6711121   9.0679407  83.3302994  65.0508347   8.3401403
  83.3921051  65.1297150   9.8504200  48.2504539  13.2873573  80.3129883
  49.1062012  13.4098215  80.7240067  48.0200996  14.1534462  79.9767532
  28.2710152   2.9969606  32.2013359  27.6767235   2.7676349  32.9157982
  29.1444168   2.8168528  32.5491333  67.6677017  54.6453476  75.4730988
  67.2397614  55.4058037  75.8665543  68.6037598  54.8234901  75.5641937
  64.5049133  67.8974228  68.1501846  65.4602814  67.8435287  68.1746826
  64.3212662  68.8231659  67.9904556  40.8547897  19.2076969   8.5909729
  41.7425079  18.9984550   8.3004389  40.3586845  19.3237667   7.7806411
  59.4495811  43.6211548   4.4934554  60.2344818  44.1049309   4.2363133
  59.7764015  42.7666664   4.7750082  11.2896156  55.1696663   0.0724390
  11.5234241  54.2442741   0.1446730  12.1286125  55.6302986   0.0840619
  49.9921989  31.6958408  45.7999802  50.6914062  32.3317947  45.6486397
  49.6709709  31.8976479  46.6787949  78.8318710  68.0868073  19.6361637
  79.2530136  67.5190582  18.9907761  78.7673264  68.9370728  19.2012901
  56.6649094  43.6282234  55.3202820  55.8758659  44.1642265  55.3999176
  56.8409309  43.3271866  56.2117004  53.8443527  45.5818710   2.0664756
  54.5271912  45.9434357   2.6314809  53.8357887  44.6465149   2.2696204
  85.6230087  16.8803272  66.7371902  84.7077637  16.8365307  66.4603500
  85.9256439  17.7347641  66.4296417  47.7549019  31.6342812  57.1796722
  46.9258308  31.6753216  56.7030334  47.7411880  32.4024048  57.7506638
  23.8302326  60.3731346  77.4514160  24.2080269  60.8259544  76.6974564
  23.1065044  60.9343033  77.7298737  47.2595406  29.1755581  89.3634796
  47.4173737  28.2339268  89.4316711  46.7389679  29.2740440  88.5662766
  15.3010893  44.5121574  73.4033508  14.7965307  43.7341499  73.1659622
  15.5923862  44.8733673  72.5661469  78.8652191  31.7370682  44.5956154
  78.9345627  32.6816635  44.7340584  79.1623459  31.6044884  43.6954079
  34.9762459  26.7310562  70.0737152  34.2431183  27.3302784  69.9333878
  35.6750641  27.0728264  69.5159683  85.9799271  42.9716148   2.0001729
  85.7213516  43.6282692   1.3535057  86.9082413  43.1434822   2.1580360
  79.3867035  26.0405293  12.6844473  79.8689728  26.2991791  11.8991156
  78.6527710  25.5219231  12.3548670  72.9119644  70.9404755  37.2619095
  73.7722321  71.3548355  37.1950188  72.5376205  71.2946014  38.0685616
  80.9013977   6.4332891  18.9562225  80.5389709   5.5568767  18.8266811
  80.5494919   6.7156248  19.8004265  51.3368301  60.1382332  54.0887489
  51.9872322  60.5558434  54.6533775  50.4950027  60.3702049  54.4808578
  59.6121521  27.9228039  81.7003784  58.7950668  28.3091431  81.3851929
  60.2039490  27.9683495  80.9494171  80.4168167  42.9171944  50.4468231
  80.9119263  42.1023026  50.5308418  79.5490646  42.7068748  50.7917900
  45.6697540  45.5119514  10.1419497  45.4443398  46.4275589   9.9773855
  45.1487198  45.2709503  10.9078960   6.9415379  63.0089760  80.1996231
   7.0171313  63.9553070  80.3219910   6.7202601  62.6721230  81.0678406
  51.7422180  19.9276905  49.6245461  50.9464455  19.4982395  49.3106232
  51.4851112  20.3323536  50.4530220  49.7932205  24.7359505  83.1305771
  49.3042755  24.0818462  82.6312637  50.2723312  25.2339172  82.4682236
  29.7691574   1.8219101  52.0095863  29.0516052   1.7663637  52.6406708
  30.0776310   0.9204485  51.9177017  50.3507805  26.5080757  85.7122879
  50.9667931  26.5680256  86.4424744  49.7518692  25.8041611  85.9613647
  36.0308342  59.3593025  50.7439957  35.9214554  58.8101349  49.9676704
  35.1460533  59.6600647  50.9512138  33.0450592  45.7932816  68.7742615
  32.2607880  45.6786194  69.3109207  33.5608711  46.4505806  69.2413101
  60.6615944  59.5741386   6.1068382  61.3600922  60.0072289   6.5975146
  61.1202507  59.0003166   5.4931655  15.9459581  13.3037214  13.7990522
  16.0256271  12.3680744  13.9846601  15.0139160  13.4913960  13.9099913
  57.8976555  70.4733200  28.6103935  58.2054634  69.7376938  28.0809212
  58.3272972  71.2390747  28.2292576  53.9344673  65.0086899  25.1199532
  53.0337181  65.2417603  25.3448048  53.8463478  64.3339996  24.4467087
  76.6864548   0.4184323  29.0244083  77.6183853   0.5031890  29.2257748
  76.5347595   1.0505978  28.3218498  67.1786957  52.7627182  30.9855003
  66.3016968  53.0823631  31.1974792  67.0722122  51.8161964  30.8906937
  28.5653534  39.4575729   3.8560553  28.0388279  39.5078659   4.6538486
  29.3187943  40.0216370   4.0303812  50.7146187  20.8789597  59.1104546
  50.0683022  20.6562939  58.4404373  51.3020134  20.1236515  59.1370201
  41.0693779   0.5126522  45.7864342  40.2144012   0.5900512  45.3630486
  41.0589638  -0.3551003  46.1903267  73.9537811  70.8725891   9.0860977
  73.5176544  70.0239716   9.0094662  74.1740570  71.1108627   8.1855764
  50.3767319   8.3667202  31.7154083  50.4587593   9.0368176  31.0368252
  49.4337425   8.2835770  31.8571663  45.8244934  71.1209412  36.6081848
  46.2382965  70.4844589  36.0251846  44.9213371  70.8156204  36.6937141
  58.4924812  17.7387390  57.1017799  57.8685646  18.4160175  56.8405266
  58.1694069  16.9410191  56.6828537  52.6386299  31.1004562  17.0735245
  53.5748100  31.2856159  16.9992847  52.2389145  31.9527626  17.2468262
  36.8707809  60.6164360  39.1641273  37.7473450  60.3041153  38.9398041
  36.9428482  60.8976212  40.0762558  55.1177750  59.6475296  77.3844910
  54.4362679  58.9761581  77.4167252  54.6382980  60.4716759  77.3001251
  66.7887039  32.9725761  13.4198256  67.5653915  33.2844200  13.8843136
  67.0940628  32.2109070  12.9270258  62.6657066  29.3254642  34.3119965
  62.8039780  29.8047771  33.4950676  63.5194817  29.3381634  34.7445908
   3.8806171  50.2496872  82.1413803   4.0987520  49.9204750  83.0133133
   4.7232828  50.3140335  81.6919327  36.7198257   3.4025033  24.8670235
  37.4260368   3.8715882  25.3113880  36.0165520   4.0470572  24.7883682
  86.3158493  11.8202858   9.9714413  87.0187836  11.8649845   9.3232756
  85.5185089  11.7121592   9.4529848  77.8047867  55.1454926  36.7530136
  78.3416824  55.8078117  37.1881065  78.0916977  55.1664963  35.8400650
  53.3141632  46.3051376  49.2763138  52.4498100  45.9494400  49.4827156
  53.1377106  47.1846733  48.9423790  36.5349007  71.0781326  21.8146019
  36.8445587  71.8482285  21.3378429  36.7058601  70.3453827  21.2229252
  75.5254898  43.7571983  53.3035736  75.7314606  43.4854851  54.1979904
  74.6869888  44.2127304  53.3787346  74.7448044  25.0871544  41.0985260
  74.6086273  24.1397533  41.1094322  74.9317627  25.2917233  40.1823196
  66.9869995  43.9947357  74.3920364  67.8868332  44.1858788  74.6565933
  66.8162460  44.5990372  73.6696091  81.2570496  64.6335220  28.8541660
  81.3017349  64.5770493  29.8086529  82.1715469  64.6609955  28.5727901
   4.9404655  41.0477219  67.9857330   4.1889043  41.5018616  68.3667068
   4.9898586  41.3773727  67.0884476  82.6757355  10.7723742  33.1442070
  83.6107635  10.9769030  33.1548004  82.6174927   9.9421873  32.6713104
  46.0232468   4.3568788  10.4795942  45.9665985   5.2850437  10.7066021
  45.2151947   3.9763665  10.8238258   9.4195185  14.6889973   8.8854485
  10.1855183  14.1475506   8.6948910   9.7790995  15.5574284   9.0664473
  15.8308315  47.0128860   8.0185566  15.7795105  46.0727768   7.8459511
  16.2338886  47.3792648   7.2314448  37.2518425   1.4917978   3.3040495
  36.7308083   2.0205681   2.6997683  36.7602501   1.5121422   4.1251178
  81.5261688  69.8447113  17.0713673  82.0304108  70.3707657  16.4506874
  81.5135498  68.9679871  16.6874142  34.1974030  27.7850800  67.1802368
  33.3484840  27.3597603  67.0591278  34.3257942  28.2955132  66.3807373
  30.3966961  52.3050919  10.2728128  31.3122025  52.0736923  10.1161900
  30.4365749  53.0367851  10.8886595  19.2119350  28.8108196  14.5604925
  19.1389084  27.9988251  15.0620527  18.6112576  29.4159164  14.9955521
   4.3680820  51.7370491  22.0967503   4.7784033  51.9682617  22.9300632
   3.5121851  51.3847656  22.3408165  12.3215466  39.6160622  50.2072868
  13.1130934  39.8326302  49.7145538  11.7735662  39.1402550  49.5831413
  45.4199486  68.5737991   0.9052657  45.4062805  68.9045105   1.8034178
  46.3494606  68.4652786   0.7041132  48.2106705  16.8209896  16.2801228
  47.3439445  16.9446239  16.6670761  48.5120201  17.7070904  16.0795155
  70.7121124  10.2588530  43.9758492  71.4409256  10.7946301  44.2889061
  69.9375000  10.6467981  44.3829231  62.1433830   2.5534017  83.1608276
  62.3775787   2.8644536  82.2863922  62.2773094   1.6064122  83.1220169
  47.1512527  60.0007057  89.0497437  46.8315392  59.3425789  89.6669006
  47.1496506  59.5553207  88.2024841  11.5486250  49.5629082   5.4019122
  12.4364815  49.7519035   5.0982318  11.6724501  49.0958977   6.2282295
  74.5789795  45.9286919  42.1849976  75.1086044  46.6171684  42.5871468
  74.7109146  46.0438766  41.2439575  85.8589783  29.3482094  75.1707458
  85.0622330  29.6232529  74.7171173  86.0186386  28.4583759  74.8562012
  44.0355072  26.0292625  80.5085449  43.3235703  25.6848621  79.9693146
  44.6657562  26.3786011  79.8784790  14.1904564  11.7344828  48.1831245
  14.8058043  11.9187174  47.4734535  13.4037352  11.4151945  47.7411346
  81.4780121  -0.1333856  32.8343811  81.9858093   0.6432775  33.0692596
  80.5655975   0.1361396  32.9396820  31.6828976   1.8816373  75.7343292
  32.1144028   1.0841829  76.0410919  31.6939297   2.4665391  76.4919586
   6.6801376  25.1565800  11.2947779   6.2826200  24.5136585  10.7075262
   6.1916699  25.0676842  12.1131468  58.5766945  14.1275892  14.5259933
  59.0045204  14.0316525  13.6751165  59.0470695  14.8447199  14.9510851
  50.0457611  25.2474499  58.1079407  49.5720520  25.3349533  57.2807922
  49.7727509  26.0074387  58.6218643  35.9205399  46.5008545  47.6673546
  36.5338707  46.7499580  46.9759750  36.2039528  45.6267624  47.9354401
  33.9966583  43.0463867  69.9451447  33.5342216  43.8205566  69.6241379
  34.5567055  43.3761635  70.6478729  15.5761499  64.4955902  12.8049812
  15.1473007  63.9044304  12.1862326  14.8615217  64.8436432  13.3382711
  62.2811356  17.4498978  62.3610191  61.7509346  18.0607319  61.8491554
  61.9629364  17.5501900  63.2581940  66.7842560  35.8226433  26.0942421
  67.4347153  36.5228462  26.0407639  66.6729431  35.5295563  25.1898422
  84.9953613  41.8629303  41.5024834  84.8022690  42.7732735  41.7265854
  84.3632660  41.6456909  40.8172913  40.1361771   1.4671013  40.8157692
  39.8631058   0.6824244  41.2911072  41.0848846   1.5030525  40.9378128
   2.0124876  10.6990128  53.3336983   2.8230498  10.6151733  53.8358841
   2.1815374  11.4175186  52.7242699  74.7307968  62.8217239  17.1989746
  74.1197433  63.5584984  17.1977596  75.5190125  63.1649704  17.6198483
  68.2284393  62.8386078  41.3539467  69.1038513  62.6814156  41.0001488
  67.6536636  62.2843971  40.8260040  62.8344460  34.5800591  61.8651352
  62.0469551  34.7233620  61.3402023  63.0073509  35.4280930  62.2739983
  76.7089005  63.2092934  72.4923172  76.6307907  64.0840607  72.1116409
  75.8048096  62.9185257  72.6119003  81.7793808  64.8520203  65.7114105
  82.5655823  64.5490570  65.2571793  81.1290741  64.1694412  65.5458450
  83.8617783  25.6685009  34.0147057  83.7167969  25.5190525  33.0804253
  83.6269455  24.8383350  34.4293251  48.5094223   4.7645388  57.6213951
  47.7855949   4.3229828  58.0656204  48.6840248   5.5375772  58.1581993
  84.0305710  17.2231808   7.0943847  83.5895309  16.6212578   7.6938901
  84.7448273  16.7076569   6.7198234  76.1174011  33.8724785  64.2185669
  76.2884903  34.1730995  65.1110916  75.4378967  33.2054787  64.3166199
  23.9420986   9.5532417  86.4103165  24.6373310   8.8953648  86.4013519
  23.3621235   9.2986002  85.6926727  78.4313049  33.4978142  69.0353012
  78.1610184  32.9796906  69.7934113  79.2658463  33.8871040  69.2964859
  27.6415005  56.5776405  37.9504776  28.1176720  55.9760818  38.5228539
  28.3239479  57.0124245  37.4391441  11.4014969  11.7037859  25.2315559
  10.6264076  11.7544546  24.6721802  11.1262798  11.1660147  25.9740448
  34.7278862   0.5703299  50.5003738  35.5162277   0.2591895  50.0554657
  34.9500427   0.5394379  51.4309235   4.8564630  28.6089993  67.7832947
   5.5972981  28.4974861  68.3790817   5.2572122  28.7233505  66.9215775
  86.5170746  49.8485031  39.1472054  85.9036102  49.1200142  39.0513191
  86.3535309  50.4014893  38.3832054  49.2163200   5.6689210  65.9457626
  49.0713959   5.5694733  66.8866882  49.0955811   4.7883515  65.5904465
  18.6836662  -0.0180264  22.7042770  19.2890415   0.2125499  21.9995861
  17.8591919   0.4016670  22.4586582  20.0968914  54.0612907  59.5152016
  19.2821655  53.6524963  59.8073311  20.1605339  54.8645248  60.0319176
  13.8162737  39.8806267  22.8514557  14.3841162  39.9985237  23.6129589
  13.0377655  40.4008064  23.0503826  73.1085587  70.7334595   6.5546303
  72.4777832  70.8783417   5.8493938  72.7370834  70.0131912   7.0639949
  13.9727678  63.3402367  76.1588593  13.3313761  62.6529541  75.9785995
  14.8207102  62.9032402  76.0797348  72.4126282  11.4594135  32.4045525
  72.1130066  11.4700155  33.3135872  72.9154282  12.2682514  32.3086395
  68.8449249   8.0028610   8.3035822  68.1431732   8.6030483   8.5556650
  69.3279037   7.8448944   9.1147594  45.6779861   2.0786495  31.6069450
  46.1655350   2.0412560  30.7840672  45.7449417   1.1936469  31.9654408
  52.0913391  10.6223440  73.7525482  52.0827293  10.8454819  74.6833420
  52.1790123   9.6693192  73.7355270  49.4616699   8.4810495  71.3751297
  49.7873840   9.2547483  70.9151993  48.5518036   8.6921797  71.5844116
  46.7806053   4.3398318  59.7109566  45.9269753   3.9391055  59.5467339
  46.9853439   4.1049037  60.6160126  85.8442688  15.6562090  85.7214661
  85.3266449  15.7300081  84.9196854  85.9974594  14.7167139  85.8220367
   5.1400166   0.4573827  29.7543488   5.3208284  -0.4042221  30.1300831
   4.6892695   0.9331183  30.4520130  17.7347927   0.7837787  41.0332947
  18.1728134   1.1540984  41.7996063  18.4269581   0.3189554  40.5631065
  82.6532364  31.7639618  13.0254183  83.4716263  31.9356136  13.4912491
  81.9721222  32.1088448  13.6027994   4.8267646  47.3242569  27.1263618
   4.9026046  47.9733124  26.4269295   3.9201984  47.3982582  27.4245129
  32.2840996  58.9672050   7.6211061  33.2033195  58.9081802   7.8814669
  31.8013058  58.6009750   8.3620615  85.7884750  62.2808762  14.9277735
  85.5090332  61.5892334  14.3279600  86.1342697  61.8132973  15.6880579
  17.0689030  24.0603809  79.3419724  16.3274441  23.7343559  78.8318939
  16.7302856  24.8371506  79.7871704  30.8949623  56.7556038  75.4243164
  31.5635967  56.3468590  74.8746948  30.5223770  57.4454231  74.8751755
  83.3253937  25.6285458  55.4511833  82.8887024  25.1157246  56.1312904
  83.2580643  25.0885754  54.6637001  32.2126617  42.8973923   6.5235310
  31.3598156  43.2149734   6.2268381  32.0190811  42.3950424   7.3149872
  77.7941132  65.5317078  74.3638306  78.3422318  65.6064606  73.5826721
  76.9128571  65.7488098  74.0597382  29.9031029  24.6419086  62.9867897
  30.3599339  24.1318626  62.3179169  29.6346188  23.9951458  63.6393623
  15.5959997  13.8484869  55.4009094  14.8631191  14.3288622  55.0157394
  15.2086029  13.0309563  55.7136383  -0.1628232  37.6504860  78.6274109
   0.2656147  38.4250870  78.2631760   0.2229449  36.9163704  78.1493988
  73.8283157   2.9751515   7.8639603  73.3594818   2.6110179   8.6148481
  73.6107864   3.9072430   7.8748269  42.9707260  39.5040588  45.2154579
  42.4476585  39.3900032  44.4219666  43.6723366  38.8579445  45.1347580
  78.1179962  31.5932884   0.6492000  78.6438980  32.3894081   0.7257509
  77.2120667  31.9012032   0.6757321  43.3480911  14.9665146  77.3297653
  43.9597015  14.7569628  78.0356293  43.8353920  14.7798204  76.5273209
  28.6999474  59.8511925  71.6938095  28.5945148  59.0675850  71.1542969
  28.8565102  60.5556602  71.0649643  67.9378891   8.8795872   3.2040644
  67.4858780   8.0411549   3.2986526  68.5658875   8.8959370   3.9262683
   8.9757967  22.6435509  26.6223125   8.4804039  22.6438808  27.4413471
   8.6997261  23.4435558  26.1750908  19.3640404   8.7745419  12.8556986
  19.0903339   7.8836970  12.6372671  19.8575153   8.6804953  13.6704807
  13.4834414  69.4410400  48.9673309  14.3156319  68.9688950  48.9950943
  13.2376022  69.4388962  48.0422401  37.9690781  42.4448204  12.6246281
  37.5898285  43.0826759  13.2292337  38.9148674  42.5550652  12.7223921
  69.4858398  63.1374817  20.4200706  69.1894226  62.2403488  20.5734215
  69.8246231  63.1280785  19.5248775   4.0334764  13.4722281  41.9725533
   3.2960794  14.0461435  41.7649498   4.4442172  13.2944355  41.1264381
  66.9356079   8.4048634  53.1506004  67.8546982   8.1556253  53.2474976
  66.5361938   8.1783352  53.9904709  40.1447411  28.5575829  85.6613235
  40.0293884  28.0896034  84.8343277  40.5218658  29.4004040  85.4090118
  33.3026428   8.1254749   4.3785982  32.8403053   7.8018632   3.6054556
  32.8440857   7.7247319   5.1170845   0.2641632  51.0409966  79.8748093
   0.6777826  51.8559341  79.5901566   0.5490389  50.3908005  79.2326813
  72.8771286   2.1356623  10.2112589  72.4229660   2.9193592  10.5207510
  73.5444641   1.9671544  10.8764706  73.0037613  39.0686111  36.3229027
  72.6155472  38.7042007  35.5274582  73.7156143  38.4664879  36.5395470
  66.7885208   8.9810886  11.8838711  66.4839478   8.1386890  12.2212601
  67.3488312   8.7535019  11.1419201  34.3730011  56.6379662  82.9958801
  34.2089500  56.3703003  83.9001312  34.5824699  57.5700111  83.0562363
   6.9564562  60.9535561  76.2049789   7.0588794  61.6764297  75.5859528
   6.1955543  61.1960831  76.7326508  73.1938553  47.4319801  76.7049942
  73.2086563  46.9678230  77.5419922  72.4634476  48.0455399  76.7842484
  10.2505293   3.5574710  40.5098953  10.5353146   4.4712453  40.4978294
   9.3224201   3.5927730  40.2783775  25.5081158  54.5535774  69.7103195
  25.2091484  54.5500603  68.8010101  26.1150360  53.8154640  69.7657547
  35.9530907   3.9319012  68.2212753  36.3346405   3.1480842  68.6166077
  35.6576462   4.4560509  68.9657364  71.5444489   1.8183751  13.7548857
  71.2630005   1.3922812  12.9452801  72.4732819   1.5996952  13.8302546
  84.5785751   0.3916590  13.3632288  85.4516678   0.4964694  13.7413273
  84.6810532   0.6524356  12.4479551  58.4250984  35.9651985   7.1178088
  57.8363953  35.5945930   6.4603043  57.8781433  36.0719032   7.8960671
  31.3675365   3.5046582  19.9132614  31.2273693   2.6210546  20.2535992
  30.5199203   3.9376554  20.0147171  32.4192429   5.5582952   5.7454562
  32.7766418   4.6703448   5.7518392  32.2128181   5.7399907   6.6623030
  79.3960266  59.0128670  39.9199486  79.0249405  59.5624199  40.6102524
  80.0533752  58.4790268  40.3661957  37.2723045  54.9405289  57.9108810
  38.0682945  55.4719772  57.9249878  37.5200882  54.1263885  58.3490715
  67.1381073   0.5917552  45.9202461  66.9740829  -0.1873464  46.4515915
  66.2884369   1.0294794  45.8683167  25.6700172  53.7713814  64.6344910
  25.4831600  54.2176514  63.8085594  25.6043186  52.8399963  64.4236832
  27.4162216  38.8307114  57.1220360  27.5586033  38.4435120  56.2583008
  26.6055241  39.3311462  57.0294876  52.7478714  20.6612072  12.3707523
  53.2510071  20.2052917  13.0454569  52.3582993  21.4077320  12.8259115
  42.8434410  53.6334686  30.7371960  43.7071724  53.7129860  30.3323841
  42.4348145  52.8944626  30.2864990  71.4029999  37.5687561  81.0730972
  71.8531570  36.7269211  81.1431198  71.1197205  37.7639122  81.9663467
  85.8116608  48.7228317  65.1619415  86.5098190  49.1053810  65.6934128
  86.0667648  48.9123726  64.2590408  84.2078934   6.5122070  64.6480408
  83.3171692   6.4556499  64.3021393  84.4776764   7.4129438  64.4688187
  80.0945740  37.2272034  12.2874098  79.4993057  37.3971863  13.0174732
  79.6793289  36.5153122  11.8005610  63.1199608  52.7860451  29.3773651
  62.2442780  52.4111595  29.2831612  63.7108192  52.0891113  29.0920582
  81.3161240  13.4721584  43.2338753  82.1431351  13.9526157  43.2719765
  81.1501923  13.2088251  44.1390572  28.6138401  45.2995453  44.8575668
  28.9298172  44.4012527  44.9548531  29.3882198  45.8429527  45.0034256
  53.0900993  26.3273087  66.7442703  53.1903267  25.6244659  67.3862991
  53.0063515  25.8748417  65.9049301   2.6965351  36.3505363  21.3397427
   3.3954041  36.6382370  21.9271450   2.0754688  35.8976517  21.9101849
  44.5325928  26.6888008  61.3139381  43.6208839  26.9010887  61.5138245
  44.8148079  27.3823471  60.7176323  42.8386841  65.7672119  15.6433754
  42.7796860  66.0046234  16.5687866  43.7622871  65.5547638  15.5090227
  54.3358421  36.7453575  20.1055965  54.9889946  36.0555305  20.2229214
  53.4958611  36.3035011  20.2297859  68.7456894  20.3025169   6.5859399
  68.3326492  21.0498638   6.1533866  69.1235962  20.6676693   7.3859892
  47.8664932  17.3919678  83.6838989  48.4677162  16.6771584  83.8932114
  47.3523674  17.5139732  84.4820328  83.1861496  24.0590706  11.4726868
  83.7842560  24.6045914  11.9834795  82.9813461  23.3232040  12.0495644
  64.9141235  23.3169384  67.5379257  64.9159012  23.3957882  68.4918671
  64.4825974  22.4796810  67.3675995  36.4258118  55.5053101  15.3996181
  36.4443665  54.7446938  15.9804373  37.2550468  55.9537010  15.5655966
  52.4887085   4.8854671   5.7176714  53.3744431   5.1906090   5.9141197
  51.9747086   5.1308656   6.4869671   8.3213921   0.8804526  75.1352997
   7.7830029   0.1035525  74.9843140   8.0310764   1.5057789  74.4712830
  60.9577713   4.9065604  11.8091803  60.1085052   5.3203597  11.9632807
  60.7779541   3.9673939  11.8523540  73.5999069  45.7429810  56.2076721
  73.3967514  46.5398064  55.7177429  72.7659149  45.4833488  56.5991783
  46.5545425   5.4894724  39.2935104  47.2652435   6.1147704  39.1515999
  46.7210426   4.7901492  38.6614876  21.9724541  48.0227318  52.1936760
  21.1742764  47.8969231  51.6805305  22.4377594  47.1894035  52.1209984
  73.9315643  32.7229919  45.7202950  73.5300140  32.6652298  46.5872765
  74.7780609  33.1419067  45.8758316  20.9358482   3.6042395  39.8322144
  21.1694107   2.6926460  39.6570663  21.5139561   3.8661833  40.5487404
  59.2961349  25.3481903  53.9892807  58.4781952  25.8453312  53.9970284
  59.5132637  25.2298622  54.9139900  72.2517319  26.7885799  38.7430534
  72.2374039  27.7317543  38.5804291  72.3398895  26.3970127  37.8740692
  81.8382416  62.0419617  77.1739502  80.9759369  62.4452972  77.0740356
  81.8242188  61.6610947  78.0520020  38.4134941   9.7362852   4.9608335
  38.7452927   9.6597414   4.0662484  37.8993073   8.9400654   5.0945263
   3.6355700  59.8883858   2.9062161   3.6893110  60.3571167   3.7390630
   4.5466828  59.7776451   2.6344776  12.5549307   3.2638893  32.8950386
  13.2538261   3.4931021  32.2824707  12.1116400   4.0931969  33.0738487
  64.2267990  66.4007339  55.8241806  63.4429512  66.0908356  56.2778053
  64.7467728  65.6105881  55.6774788  22.7278538  19.6291103  30.5260868
  22.3115215  19.8700104  29.6985207  23.0327492  18.7322369  30.3886547
  13.1527758  47.7900429  47.5089798  13.3004322  46.8488922  47.4158897
  13.8113098  48.0742607  48.1428413  34.2380104  48.5271683  31.7658463
  34.2550125  48.9841118  30.9249268  34.0661240  49.2151146  32.4088211
  85.6222153  20.8290939  43.2056160  85.6063614  21.2195015  42.3317947
  86.4132004  20.2900944  43.2128181   6.8719311  36.1382294  69.8801270
   7.1416502  35.6663094  70.6680145   5.9242926  36.0103645  69.8369598
  53.3777237  59.7706795   3.2898617  53.0780945  59.9636078   2.4014740
  54.0067787  59.0574875   3.1808815  64.5362778  19.1834869  45.6320038
  64.5576782  20.0334663  45.1923370  65.4540710  18.9887543  45.8216629
  68.9357834  15.0008450  42.3936386  69.5414810  15.6093102  41.9703941
  68.8281937  14.2908897  41.7606926  43.6990814  16.5790215  69.7771301
  44.5056000  17.0553646  69.9742584  42.9981728  17.1781826  70.0339661
  23.9394531  50.7229767  35.0311813  23.2456112  50.0823479  35.1874161
  23.8709526  51.3339577  35.7648354   0.0571423  56.0167503  40.3661613
   0.9470333  56.0358162  40.7182465  -0.4812882  56.4068108  41.0547676
   2.6971264  69.4554672   7.0919108   3.1549916  68.8757248   6.4832287
   3.1428423  69.3242798   7.9287858   6.1733537   1.1663792  85.3372040
   6.8971119   1.3211209  84.7301941   6.3805723   0.3270054  85.7479858
  47.4681473  57.9029083  51.3304749  48.1290016  58.5843048  51.4537582
  46.8623657  58.0216141  52.0620270  49.1894913  65.4634476  11.6161814
  49.0988998  65.9892731  10.8214884  49.5209999  66.0763702  12.2724295
  29.4196129  30.0711670  70.6048889  29.7820702  30.2282295  69.7330017
  28.7816257  30.7738419  70.7291946  83.1870575  67.1214752  21.9891510
  83.5769577  67.8697968  21.5372334  83.3434448  66.3802643  21.4040222
  51.6145363  12.5664291  71.8159409  51.4851494  12.1397972  72.6629868
  52.5393486  12.8132620  71.8108749  57.8865738  64.8234863   3.2479472
  58.3706169  64.7988968   4.0733733  58.5591507  64.7318344   2.5730586
  16.0169678  61.5717201  22.1531487  16.4610500  62.0335121  21.4419727
  15.4177485  60.9704094  21.7108879  79.1405640  26.3361359  20.9858913
  78.4928055  27.0199242  20.8153839  78.7664032  25.5481415  20.5918102
  74.8170319  67.4535294  31.8057556  74.5541458  66.6148453  31.4266262
  75.3465118  67.8686905  31.1249294   6.4733286  24.8086586  14.4159422
   5.6274223  25.1495609  14.7065611   6.3654861  23.8576393  14.4287415
  11.3747187  71.2154770  50.1427879  12.0901909  70.6957932  49.7763710
  11.8041611  71.9863434  50.5137062   3.2291875  70.7803497  45.8605156
   3.3947735  71.7181931  45.7643242   3.1329775  70.6496353  46.8038521
  31.8521156  63.4355125   9.2287617  32.2231026  63.5360527   8.3521261
  30.9165630  63.2995796   9.0787735  79.1803894   8.8000841  35.1035690
  79.2683945   9.1911335  34.2343330  79.1602402   9.5473242  35.7014465
  65.5349503   8.6208067  47.4752312  65.2641525   7.7890625  47.8639488
  65.6584015   9.2056561  48.2228546  46.1527138  57.9633789  68.8690948
  46.0511818  58.3141899  69.7538834  45.4211006  58.3370934  68.3778534
   4.7221785  51.9169197  24.8276978   5.4489126  52.1024475  25.4223995
   3.9446764  52.2164574  25.2988682  61.1430168  56.9256592  77.8636932
  61.6425591  56.1363220  78.0725784  60.3168945  56.8180199  78.3350449
  11.4473257  65.5043869  42.4103088  11.3121700  66.4290161  42.6177444
  10.5637722  65.1482468  42.3168640  48.0055580   8.6056299  78.0527420
  47.6315765   7.8857646  77.5446396  47.4333038   8.6825476  78.8161774
  30.7017117  31.6535301  66.9204102  29.9076481  32.0497932  67.2791138
  31.2604008  32.3976669  66.6959991  69.6313019  31.6613178  54.0675201
  70.3135300  30.9962158  53.9756927  69.1947861  31.4445267  54.8913460
  36.2835388  26.1519890  67.5970688  36.3723068  25.5755348  66.8380890
  35.4101906  26.5333576  67.5073318  62.4139137  63.1233864  34.7936249
  62.9411621  63.1729889  35.5909805  63.0474052  63.2128029  34.0816383
  23.1063442  36.7747955  61.1150703  22.4977398  36.7029495  60.3797646
  22.5577660  36.6645355  61.8916855  35.5893707  62.7028809  20.9623203
  36.4128723  62.9740524  20.5566788  35.3383064  61.9103012  20.4879665
  68.7527466   4.1333632  23.3376122  69.1106110   4.0309286  22.4557552
  69.2389221   3.5022187  23.8681946  14.2214823  51.9458275   9.3111134
  13.3860569  52.4003639   9.2029753  13.9944820  51.1306877   9.7586002
  78.6467514  42.4544640  15.1265564  79.1779556  42.8485832  14.4346561
  78.6151581  43.1206779  15.8131390  29.9556065  30.8089542  80.6548767
  29.4619179  30.9758072  81.4577866  29.3801537  31.1119576  79.9525452
   6.2789159   3.0622151  41.5779343   6.8413601   3.5232043  42.2003326
   6.6393857   3.2841790  40.7194328  51.0302811  23.2861710  85.1075592
  50.6125145  23.9497147  84.5585480  50.8699150  23.5813141  86.0038910
  26.3836498  58.9698524   1.5693089  25.9138565  59.5419884   0.9625227
  26.4849110  59.4945412   2.3634624  28.0118523  52.8828316  39.1798134
  28.3839817  53.6772881  39.5626869  28.0064583  53.0509109  38.2375031
  40.8145256  17.6330872  80.9949951  41.5968285  17.0963612  81.1221008
  40.9944229  18.4376354  81.4813766  41.7510300  54.3296700  33.0910492
  42.1477814  53.9563255  32.3040085  41.7071342  53.5983849  33.7071114
  37.4221191  62.3034973  44.2933159  37.7935982  62.9510918  44.8923683
  38.0318108  62.2820511  43.5557175  73.7886124  45.8489418  82.8845978
  74.4416199  45.2494926  82.5233917  73.5096283  45.4352684  83.7014694
  19.3115997  60.1494446   8.3863955  18.8411961  59.4143677   7.9931846
  18.6488285  60.6103249   8.9007425  38.5194740  62.1200218  14.1796818
  38.7207718  61.9754143  13.2551279  38.9657822  62.9384918  14.3968115
  57.7809868  70.5804138  87.7509155  57.2797318  70.7118225  88.5557175
  57.5544128  69.6939545  87.4696732  48.3458023  67.8464584  87.8427048
  48.8621483  68.1215897  88.6002808  48.7407532  67.0176697  87.5718842
  71.1435318  60.9712410  22.9048080  71.7816467  61.3003540  22.2717800
  70.2946167  61.1186447  22.4878674  78.6389313  37.5632133  14.5728416
  78.2796173  38.3118896  15.0488720  77.8774033  37.0191307  14.3721313
  -0.0567651   9.0804729  69.8638535  -0.2439007   9.7775259  70.4926071
   0.7295973   9.3763552  69.4052505  34.3924904  51.1024017  61.3517761
  33.7181473  51.5873070  60.8760033  34.5273666  50.3088837  60.8337288
  65.8274536  65.6154785   9.0211477  65.9047012  65.9499969   8.1276350
  66.7113419  65.6879959   9.3812981  79.6040878  58.1704597  49.4374275
  79.3003845  57.9033432  48.5698776  79.2819214  59.0661087  49.5387001
   8.9833937  35.5594330   6.9375377   8.5611668  36.2068405   7.5021806
   9.9144373  35.6282120   7.1488647   8.4276447  49.4042358  36.3170853
   9.3748760  49.3956108  36.1795769   8.3109312  49.0585518  37.2020226
  77.5748367   4.6313138  49.7154999  76.8662643   4.1132865  49.3336525
  78.2216263   4.7063622  49.0138817  47.3650703  10.3398514  58.2571182
  46.8787956  10.1538687  57.4538879  47.5594673   9.4776030  58.6245003
  24.0963879  69.2790604  44.1756897  25.0030537  69.0284729  44.3528824
  24.1175041  69.6451645  43.2915230  69.8923264  50.3066711  45.4427452
  70.5759125  50.9766922  45.4403305  69.4204102  50.4489288  46.2632866
   2.4596918  46.9944534  63.7895622   2.8248363  47.7500572  63.3291626
   1.5283574  47.1961594  63.8799133  31.6781521  50.1442642  21.7899723
  31.1613522  49.3734245  22.0243912  32.5365791  49.7938499  21.5521870
  21.6570911   9.0427599  84.5041962  21.3667278   8.7731352  83.6328659
  21.8597565   9.9736767  84.4117203  65.3765869  28.8884583  34.9270630
  65.5962219  28.5371952  34.0641594  65.4964142  29.8339748  34.8383598
  85.7028122  48.8767700  55.2197990  85.6141129  49.7996216  55.4579391
  84.9357834  48.6947136  54.6768951  34.2080917  48.5370102   1.8295276
  34.2980232  47.8012161   1.2239258  35.0549889  48.5872841   2.2727745
  12.4216814  54.5233688  26.5375748  11.4770422  54.5026855  26.6907444
  12.6212473  53.6684380  26.1561279  78.0874100  10.6166172  82.5265656
  77.6231155   9.8891792  82.9406815  78.7929840  10.1998358  82.0319061
  38.5165482  63.6124535   0.8931743  39.3001900  64.1114883   0.6627362
  38.5702019  62.8212547   0.3571147  23.7996712  44.9304047  16.2319412
  24.5219860  44.3431473  16.0091801  24.1355286  45.4594193  16.9555244
  70.7477493  54.8248062  84.1059418  71.1350098  54.9600410  83.2410889
  70.6297760  53.8770638  84.1700058  83.6225586  27.0916729  57.9653778
  83.3847961  26.7248592  57.1138229  84.0516281  27.9216290  57.7572899
  75.2800140   9.3380976  77.3855438  75.2896423   8.4119720  77.1438141
  75.9237747   9.4083624  78.0904236   3.5994594  31.0328102  32.3650856
   3.7424650  31.9757099  32.4470749   4.0803685  30.6527977  33.1003075
  34.7479553  22.3072414  86.1106033  35.2265625  21.4785442  86.0899277
  34.1660194  22.2289410  86.8665466  38.6087799  45.7714386  61.4947281
  39.3799095  46.3376236  61.4626961  37.8848801  46.3639297  61.6976128
  54.6354599  50.5458679  18.3528423  54.8973007  49.6607590  18.6063156
  54.5948143  51.0291862  19.1780605  61.1673317  58.8032341  41.3269958
  60.8463745  58.3917885  42.1294518  60.9253960  58.1920700  40.6311684
   4.3504958  32.6417122  37.4288864   4.6514273  33.5448112  37.3284874
   4.8092556  32.3213196  38.2054939  55.5201759  69.0761948  55.9333954
  55.0406075  68.4631500  55.3762360  55.7311592  68.5713196  56.7187767
  73.4922409  44.3339806  26.8478870  73.0323105  45.0333977  27.3121243
  72.8225861  43.9341698  26.2929611   1.4516369  49.8618622  70.2778931
   1.9800223  50.5996056  69.9732971   1.8617741  49.0934601  69.8809280
  18.1677475  61.1205864  35.9691772  18.3193455  61.8765450  35.4019241
  17.3739433  61.3418999  36.4561310  29.5060120  43.2547684  47.4333305
  30.3599586  42.9342537  47.7236328  28.8740044  42.7483253  47.9435387
  66.0076675  50.8434029  27.1837406  66.6780472  50.1950836  27.3994141
  66.4756622  51.5166206  26.6897888   9.5870972  48.6525307  81.2783051
   9.8314676  49.5382843  81.5465546   8.6369972  48.6218338  81.3905487
   9.7468796  50.2004433  73.5208206  10.6675682  50.1056137  73.7648926
   9.2695723  50.1053238  74.3450546  17.1035404   5.9769044  44.5931625
  17.3156414   6.8846769  44.3759193  16.3353024   6.0396700  45.1607018
  79.6506500   0.9399002  28.5214577  79.9351654   0.5870598  27.6783752
  80.3426132   0.6872084  29.1326599  39.2488899  42.3756485  45.8597908
  39.7030754  43.1969414  46.0480042  38.9808884  42.0479698  46.7182961
  81.6934738  31.8021812  60.9537201  81.6920547  31.2397957  61.7282867
  81.4372330  31.2225189  60.2363892   8.2815933  68.9813004  36.3613701
   8.6902971  68.4973145  35.6437721   7.5518594  68.4274445  36.6387901
  69.8394775   1.9338815  53.9815712  70.7487793   1.8394530  54.2652473
  69.8234863   2.7609358  53.4999504  72.7800064  46.4132614  68.0083237
  72.8259277  45.8256149  68.7625046  72.0708008  47.0201302  68.2203827
  59.8649864  63.7557564  66.5582886  59.4003906  63.5289268  67.3638458
  59.1943474  63.7181892  65.8763275  61.6610680  40.5668526  79.2385788
  62.2178116  41.3168526  79.4477768  60.8545570  40.7228050  79.7299576
   0.9905790  40.2287979   0.8449148   0.3731591  40.7466431   0.3283292
   1.5211532  40.8785629   1.3059241  76.9953842  12.6943712  10.7004967
  76.3449860  12.4873123  11.3715763  77.8110275  12.3206244  11.0340538
  72.2038727  63.7661095  37.6457443  72.7894211  64.3519287  37.1659660
  71.4826584  63.5987701  37.0390549  31.9542179  48.8771248  48.5631714
  32.3958778  48.0378456  48.4336433  32.5797920  49.5284538  48.2459068
  60.0052528  36.1717110  20.3586998  59.7037735  35.9883194  21.2484798
  60.8663406  35.7568436  20.3072891  13.3496752  14.9252567   2.7842412
  13.8672476  15.0038652   1.9828851  13.9992228  14.8226061   3.4797862
  78.6298981  60.7927666  80.3884735  77.7020721  60.5750923  80.4778519
  78.7313080  61.6124039  80.8723526  78.1651840  39.8025284  15.8608150
  78.3820572  40.7175713  15.6822224  77.2892914  39.8346634  16.2455463
  33.2047806  51.3029747   9.8888741  33.8842392  51.7822380  10.3630867
  32.9433556  50.6031265  10.4872904  27.5042953   3.1216052  27.4995956
  27.4661751   2.1744580  27.6326027  28.0684509   3.2335050  26.7344570
  20.4303875  23.9600563  71.3654480  20.3281631  24.6291866  72.0422440
  21.3747826  23.8122082  71.3155212  37.8937645  10.2960939  82.0321579
  38.5299110  11.0103550  81.9950333  38.4077187   9.5081778  81.8553314
  37.5320358  51.5731621   3.5934048  37.9370613  52.4289474   3.7341900
  37.3974228  51.5246773   2.6469586  12.1409655  13.6820717  27.7623825
  11.3338919  13.8386641  27.2721348  12.2629118  12.7333593  27.7262363
  56.3646927  18.6433964   2.4804192  56.9415131  19.3473988   2.7768879
  56.5670586  18.5436764   1.5501847  79.7018509  53.8809166  86.9649353
  78.9246063  53.9093208  86.4069748  80.4363556  53.8592262  86.3515320
  59.8574409  44.5507812  51.3289337  59.2552567  45.1803589  51.7254677
  60.6592903  45.0504189  51.1752014  70.6003418  35.8990211  45.5599213
  70.6252747  34.9421577  45.5651360  69.6782303  36.1153488  45.6982880
  65.4008942  37.0815048  36.0257568  64.6159363  36.6626358  36.3787651
  65.2812042  37.0531387  35.0764961  36.2715874  41.5127525  65.7162323
  35.9762955  40.6163788  65.8760681  35.8337212  42.0329018  66.3899994
  43.7953453  37.3489952   9.9639120  43.7240944  36.6256104  10.5867023
  43.5997658  38.1303902  10.4810238  68.7230148  18.3036842  58.9448433
  68.4611740  19.1239967  58.5268021  68.6179276  18.4682064  59.8819237
  19.9955254  58.1742058  25.8586121  20.0409889  58.4705086  24.9495621
  20.1622887  58.9620972  26.3759613  16.4526463  29.4583187  85.1128464
  16.3340225  29.9407196  84.2946472  17.3695374  29.6039162  85.3459625
  70.3752975  31.3383636  42.9667473  70.9735947  30.7958908  42.4529419
  70.2396088  30.8450756  43.7757530  75.1814270   8.8027439  52.5494232
  75.8968430   8.6536188  51.9312248  75.5229874   8.4963341  53.3894730
  38.0086517  54.7729378  78.9517212  37.8447990  55.0827026  78.0609741
  38.8640251  55.1377449  79.1786194  82.1787262  61.1453552  87.9703751
  81.6970978  60.6303368  88.6176910  81.5050278  61.6555405  87.5208511
  36.5254555  49.0833969  87.5971298  37.0874710  48.7642136  88.3031693
  35.6621590  49.1739655  88.0005569  25.0870438  33.8128242  66.1394653
  24.9589806  34.3701401  65.3718567  24.2202721  33.4479599  66.3178329
   3.4539280  44.8582230  57.0992279   4.2626667  45.2928352  56.8285141
   3.7039182  43.9425545  57.2228889   3.5371077  19.0483990  27.4162731
   2.6611862  18.8055725  27.7163200   4.0696650  19.0542660  28.2116222
  34.4427299  58.5526962  80.1648331  34.9072380  57.7161369  80.1397552
  33.5841789  58.3613434  79.7873230  40.0898666  55.4510460  13.2458563
  39.7113152  56.0467072  12.5992393  40.1328926  54.6065559  12.7972803
  14.4176636  48.9405098  20.0094795  15.2901554  48.8504906  19.6262226
  14.2038727  48.0631943  20.3270359  20.5380020  43.9004097  54.2845764
  20.2779312  43.0981598  54.7373314  21.3903198  43.6935158  53.9011955
  19.1202183  63.0495872  56.5083847  19.8705254  63.3497734  55.9953957
  19.3496437  63.2594681  57.4136734  48.0005836  58.5341644  17.3667603
  47.7776031  59.0929985  16.6223049  48.8785210  58.2089081  17.1675949
  44.3670502  54.0188332  62.1029778  45.2629395  53.7752953  61.8699532
  44.1186562  53.3943253  62.7845383   0.3992177  26.1016922  23.2754898
   0.2933689  26.5859852  22.4566555   1.1934589  26.4646702  23.6674843
  34.1582832  55.6534233  39.4000320  33.5758934  54.9334526  39.6422997
  35.0369186  55.3256912  39.5919189  16.1752796   3.5309494  47.3263283
  16.1745529   3.0155787  46.5197182  15.8624258   2.9249799  47.9980125
  64.9012222  62.6155090  64.4164124  64.9875412  63.5645142  64.5067825
  65.2632370  62.4233780  63.5513878  60.8125610  15.9013033  54.6061668
  60.9693031  15.2188864  53.9535027  60.2666016  16.5444202  54.1538849
  29.1861458  63.9789124  35.8266029  29.0518723  63.5573845  34.9777679
  29.8144379  63.4147987  36.2774429   5.3038812  51.8080330  33.1880226
   5.7962995  51.3741493  33.8848000   4.4190416  51.4504433  33.2616425
  35.2836418  48.8890533  16.7240372  35.4053383  48.6252022  15.8120041
  36.1716881  49.0232964  17.0550709  68.6618347  19.1219692  55.8102074
  67.9079895  18.8564949  56.3369598  68.2885513  19.6594563  55.1116371
  49.2560463  62.5901184  87.1188736  48.4664764  62.6337738  87.6582260
  48.9599419  62.2118301  86.2909546  28.1601143   6.0887175  86.6098938
  28.1951008   5.3732581  85.9749680  28.1686382   5.6531849  87.4622269
  31.5482311  29.8057518  41.6108627  31.9556808  30.5919056  41.2472992
  32.2848701  29.2497540  41.8647537  42.0628700  47.1627312  45.6646309
  42.6911697  46.6547470  45.1513824  41.3554764  47.3595467  45.0505524
  19.4442120  12.5539608  75.0967789  19.9113808  11.9702978  74.4990158
  18.6397476  12.7806787  74.6302338  61.0682983  30.8022652  17.6616573
  61.7735634  30.2198658  17.9438629  61.1333656  30.8119888  16.7067204
  83.8289032  17.4875221  74.7821579  82.8860550  17.5330791  74.9408798
  83.9049835  17.2051907  73.8707123  75.2519684  30.4022408  86.1065598
  75.8003922  30.4282131  85.3224792  74.4288559  30.8095570  85.8367233
  72.7287903  41.7359619  84.9689407  73.3671570  41.3505554  85.5690842
  72.9119186  41.3213310  84.1258621  13.7049541  44.9233360  46.7242088
  13.2983131  44.1119423  46.4200401  14.1040831  44.6915054  47.5627670
  54.2762566  55.9570007  10.7212486  54.7532730  56.7799683  10.8280697
  53.4994926  56.1943970  10.2147789  51.7285309  44.7716713  42.6615486
  51.8580093  45.6433830  43.0351601  52.1062469  44.8287315  41.7838783
  33.1646767  22.5912800  71.7434158  33.4428596  23.2413235  71.0982056
  32.7870941  21.8827972  71.2221527  62.8251190  62.4757500  26.9399929
  63.4778175  61.8802109  26.5718174  62.1443748  62.5293312  26.2692108
  47.9868736  21.0792446  60.8243523  48.7238388  21.2364140  60.2340851
  47.3145828  21.6975155  60.5380020  27.1489105  60.9625397  36.3376274
  26.5764370  60.8137207  37.0901947  26.6072025  61.4505196  35.7174149
  58.2503624  29.7011871   7.6136489  59.1916771  29.8327961   7.5003171
  57.8509140  30.2064667   6.9055786  75.1104279  42.5831146  50.8799667
  74.4989700  43.0205421  50.2875061  75.0427017  43.0737419  51.6990700
  58.6591225   6.9213161   5.3865004  59.6030884   6.9028664   5.2289519
  58.4894180   6.1422415   5.9160991   1.6491987  30.6547241  67.2940063
   1.5670114  30.4316978  66.3667908   0.7525343  30.6256275  67.6277466
  16.3734360  70.7105408   5.3813853  15.7956839  70.0769501   4.9559455
  15.8025122  71.4477615   5.5976729  41.2850647  21.6810856  67.1652679
  40.9093895  22.4792995  67.5366974  41.7402954  21.9752445  66.3763046
  68.9155655  50.6402168  75.7981110  68.6077499  50.9865532  76.6356812
  68.5027237  51.2005424  75.1409683  49.2344513   5.2905049  44.4308014
  48.7228889   4.6712747  44.9514618  48.5813713   5.8682480  44.0359230
  61.3807564  15.2040424  60.1579018  60.8602066  15.1715746  60.9605255
  60.8410645  15.7000284  59.5423050  86.2976074  10.2460041   2.6465595
  86.9943008   9.8155251   2.1510448  86.4802246  10.0233498   3.5594172
   8.4771700  15.8964758  28.9786129   7.9945083  16.4945564  28.4080257
   8.7136497  15.1627111  28.4112511  13.0453262   9.8659439  12.9072952
  12.6869926  10.7000723  13.2107077  12.2875690   9.2830935  12.8591175
  68.5979767   4.9593048  83.0102081  69.3579254   4.4821296  82.6770096
  67.9699936   4.9439425  82.2879639  82.5956345  64.6813889  73.8012238
  82.2980804  63.7981453  74.0193481  82.1278152  65.2496719  74.4131317
  28.6782684  59.1707344   5.8459239  28.1561069  58.4666748   6.2304769
  28.9323158  59.7150192   6.5912066  27.4123440  26.3791752   8.1429834
  28.3350811  26.1269417   8.1088390  27.4035759  27.2940884   7.8617592
  21.6580505  55.9423485  32.4286156  21.1567402  55.3452568  31.8732777
  21.8473797  55.4339027  33.2172050  31.1243324  52.1679459  54.5871696
  32.0585480  52.3604240  54.6673431  30.7161732  52.6616096  55.2984581
  46.1770058  61.6431236  45.6065254  46.6499329  60.9217186  45.1916161
  45.4965515  61.8777504  44.9755249  83.6748810   9.7929153  56.5333672
  83.6260452   9.0333214  55.9529686  84.6072388   9.8849077  56.7295303
  59.8666000  48.4728661  50.2478027  59.8392105  49.4094124  50.4436722
  59.7565918  48.4234505  49.2982292  46.7858696  66.5190201  65.1630783
  46.0293503  67.0930023  65.0428543  47.4931030  67.1072083  65.4278259
   7.5531845  63.8462753  21.4655170   7.7758937  64.7769165  21.4887943
   6.7862244  63.7977409  20.8948593  20.9322357   3.5525208  21.7183666
  20.8992424   2.8528161  22.3707142  20.5866814   3.1524844  20.9203739
  33.3978844  16.3635063  74.6442490  34.3483963  16.4473705  74.5685959
  33.2341423  16.3360844  75.5869446  68.5997391  56.4099312  39.8609123
  68.2286377  56.3249969  38.9826736  69.2224426  55.6861496  39.9288292
  11.9777365  34.7924957   8.2385721  11.7612419  35.7172318   8.1193047
  11.8081417  34.6244240   9.1655140  49.7019539  34.3287201  37.0232811
  50.2006645  35.1154366  37.2437363  48.9567490  34.3413925  37.6238976
   3.0127759  29.8317528  10.1296835   3.8510523  29.3887825   9.9981432
   3.1758630  30.7367954   9.8641071  75.7019730  61.1273232  84.7089767
  75.6749725  62.0518990  84.4626694  76.1965332  60.7064667  84.0057526
  57.2204285  20.6580181  73.6739655  56.7419510  21.3732891  74.0931091
  56.6115570  20.3128166  73.0210190  55.3748360  57.5202065  81.7493896
  55.7785454  57.0648079  81.0105667  55.8128662  57.1605186  82.5207443
  77.7041016  57.4215698  22.7791309  78.1623001  57.3242950  23.6138916
  77.4012146  56.5384827  22.5678406  61.2407455  18.5338726  27.9102402
  60.5759163  18.6915760  28.5805836  60.7852554  18.0315056  27.2346745
  11.5073214  20.3338890  62.4715538  12.3992138  19.9914665  62.5307732
  10.9608879  19.5582485  62.3449631  74.8179703  51.5982056  51.3797417
  75.7162781  51.6821327  51.6994781  74.8336334  50.8196907  50.8230553
  48.4017448   7.6738997   4.4173799  49.2034950   8.1711206   4.2555318
  47.6997528   8.2407160   4.0977573  32.7322464  11.5217838  38.4724846
  32.5777283  11.6196527  37.5329208  33.3435669  12.2257137  38.6892776
  22.4486980  71.0192871  77.6193466  22.6871910  70.1191940  77.8411331
  21.7638035  70.9292526  76.9567413  72.6847992  69.8646240  65.8543015
  72.0206375  70.5025024  66.1155167  73.4442902  70.0732574  66.3982544
  22.3745461  49.3748741  88.7785950  22.7388287  48.9384117  88.0085068
  23.1306038  49.5343857  89.3435440  73.2782669  18.0285797  66.5462875
  74.1912308  18.1552410  66.2880630  73.2970734  17.2684803  67.1277771
  44.5988693  57.7743225   7.0392365  44.9795074  56.8982201   7.1008034
  44.6475258  57.9917297   6.1083231  76.0220032  11.5920582  31.5924034
  76.5226135  11.0326576  30.9985199  75.7687225  11.0124865  32.3108559
  25.8657207  25.1008377  70.8773880  26.8074036  25.1533012  71.0408325
  25.5486813  24.4549294  71.5086746  41.3853188  28.4803448  13.4730310
  40.8869553  27.9163609  12.8816051  40.7264519  29.0443497  13.8780298
  63.8410606  23.7759495  10.6175261  64.4604187  23.7799644  11.3473272
  63.1198578  24.3319626  10.9123888  25.4588699  13.2829781  78.0473328
  24.7614231  13.9297276  77.9400253  25.9360371  13.5721149  78.8251114
  44.4024086   0.3031362  57.6279259  44.5066643   0.0087055  56.7231216
  43.5469398  -0.0349091  57.8927383  85.9223328  31.5496998  62.8711700
  85.0847244  31.5875645  62.4094200  86.5130692  31.1095448  62.2600021
  70.4693832  29.4142609  24.0334320  71.0174484  28.6735764  23.7741337
  70.7109070  30.1146774  23.4273701  18.5782433   4.4550080   8.4356537
  17.7575760   4.6475377   8.8891611  18.3988190   4.6605744   7.5181675
   2.1217453  61.0979424  42.7136040   2.7933648  60.9546356  42.0468025
   2.4936979  60.7240715  43.5124168   9.2090864  31.1997147  77.3439178
   9.8207150  31.8724155  77.6432800   9.1876926  31.3017845  76.3924179
  79.8461838  43.6275940  12.7009783  80.1300812  43.8719215  11.8201056
  79.1551285  44.2551994  12.9126015  46.7386093  22.0409698  35.0059090
  46.3228798  21.3024654  34.5609245  47.3079834  21.6364880  35.6604614
  73.8805847  33.6732025  55.8666992  74.3915253  33.9975319  56.6083031
  73.9145584  34.3819122  55.2242012  48.7960052   1.6754911  70.1285706
  48.8001785   2.6255417  70.2452698  49.6647606   1.4730008  69.7814484
  47.2628937  27.6107388  69.8239441  47.6053505  28.2996578  70.3934555
  46.8360558  28.0817604  69.1082764  27.2860928  47.9562645  54.7618561
  26.6370831  48.4620934  54.2728195  27.7640057  47.4680481  54.0914307
  59.8665047  46.3648071  30.2114201  59.1328773  46.0038567  29.7136879
  59.8859711  47.2912445  29.9715004   3.0155036  30.4316483  82.8361206
   2.7284739  31.2413082  82.4138641   3.7662494  30.6927681  83.3694382
  52.7665787  66.0529633  20.8614197  53.5941772  65.5760727  20.9238167
  52.3654785  65.7319489  20.0537643  51.3169594  42.9560280  26.5667629
  51.3800964  42.1219635  27.0321484  51.6137199  42.7577820  25.6785831
  10.6954536  68.3195267  18.2789345  10.4868670  68.7624359  17.4564037
  10.9435568  69.0260468  18.8751831  77.7325134  46.2053795  26.9238434
  76.9452362  46.0399704  26.4051304  78.3953476  45.6288910  26.5436401
  27.9855709  59.8242874  75.9093475  28.6603451  59.5032387  75.3111496
  27.4644623  59.0496368  76.1205292  41.6694260  33.1486435  70.7862320
  41.4936333  32.2880707  70.4057770  40.8452034  33.6258125  70.6903229
   7.1212564  55.1091576  61.0686150   6.7402654  55.1837692  61.9435463
   7.3360863  56.0091248  60.8233833  48.7091827  35.7514610  64.0558853
  48.3315086  35.0051689  63.5904388  49.6537094  35.5990639  64.0263901
  38.0629425  40.6396942  20.8427582  37.9534912  40.9222450  19.9347839
  37.7662888  39.7296371  20.8478203  19.6748810  22.0852432  63.8065681
  19.1919861  21.6085930  64.4817352  19.1559906  22.8748684  63.6533394
   4.5041490   4.4750400  33.1813240   4.4285951   5.1579833  32.5149040
   4.1120138   3.7012122  32.7767830  23.3636971  63.0186005  59.2082787
  23.5619049  63.1981735  60.1273537  22.8133640  63.7522430  58.9341736
  21.3191891  42.2212753  62.4603920  21.3111134  41.7299919  61.6389236
  20.8695259  43.0406570  62.2538605  41.1618462  46.5368462   0.4036731
  42.0721626  46.3426933   0.1803925  41.1938248  47.4047165   0.8061817
  77.5944824  20.3824615  56.5299454  77.6064301  19.9432545  57.3803482
  76.9533081  21.0857315  56.6325836  33.4170990  24.9629002   7.0674214
  33.1102448  25.2296982   7.9339614  34.3557854  24.8139801   7.1811032
  60.3130722  41.5075760  64.1846695  60.3295975  42.4637260  64.2263260
  59.4883957  41.3012199  63.7447205  13.7333927  67.8682785  54.8858604
  12.8722773  67.7612305  54.4818153  14.3525858  67.6202164  54.1993484
  20.5506325  68.4494553  84.7773514  20.5221672  67.4972687  84.8709488
  20.9993191  68.7543335  85.5660019  70.3675690  57.0341759  49.4907913
  70.8374100  56.2338753  49.2562637  70.2835693  57.5129738  48.6662102
  22.9730816   1.6951945  65.4868317  23.4404659   1.4992203  66.2988510
  23.1243839   0.9295573  64.9326324   3.9410675  19.4258595  48.0477486
   4.7895713  19.4928837  47.6098213   3.5499368  18.6282196  47.6913528
   5.2958703  10.0791903  85.4872284   5.4005809   9.6670256  86.3447800
   4.8196840   9.4320269  84.9669800  59.5283623  54.8277168  86.6470413
  59.2722435  54.2293015  85.9452362  59.2711105  55.6933022  86.3295288
  64.8075333  51.3524246  46.3859558  65.1702347  51.3190422  47.2711487
  65.0687561  52.2107201  46.0522995  33.3280945  45.8678017  15.7206240
  32.9167862  46.5690994  15.2154131  33.4859428  45.1730003  15.0814323
  16.2904968   7.3744640  50.5246620  16.0952835   8.1856899  50.0555801
  16.8030205   7.6538463  51.2832756   9.7349033  44.7026329  60.1683311
   9.4158249  43.8903389  60.5615234   9.9165659  44.4724503  59.2571526
  14.0309544   3.4538043   4.2226539  14.3454695   2.8268666   3.5713003
  14.3249893   4.3047419   3.8975687  82.0819778  71.7126846  82.8570251
  82.6517944  71.2599640  82.2352600  82.6200409  71.8188858  83.6415253
  62.4982719  40.1101227  64.9255600  62.5353622  39.5144806  64.1771851
  61.7946777  40.7222137  64.7098618  54.9934044  49.8779068  13.7504272
  54.7306709  50.4221992  13.0081682  54.4247093  50.1594543  14.4670496
  70.2759628  30.7236862  47.8208046  70.3739395  29.9004955  48.2993355
  70.4473724  30.4919796  46.9080276  50.9703865   9.1220531  20.9688225
  51.7887840   8.7972527  21.3442707  50.3023109   8.5169926  21.2910156
  66.4046783  69.4869843  62.6092796  67.2415314  69.0833740  62.8394890
  66.4688950  70.3805084  62.9465027  44.7690964  27.2692299  87.5817490
  44.3108635  28.0279503  87.2203674  45.6123657  27.2606773  87.1289139
   2.5826418  19.0117512  64.9130630   2.4656332  19.6393070  65.6263046
   2.1334300  19.4100094  64.1675186  47.2157593  65.6114273  75.6539536
  47.1276817  66.3166504  75.0127563  46.9527245  66.0084305  76.4842758
  51.3817596  30.9609528  43.1306953  51.5701294  30.1513195  42.6560974
  50.4350090  31.0735989  43.0458183  70.2143021  57.9806709  44.0483513
  70.2378387  57.1839676  43.5183067  69.6561661  58.5808830  43.5539207
   6.8748932  67.6239624   9.8755693   7.6165733  68.1201248   9.5292130
   6.7666879  67.9478607  10.7697792  52.5756912  69.2207108  20.5622635
  52.8987198  68.3417740  20.7606544  53.3667641  69.7523346  20.4738655
  50.1900902  56.5668831  19.3840599  50.3826790  57.3537216  18.8741322
  50.2473335  55.8512230  18.7509823  54.6084900  66.5266724  16.2991428
  54.3884926  65.6172867  16.0970154  54.8420906  66.5159607  17.2273388
  47.2783051  44.9930954  57.7140465  46.5323715  44.7046852  58.2400093
  47.2376251  45.9489403  57.7446022  51.3518829  10.1187201  65.8026810
  50.9439545   9.2905645  65.5497284  50.7134438  10.5326433  66.3834534
  34.9518509  57.2776070  73.6716690  34.8658905  56.7211647  74.4457626
  34.5016937  56.7948341  72.9784775  81.2336578  41.5125504  34.1088791
  81.0204773  41.5687027  35.0403442  81.5410767  42.3897324  33.8802261
  65.6992645  23.6501026  74.9445343  65.8274002  24.5955276  75.0218964
  66.0139847  23.4368382  74.0660706  17.8175182  61.4322243  24.7983570
  18.1364670  62.1400604  24.2384701  17.8711720  61.7863045  25.6860409
  59.0915947  47.6423759  38.7965126  59.3322601  48.2570953  39.4896431
  58.6121597  46.9478455  39.2481766  13.7986231  32.8709412   0.6900130
  14.1460209  32.0540657   0.3318782  13.4772339  33.3498421  -0.0739210
  70.4274902  59.7217979  33.4018440  70.4127502  60.4658699  34.0038185
  69.5147247  59.4384270  33.3489113  77.7498703  17.9571323  44.6756363
  77.4005508  18.2222824  45.5264626  77.0365067  18.1269016  44.0603905
  53.1678238  47.1281052  13.7253084  53.9635544  46.7502899  13.3507376
  53.4607887  47.9382019  14.1426201  74.4908905  68.7945786  55.8947983
  74.8893890  68.1344452  55.3276520  74.3580780  69.5517273  55.3244324
  43.5107574  27.8621750  64.5690536  44.3694153  27.5040169  64.7941437
  42.8907928  27.1831036  64.8350143  31.9297466  44.4194336  11.6820068
  31.4114933  44.1930885  10.9097290  31.4205456  45.1008682  12.1208620
  43.2034531  56.3352089   3.5668502  43.4273109  55.5338936   3.0935442
  44.0468063  56.7507744   3.7465527  31.2213135  19.6304779  75.0767136
  30.5796146  18.9838867  75.3706055  31.3894176  20.1695271  75.8496246
  71.4915771  20.8194427  40.7878799  70.5436249  20.7424622  40.8959808
  71.8299713  20.8845997  41.6808968  39.1387749  68.5460281  18.5637989
  39.7625961  69.2143860  18.2802830  38.4737320  69.0309982  19.0524158
  77.3288651  46.4395828  46.5257454  77.9928436  45.8579521  46.8959732
  77.1814346  46.1028786  45.6419334  15.2483568  57.0503082  49.4460793
  14.5314989  57.6845360  49.4357986  14.9877300  56.3839378  48.8102684
   6.9397092  58.7869377  65.1348114   6.4645157  59.2302208  65.8376083
   6.2720652  58.6006432  64.4746780  43.2873802  16.7042999  81.0705109
  43.8556137  15.9355135  81.0224609  43.6034775  17.2796822  80.3739090
  10.9502859   6.5940289  85.1894684  11.7705164   6.3270235  85.6043930
  11.1641378   6.6637888  84.2590790  69.7167740  26.5192814   7.8409591
  69.6427994  26.5394897   6.8868356  68.8297348  26.3285713   8.1459751
  81.2944412  17.5212097   1.0878268  80.9065475  16.8785763   0.4938629
  80.5443573  17.9676857   1.4805954  18.0184364  59.6483727  45.8354187
  17.4328194  58.8997765  45.7218971  18.8727913  59.3305702  45.5433388
  71.3984756  36.2678070  72.7452469  70.6251373  35.9995003  73.2414322
  71.1657944  36.1030998  71.8314896  12.3306227   1.6879303  70.2054443
  13.1085052   1.1472945  70.0681763  12.1791391   1.6542053  71.1499786
  72.2771988  10.3196411  27.0203400  72.2889328  10.4711685  27.9653969
  71.9965591   9.4092569  26.9272041  70.0719376  32.5127487  84.5921631
  69.4490204  32.3303108  83.8886490  69.8914413  31.8428154  85.2515869
   6.2135181  64.3782806  42.6220055   5.3340068  64.1022797  42.8799133
   6.1961374  65.3325348  42.6949959  22.0063210  39.5597572  69.4661789
  22.5429001  39.9574814  70.1518326  21.1395378  39.4699593  69.8622208
  42.0018883   2.4734674  72.0458145  42.6769905   3.1407716  72.1689987
  41.1816292   2.9216866  72.2519913   1.1265808  10.9052362  60.2630768
   1.6297021  10.1705036  60.6141701   0.7023651  11.2926407  61.0287056
  40.2013168  45.1471558  57.2499275  39.8805161  44.5286942  57.9062996
  40.3964882  44.6052437  56.4854202  27.6993122  18.2007008  79.7195358
  27.6476841  17.5532551  79.0164108  27.7628498  19.0415802  79.2666321
  70.1086578  37.4024773  68.1630783  69.4807129  37.6234169  67.4752579
  70.3218918  38.2416115  68.5712662  63.7023926  64.8041992  46.7758026
  63.3308716  64.1297455  46.2071915  63.7842903  64.3792191  47.6295700
   4.7180614  17.0697136  21.0450916   3.9069262  16.6112309  21.2643719
   4.4579272  17.7160587  20.3887367  72.3871460   2.2187090  88.0971832
  72.7026901   3.1192148  88.0213165  73.1722260   1.6805068  87.9960709
  77.6235046  70.8038101   0.3701718  77.4630127  69.9416275   0.7537255
  78.4203873  71.1130371   0.8009769  66.4509659  68.5639648  21.3187656
  67.3846512  68.7637177  21.3862400  66.2375336  68.7243652  20.3995533
  34.4070549  46.2132683  86.1045761  33.5950813  46.0488472  85.6250992
  35.0620003  45.6772423  85.6574173  24.0644112  12.2010546  46.8954811
  24.8822556  12.5953798  46.5923805  24.0773468  11.3148775  46.5338783
  86.1210556  21.0989990  88.9676819  85.9272537  20.3497639  88.4043732
  86.5764771  20.7214222  89.7201843  73.8023987   8.9568520  49.5613022
  74.2698059   8.2681456  50.0339966  73.1702194   9.2957268  50.1951408
  68.4680862  21.6296616  35.1187096  69.3777695  21.7970715  35.3650475
  68.5172806  20.8977680  34.5037727   4.3392806  47.7424545  86.4235840
   4.8808985  47.9652786  87.1807098   4.5976562  48.3722000  85.7506104
  30.7797966   0.3412614  37.6155968  30.7354374  -0.6032495  37.4667244
  29.9408588   0.5594014  38.0215874  24.7445202   9.4583874  46.6714363
  25.4710026   8.8351936  46.6807213  24.5493774   9.6125536  47.5957642
  51.2736855  56.5232468  88.3501358  51.4866867  57.2035255  87.7113266
  52.1200066  56.2622032  88.7132263  23.3182793  70.5101166  49.0486259
  24.2205830  70.2897873  49.2800064  22.9658127  69.7062454  48.6668053
  65.7005615  32.7086220  76.0759659  65.0741653  31.9848480  76.0787277
  65.2631989  33.4057617  76.5647888  33.5063629  42.3606796  12.1826954
  32.8948059  43.0736122  11.9984226  33.1872520  41.6288757  11.6546240
  85.6168289  16.6359825  53.3700409  86.0588379  17.2985535  52.8391380
  86.2660904  15.9404154  53.4743500  66.9776306  28.9945641  49.8799324
  67.7422256  28.7248650  50.3887482  66.2626343  29.0174942  50.5159264
  80.7455444  68.3887711  32.1596603  80.1605530  69.0771332  32.4761620
  80.2174835  67.8956299  31.5318127  23.7874584  27.2678852  87.3652420
  23.2392330  27.5475636  88.0983582  24.1625099  28.0794811  87.0233688
  69.4949188  70.3889999  60.4349899  69.8893890  70.6620789  61.2632751
  69.9241791  69.5590134  60.2274017  72.2168961   9.8303118  40.2834778
  71.9081116   9.6634502  41.1740036  71.5235214   9.4852991  39.7209549
  36.0883636   2.7093790  28.1939278  35.7682762   2.7958975  29.0918655
  35.9704399   3.5794485  27.8127403  70.3103714  43.7580109  66.2255249
  70.1960602  43.7868080  67.1754379  71.2497253  43.6222954  66.1013260
  57.8317719   1.7808312   1.5379896  58.3478317   2.5845821   1.4755539
  58.4829597   1.0800508   1.5710050  84.5989227  21.6440754  82.5066681
  84.9443054  21.5493984  81.6189804  84.9691772  22.4688931  82.8210220
  64.3639374   6.2118382  17.5822086  64.1584778   5.5257664  18.2172871
  63.7126541   6.8936610  17.7470818  20.2541904  61.8638496   0.3463442
  19.5916786  62.0923500   0.9983382  20.6576252  61.0645218   0.6847916
  63.6858635  68.0615158  43.2724228  63.3187408  67.1833191  43.1713295
  64.6088638  67.9130630  43.4779930  33.1780891  71.2379990   6.7859378
  33.5572205  70.4161377   6.4744158  33.9205399  71.7228088   7.1464295
  76.8915100  20.5521202  33.8297958  77.1139297  21.0632896  34.6079140
  77.5736542  20.7724018  33.1954613  62.2646027  54.8670998  67.7076874
  62.4053841  55.7757530  67.9737015  61.4538879  54.8892441  67.1992722
   3.4653227  33.7383575  32.3540154   2.5523098  34.0252800  32.3717537
   3.9531195  34.5094299  32.0646439  28.7013931  57.8977776  16.9109344
  28.7491760  57.5492630  16.0207176  28.0011978  58.5494843  16.8757439
  64.9148483  55.3057518  25.3187523  64.0782623  55.6364861  25.6458092
  65.3932571  56.0896416  25.0488033  51.1605225  27.0548363  50.4509087
  51.8489304  26.4397488  50.7038803  50.7260857  26.6358032  49.7080040
  64.3139572  19.5349922  81.3454971  63.5234642  19.2549820  81.8069534
  63.9960670  19.8685436  80.5065002  61.5852013  69.9951782  50.0374451
  61.0853424  70.0282135  49.2217979  61.6524849  70.9089890  50.3143044
  78.3091278  60.1930580   9.6595964  78.2243729  59.6014404  10.4072838
  79.0230103  60.7832832   9.9009190  68.2808380  51.4049454  62.2956848
  67.4540710  51.1176491  62.6831818  68.0665283  52.2284546  61.8573494
  28.3249226  68.8526764  25.7845764  28.0426445  68.3064804  26.5182133
  29.2192059  68.5645294  25.6016445  16.2142410   1.3041360  52.3887062
  15.7450457   0.4711264  52.4354210  17.1389675   1.0610111  52.4334793
  81.7966614   7.1123996  25.6499939  81.6895065   7.5239801  24.7924671
  81.8915558   6.1795197  25.4577389  56.4224281  17.1886673  14.4842558
  56.6294136  16.6783409  15.2671709  57.2515106  17.2454586  14.0092525
  29.2932301  55.1396141   0.2830739  29.1900864  56.0041618   0.6807524
  29.1160774  54.5255318   0.9956401   4.7082438  14.5769367  31.5895424
   5.5275693  15.0451965  31.4293232   4.3967052  14.9191360  32.4274406
  82.0037003  47.4132500  46.6635208  81.4580536  47.0890961  47.3800583
  82.3532791  46.6227951  46.2521782   2.0950127   7.8953066  12.4597731
   1.6456249   7.8348231  13.3027592   2.5198822   8.7528954  12.4758358
  55.0506668  53.3729973  48.3021164  55.6391411  54.0627975  48.6088829
  54.4374352  53.8224182  47.7205696  48.2215195  26.0565662  56.0575256
  48.7104530  26.8090687  55.7244911  47.7856598  26.3834190  56.8445625
  11.0188799  15.4208088  18.4452858  10.5261106  15.2033405  17.6540089
  10.3595238  15.7535534  19.0541878  49.2817917  46.3629799  41.5560112
  49.8339729  47.0949059  41.2810364  49.2543755  46.4290352  42.5105362
  69.2522583  40.4349594  87.7440491  70.1922150  40.2748528  87.6599426
  69.0335846  40.1220284  88.6218262  74.1331635  40.2831383  78.4487686
  73.6480713  40.3301277  77.6249313  74.3006516  41.1966286  78.6805420
  43.3320312  44.1209145   4.1959410  42.4041061  44.2576523   4.3869553
  43.6011276  43.4279823   4.7989893  58.4823456  44.3508263   1.9758201
  58.6484032  43.7540016   2.7055161  58.9551811  45.1501122   2.2077708
  19.8873730   5.0538282  75.4892426  18.9448414   5.0254536  75.3247375
  20.1916199   5.8227172  75.0070877   3.8999727  56.9552612  34.3491478
   4.2099137  57.8027039  34.0297661   3.7700751  57.0862198  35.2884064
  38.4445457  24.2814064   6.0844874  38.8793144  23.5352497   6.4973512
  39.1563263  24.7845325   5.6889324  71.2097702  36.5967484  20.6477661
  71.7156754  36.5832825  19.8352947  71.8675079  36.6805954  21.3381119
  19.3635597  61.3928452  50.8558998  19.2282276  61.3336792  49.9101639
  20.2103481  60.9716530  51.0034904   6.2480111  44.0515022  52.2446861
   5.4994087  43.6804352  51.7776375   6.8807793  44.2584381  51.5569267
  40.5739708   7.4846864  66.8968124  40.0418472   6.6921611  66.9673843
  39.9563408   8.1647110  66.6278687  34.8763199  24.4235935  77.5583115
  34.4601250  24.5622959  78.4090576  35.7890854  24.2254505  77.7676697
  53.7576637  35.7815208  48.8511887  54.0751534  35.9403191  49.7401314
  54.5031967  35.9928474  48.2892647  40.7641029  70.0640259  77.4264069
  40.8521957  69.6439438  76.5708313  39.8509102  69.9167862  77.6726379
  43.3726387  71.5389862  70.5380936  42.7746925  72.0502319  71.0833588
  43.5411987  70.7455902  71.0463791  41.9776192  11.6993198   9.8701439
  42.4952545  12.3075752  10.3976965  41.3428802  11.3300524  10.4841309
  79.7264481  62.4197998   2.8340352  79.2494812  61.6282158   2.5847790
  79.7682724  62.9374123   2.0299475  33.7334404   3.4220345  72.2518463
  33.3564110   2.5792842  71.9991531  33.6853180   3.4289660  73.2078094
  73.9931870  56.5929871  46.9522362  73.6876297  57.3891525  46.5175095
  74.9154968  56.7633781  47.1433983  51.8948174  15.7981091  45.4248314
  51.6755867  14.9266920  45.0949783  51.0713730  16.2843151  45.3826790
  64.0223465  67.4639053  25.9144802  64.2912521  66.5452576  25.9115982
  63.5633621  67.5817261  25.0828037  54.9081459  40.3689651  77.4184494
  55.6057587  40.1826363  78.0468216  54.2133636  40.7669601  77.9429626
  42.4049263  57.1204834  13.9713373  41.5757027  56.6673622  13.8186960
  42.6864929  57.4041634  13.1015787  49.2082520  13.2055721  53.0290070
  48.6425591  12.6976347  52.4474373  49.9569893  12.6328392  53.1951370
  85.5997849   4.8224640  77.2662964  84.7466507   4.7034736  76.8488846
  85.4149780   5.3511405  78.0425568  46.5926819  40.2551956   6.3117886
  47.2588005  39.8634224   5.7469587  46.1343689  39.5076599   6.6956811
  20.7141361  18.1014919  71.2557755  21.4545345  17.7048588  71.7148209
  20.6398411  18.9778996  71.6334229  21.0276165  27.4827137  85.3913193
  20.4376221  26.7490578  85.5641937  21.6206989  27.1585407  84.7135315
  63.1963882  33.1771011  26.3118076  63.4132919  33.1520805  25.3798428
  63.0989227  34.1084480  26.5101166  54.9734840  63.8820763  27.6409302
  54.4408798  64.3049240  26.9673100  54.7962990  64.3840408  28.4364605
  54.6902618  34.2979584  33.6723671  54.9685173  35.0570488  34.1847992
  55.5047989  33.8459511  33.4522476  61.7930183   9.2164507  68.3580551
  61.0802574   9.6188202  68.8543396  61.3552284   8.6189547  67.7517776
  62.9892654   8.5193768  70.9299469  62.4425240   8.8997278  71.6174316
  62.4823303   8.6393900  70.1269226  38.5207710  27.9218941  74.4633560
  39.0240707  27.9281082  73.6491852  37.7754517  27.3500061  74.2798462
  -0.1995180  46.4562454  13.8570862   0.3850860  45.8025703  14.2407207
   0.0655229  46.5049591  12.9386024  54.8228607  71.7693863  56.8162689
  55.6989822  71.8490372  57.1934891  54.8595314  70.9691620  56.2923088
  37.4052773  64.0871964  61.1036797  37.8970337  63.6029358  60.4404297
  36.6540909  63.5276871  61.3009033  20.6707020  36.8463631  74.8423233
  19.9169846  37.2330780  75.2879562  20.5906982  37.1424751  73.9355927
   5.4169312  46.0057259  39.0940132   5.7639565  46.6300430  39.7312164
   4.7429199  46.4948273  38.6220818   0.2989365  63.0253983  22.7637177
   0.2430979  62.5403137  23.5870094  -0.3355774  63.7354927  22.8606033
   6.0257106  21.5758514  76.8209152   5.2716899  21.0987282  77.1673813
   6.6877403  21.5098457  77.5090942  71.1905899  36.4451332  41.4597816
  70.5074539  37.0284309  41.1291542  70.7131195  35.7463303  41.9069099
  75.9927444  27.2593899  49.8061867  75.5682373  27.7513313  50.5090523
  75.6975250  27.6870918  49.0023537  84.7620316  34.8367119  29.5138588
  85.0134811  34.0349426  29.9722977  85.4338913  35.4731560  29.7583332
  28.8657951  61.1499977  80.8062973  29.4310455  61.5471077  80.1436996
  28.1966324  60.6858597  80.3032761  74.1117249  68.1866074  88.7618637
  74.6715088  67.4161606  88.8581924  73.2254410  67.8594818  88.9158783
  59.4197006  44.5553360  47.8204155  58.7862091  44.5414047  48.5378571
  60.1909637  44.9850235  48.1902237  44.5392952  44.2398071  57.0003052
  44.1830177  43.4898224  57.4765625  43.8571625  44.9085083  57.0616722
  43.9487610   2.8660684  75.0117722  44.3656349   2.0057058  75.0589066
  44.1938744   3.2041123  74.1504440  25.0533066  40.2556839  56.4973106
  25.0869694  39.9549217  55.5892143  24.5597744  41.0749969  56.4601173
  51.5416718  23.4918537  59.6817360  51.0093002  24.0202923  59.0871239
  51.3438072  22.5869865  59.4402885  59.6895752   1.5203298   7.2817693
  59.5140266   1.2000277   6.3969970  58.8241005   1.7103739   7.6438055
  86.2431030  64.8821259  86.3417206  85.8203430  64.5282669  85.5592270
  86.4436417  64.1125259  86.8743896  72.9846802  41.1100883  45.3322258
  72.7570724  41.1454048  46.2612991  73.2377396  40.1992378  45.1820831
   6.3582025  40.9085541  17.7631855   6.7536736  41.6302071  18.2521152
   6.9351220  40.7854271  17.0093708  73.5298157   2.7602787  34.6937065
  73.4834442   3.2310207  35.5258598  73.2032852   1.8835239  34.8959770
  24.4333172   4.5310397  48.4944992  24.7934532   5.3384891  48.1276741
  23.8521614   4.1960888  47.8116417  33.7118568  44.8529396  78.1743088
  33.8293495  44.8714104  79.1240921  32.7866936  45.0606728  78.0433350
  66.4172668  14.9552927   0.2121820  67.0115051  14.3006983   0.5790927
  65.5480118  14.5633497   0.2958978  40.6500320  67.0213928  11.6070328
  40.6847954  67.6060333  10.8499212  41.5515251  66.9904175  11.9273186
  52.4835358  44.3478317  81.9606323  53.1489639  44.4029503  81.2747726
  52.9817123  44.2205315  82.7679977  72.2718735  25.3981667  15.2207880
  72.6571808  25.6523228  14.3822355  73.0237579  25.2168427  15.7847214
  51.5573692  33.6958466  62.0399132  51.4558754  34.0125656  61.1423492
  51.6846619  34.4887924  62.5607452  32.2375221   6.3767567  59.4075546
  32.5528488   5.6675606  58.8473396  32.9277191   6.4908071  60.0608978
  12.4612207  18.5887108  81.1725769  12.8996897  18.3471451  80.3567200
  12.2805119  17.7534580  81.6037674  37.1165009  17.9248638   5.4661727
  36.8526344  17.0993481   5.8725352  36.6457291  17.9428959   4.6329374
  15.2260561  17.0066185  13.4316425  14.9587078  16.3998127  12.7413216
  14.6309853  16.8204021  14.1578979  36.9355431  44.0953751   4.8741345
  36.8259125  43.2080727   4.5322256  36.2807617  44.6145515   4.4072795
  59.9087448  70.0191879  47.5432663  58.9821854  69.7934189  47.4611397
  60.2271805  70.0558777  46.6413307  38.4080315   6.1074147  41.8291512
  37.7512093   5.5883975  41.3649979  38.7520485   5.5155129  42.4981346
  56.9432068  47.7277756  36.9646759  56.7302628  46.7945900  36.9716873
  57.7791786  47.7861633  37.4272499  45.7426224  65.0683746  62.8047600
  46.3568153  64.9672165  62.0775948  46.0137253  65.8786163  63.2363129
  51.2293358  64.8344727  15.0538082  51.8374481  64.4015884  14.4546041
  50.5230103  65.1512146  14.4907703  50.0989685  13.7432451  64.1193237
  50.9987564  14.0309725  64.2736816  49.6855354  13.7765455  64.9819946
  31.4208660  52.5160103  23.3828392  31.2852917  51.7878342  22.7765312
  31.8684120  52.1234283  24.1323833  31.1562138  56.8226738  52.7637482
  31.5242462  57.5609016  52.2781525  31.1219559  56.1096954  52.1260033
  47.9424019  37.0420914  24.1754055  47.7411270  36.4206963  23.4756985
  47.0959969  37.2268181  24.5824757  83.8618546   4.3558946  58.9281654
  84.1014938   3.7907798  59.6626396  83.0851440   4.8261094  59.2312279
  84.4303741   6.3039689  31.0357952  84.2134171   5.5365038  30.5064926
  85.3513107   6.4770584  30.8404846  81.1065903  59.9825706  55.2702446
  81.9200745  60.4819870  55.1991463  81.3367844  59.2251701  55.8083763
  65.7232056  10.4504242  68.8404846  66.3129120  10.0522881  69.4807663
  65.5643387   9.7584648  68.1984634  71.9246216  63.9458961  29.7229366
  72.6711349  63.3967896  29.4832935  72.2143250  64.8388443  29.5360012
  70.5574188  20.5690708  61.3208237  69.8329163  20.0846653  61.7166595
  71.3053360  19.9750118  61.3835793  44.6989021  70.0293579  72.6120605
  45.3728981  70.5626678  73.0334167  45.1556587  69.2305603  72.3483810
  73.5247421  16.2284889  19.0336628  72.7607269  15.6529369  18.9982414
  73.5295486  16.5653000  19.9296360   1.6928887  51.8189812  46.5028992
   1.4442012  51.1903839  45.8252144   1.6391484  51.3237610  47.3202705
   8.8119078  55.1166840  20.1949253   8.5629225  55.5315475  21.0208359
   7.9829564  54.9792671  19.7364635  60.5783806  61.8512535   2.5356424
  60.5709038  62.6016884   3.1298001  61.4316177  61.4414673   2.6780925
  60.6925240  52.9078979  81.3377228  60.7494087  51.9590645  81.4504700
  61.5917931  53.1820450  81.1577530   4.7275181  51.1614456  14.6980057
   4.2791343  51.8670959  15.1640930   5.4902835  50.9625626  15.2410221
  48.7350693  36.9444160  49.1703415  47.7921295  37.0925941  49.2420502
  48.8372421  35.9981461  49.2721558  81.8902664  35.2203255  36.0643730
  81.5373764  35.5175896  35.2257233  81.3595352  35.6713867  36.7209511
  23.3366585  51.4096069  48.6184120  23.6957874  50.7747803  49.2382965
  22.5839863  51.7883949  49.0725441  63.8354073  23.6950417  42.6612778
  64.0587540  22.7997894  42.9159813  64.5937271  23.9982796  42.1620522
  59.5709763   3.4595168  87.0579224  59.4790649   3.4569979  86.1051483
  59.9886971   2.6224258  87.2604675  72.9697266  16.1296177  44.6721878
  72.1073608  16.4969177  44.4781647  72.8428116  15.6351643  45.4819031
   9.0466928  13.0833521  23.9958820   9.1663437  14.0063972  23.7724953
   9.3067303  12.6100101  23.2055912  54.1019516  47.3566246  71.7636414
  54.8480644  46.7723808  71.8986053  54.2564507  47.7476959  70.9037476
  29.2311535  45.3286514  62.7862129  29.1367264  44.6151772  63.4173012
  29.0753422  46.1227722  63.2974129  59.5190964  59.0575066  25.0476379
  60.3573799  59.4097824  24.7486172  58.9124146  59.2416801  24.3305264
  85.9072266  63.9178696  71.1392746  85.0860825  63.8948479  70.6479263
  86.5869293  63.9713364  70.4674301  83.1999130   5.6674919  71.1689529
  83.6231461   6.4250107  70.7648926  83.7110901   4.9173131  70.8653793
  44.9618797   4.3920884   3.0954955  44.2270432   3.9798617   3.5497177
  45.3224754   5.0081358   3.7332175  63.4264145  50.9217682  54.5530930
  63.1478500  50.1533928  55.0513191  63.9348106  51.4402275  55.1767654
  58.9912453   1.1901796  27.3833656  58.9419479   1.1220194  26.4298687
  59.8120804   1.6541743  27.5481987  76.7467575  23.7825451  75.0060272
  76.3267288  23.1871700  75.6267776  76.7823792  24.6215153  75.4654694
  64.5445862   0.6299259  22.1175919  65.4280930   0.8326524  22.4250793
  64.5423355   0.9011740  21.1996307  29.9360828  71.2503510  77.3260040
  29.1389866  71.1922989  77.8527908  29.8293781  72.0545502  76.8179626
  23.2967339  52.2607689  37.4175453  22.3639450  52.1120224  37.5725021
  23.4313354  53.1834183  37.6339417   6.5499625   9.9907093   6.0994620
   6.3365383  10.1934986   5.1886606   6.8151727  10.8298826   6.4758706
  56.4668045  49.7671661  69.2295837  55.8006897  49.5170403  68.5893021
  56.6405716  50.6904221  69.0461960  42.6409988  15.6444311   8.3044443
  43.2335739  14.9210272   8.1000595  41.8121109  15.2198744   8.5256405
  20.3213043  26.0363102  73.2266159  20.7389030  26.1007805  74.0854950
  20.9607334  26.4107533  72.6206818   7.6846766  23.0377960  20.0494556
   8.4980974  22.6559544  20.3792667   7.9687757  23.6920776  19.4111481
   4.3976722  22.1380692  29.4420261   4.7774830  22.8853722  28.9799500
   5.1382537  21.7351284  29.8952465  80.2076340  41.9636993  39.7004204
  80.1718597  42.6259918  40.3905792  79.4645309  42.1687164  39.1329727
   9.7553091  46.6069565  55.6165771  10.5223322  46.0362968  55.6640625
   9.2109032  46.3385582  56.3567238   5.8331738  48.4560966  57.8134995
   6.5668173  48.0713959  57.3339157   5.7012544  47.8707390  58.5592804
  35.9139900  36.5728226  69.5299149  35.4205513  37.3930168  69.5351257
  36.5124283  36.6486092  70.2731247  61.9814682   5.2286143  72.3293304
  61.5529518   5.8424873  71.7328720  61.3177490   5.0350671  72.9913406
  54.6781464  20.0871964  84.0267258  53.8595467  20.4235592  83.6620560
  55.3506889  20.3711720  83.4076309  44.6527672  63.4151115  37.2802048
  43.8973351  63.6265564  36.7317085  44.8079376  62.4833641  37.1252823
  12.6528387  32.7334404  59.9770660  12.6778164  32.7796707  59.0213089
  13.4375916  33.2027588  60.2601471  44.5344200   4.8539453   0.2283673
  45.3777695   4.5831671  -0.1344946  44.6030731   4.6613383   1.1634721
  77.1020813  57.0165215  87.1803818  77.6852341  57.1292191  86.4297333
  77.0495987  57.8867073  87.5756683  75.1018906  13.5150089  89.3072662
  74.6660538  14.2831898  89.6762924  74.7045517  13.4061956  88.4432526
  43.3652420  71.3885574  55.1858635  43.1629715  70.7693710  54.4844894
  43.4257584  72.2367783  54.7464561  62.8406944  11.8426447  67.3668365
  62.7129822  10.9512815  67.6914749  63.1776505  12.3262558  68.1210327
  42.8689651  18.2564659   7.3078213  42.8864937  18.2525139   6.3507900
  42.7252426  17.3412399   7.5485215  37.6266632  36.3927155  57.3526840
  38.5313797  36.3770638  57.6648941  37.1556015  36.9059563  58.0091248
  61.9797020  33.3106270  78.8494492  62.4435997  32.6647568  78.3166428
  61.2336884  33.5741844  78.3107147  79.5147934  55.7529526   3.1379244
  78.9769516  55.3394966   3.8132105  80.1339111  55.0720673   2.8746486
  58.6231613   5.5407009  58.0046463  58.9046516   5.5162811  57.0900993
  58.4658852   4.6241407  58.2313957  56.1321373  63.5847664  52.5396385
  56.2255173  64.4253235  52.0913315  55.5800438  63.7775230  53.2974434
  38.7999001  61.1378593  66.6410980  37.9530449  60.8394623  66.9728012
  39.1092415  60.4175987  66.0917664   6.4289389  70.6673050  81.7745895
   7.2312517  71.1787720  81.8791046   6.3918481  70.4684219  80.8390121
  74.0373688  47.9077911  45.2702789  73.1672516  48.1854362  44.9838600
  73.9717102  47.8601723  46.2240372  39.5339088  58.7529831  80.0143051
  39.4537964  58.6521797  79.0658035  38.6796761  59.0828056  80.2931061
  34.1996574  35.5902481  77.2736664  34.6504364  35.6160431  78.1176834
  33.8402824  36.4709969  77.1670532  29.5646667   5.0481992  22.9807796
  29.4792004   5.6151094  22.2142677  29.7350712   5.6496196  23.7056847
  26.6564140  33.2839050  86.4129105  25.7538071  33.5712013  86.5507278
  27.0044670  33.1560593  87.2953720   2.8727813  18.0458145  56.0818634
   3.6818547  18.3298531  55.6564751   3.1318512  17.8488579  56.9820442
  30.7703381  48.6772423  71.1970978  31.3152752  47.8904800  71.2139664
  30.1722984  48.5702782  71.9367828  37.8700867  70.7161865   0.6085595
  37.5741692  71.2160797   1.3693300  37.3212433  71.0278549  -0.1110704
  20.3935299  56.7849197  80.1591110  20.6907845  57.2651939  80.9319077
  20.5023880  57.4030571  79.4364166  62.7481842  67.1097412  63.4455566
  61.8545952  67.4023895  63.6246834  62.8638916  67.2544632  62.5064621
  74.0805588   7.2250481  21.3456879  74.0583420   8.1614313  21.5429840
  74.6133804   6.8456082  22.0445118  82.1678925   3.8802419  36.6616402
  82.4360428   4.7533221  36.9481049  81.7496033   3.4937043  37.4309616
  72.8817825  19.4117451  27.9341431  73.1444016  20.3200340  27.7848969
  71.9256210  19.4290428  27.8930321  20.3871174  57.3698502   2.1224656
  19.4786587  57.2412376   2.3952169  20.8992062  57.2209702   2.9173439
  37.7938614  24.9782352  12.5974159  37.1692696  25.3444252  13.2235336
  38.6511993  25.1443253  12.9893608  56.7373466   9.3352222  21.4199276
  56.2810440  10.1236238  21.1259193  57.4572487   9.6622620  21.9593887
  66.9687958   6.2607079  66.1841354  67.1898117   7.1254773  65.8383636
  67.0088654   6.3654499  67.1347427  82.9266205  46.3104286   3.3480766
  83.0672379  45.5650978   3.9319758  83.6941223  46.8668060   3.4807961
  60.0449600  59.7842484   9.6683731  59.4109230  60.1627693  10.2774267
  59.6437569  59.8937454   8.8062372  67.7925034  13.4616880   8.9792833
  68.3911285  13.2314720   8.2687321  67.1063156  13.9780750   8.5565300
  76.4433365  24.5722504  22.5094891  76.6040344  23.6322899  22.5924530
  75.7249603  24.6378059  21.8803082  48.4861946  34.9171181  77.5126114
  48.8234558  35.1668282  76.6522980  47.5685501  34.6950912  77.3549118
  57.0143852  55.9028778  45.4975014  56.8595963  56.6933708  44.9804077
  56.1423836  55.6264915  45.7793770  52.2395630  33.1824226  32.9011917
  51.9372482  32.4068146  33.3737068  53.1609039  33.2681389  33.1461639
  79.7554245  62.9267349  39.3548470  79.2040710  62.5425339  40.0364838
  79.4142685  63.8140106  39.2426643  55.6146507  67.0584869  28.6990318
  56.3501282  66.5382309  28.3755455  55.3858490  67.6309814  27.9668217
   1.0856534  29.9578018  11.8093824   1.8598909  29.9093456  11.2486334
   1.1875188  30.7805977  12.2877779  77.6585159  10.0041227   6.0615463
  77.9907303  10.9014120   6.0887284  78.1342545   9.5943699   5.3390441
  60.3991699  44.2586746  23.9718857  59.6642227  43.6530037  23.8757114
  60.8693924  44.1986542  23.1403084  35.8127785  47.2337265  54.6299973
  35.4127693  46.5904083  55.2151184  36.7543449  47.1292038  54.7669487
  39.0502472  42.2819138  71.4660339  38.5373726  41.5154305  71.7223511
  39.6163063  42.4538879  72.2185211  81.5475845  18.4867859  48.2619743
  81.1813507  18.4750633  47.3776855  80.8710327  18.9032307  48.7959137
  22.7458305  52.1706352  13.9351130  23.4278393  52.8058090  13.7168293
  22.3928356  51.8976936  13.0882778  66.2444458  34.0986443  71.1149979
  66.5645142  33.1994820  71.1878052  66.2168045  34.4168396  72.0173416
  24.3297157  44.4754410   4.9092155  24.1284714  45.2268486   4.3514347
  24.1675434  44.7876968   5.7994003  46.5748863  62.0156136  61.6490707
  46.4354553  62.5613594  60.8751526  47.4140167  62.3109779  62.0024147
  22.4765224  18.4537754  65.3034897  22.4047375  17.5957928  64.8852234
  22.8955860  19.0072041  64.6444473  83.4009628   0.5046275  38.3129692
  83.6295700  -0.3750221  38.0126610  84.2178192   0.9994531  38.2488098
  63.8168869  42.6040611  61.6637383  64.5330582  43.2360725  61.6013947
  64.1859360  41.7894554  61.3224792  49.1094322  20.5969868   9.1806402
  48.4017448  20.3847523   9.7892170  49.2066536  21.5468349   9.2482262
  19.9806061  50.5360832  69.8207703  20.1036167  49.6088524  70.0241089
  19.3574486  50.5413361  69.0942230  43.5858078  53.2815628   2.7869866
  43.0847816  52.5946922   3.2267797  43.9410591  52.8564224   2.0064209
   7.3341851   9.8019533   1.4274199   6.7775240  10.2229033   2.0825238
   7.0062366  10.1279430   0.5893198  39.5782127  67.3506927  49.0500946
  40.4269791  67.0697174  48.7082214  39.1208878  66.5352783  49.2554779
   4.9224339  55.0926170  65.0882111   4.6065044  55.9781265  65.2679138
   5.8004775  55.2198906  64.7289429  79.6949158  42.0951309  30.6801529
  78.8775330  41.7982864  31.0801582  79.9066467  42.9064941  31.1417675
  57.5363121  56.7985268  68.4161072  58.3728790  56.7735443  68.8806076
  57.7650681  57.0618095  67.5247116  68.5760422  52.4812202   6.3423166
  68.3779221  51.5620499   6.1631498  69.4410629  52.6194000   5.9564681
  63.3776817  22.6771717  64.7231140  62.7832336  22.9401836  64.0204849
  62.9348412  22.9506702  65.5264359  62.8356361  61.3557892   6.1654162
  63.5015755  62.0398064   6.0955787  62.5647850  61.1920776   5.2620497
  83.9219360  20.8850880  37.1075935  84.8709030  20.7622471  37.1319962
  83.5889511  20.0946331  36.6827011  51.5941162   4.4693580  11.0946541
  50.6613808   4.3198948  11.2492342  52.0291862   4.0638890  11.8446827
  69.3090591  63.0932732  68.8916321  68.4480972  63.5112648  68.9075241
  69.9250107  63.8072662  69.0560913  63.1050682  44.4930840  84.8643188
  62.8144150  43.7414932  85.3809052  64.0583878  44.4112053  84.8377686
  43.3190002  59.0572586  70.9829407  43.3237305  58.8176155  70.0562363
  43.3261490  58.2200356  71.4468765  59.5837784   6.0714178  83.7664185
  59.0532265   6.7005124  84.2552795  59.2104073   6.0769982  82.8850555
  28.7499676  53.5110321  47.4433594  28.5409069  52.8737411  48.1262856
  28.8658085  52.9849129  46.6521530  57.8824997  56.5413055   8.6120539
  57.9479790  56.4710159   9.5644207  58.6085281  57.1134987   8.3636408
  15.7327976  12.9572039  78.7933121  16.2209358  13.4673967  78.1470490
  16.2636127  12.1723852  78.9294205  77.0453796  45.3847771  65.5343170
  77.1371918  46.0402336  64.8428116  76.2252960  45.6121559  65.9724960
  42.0020561  55.2502632  77.9965897  41.4550362  55.4166679  78.7642517
  42.6132126  54.5705872  78.2807693  77.5099640  23.0135231  17.1736488
  78.4542389  22.9378548  17.3109341  77.3066788  22.3361702  16.5285892
  15.3781147  63.3348083  35.5784836  15.0419149  63.9917908  34.9689178
  14.6472082  62.7300072  35.7058678  15.8369217  61.0926895   5.9718904
  16.3351822  60.2967110   5.7864637  15.0389700  60.7816353   6.3993816
  25.8030376  59.3344650  68.4670258  25.8617840  59.4375343  67.5172043
  25.5837288  60.2085533  68.7896805  60.9084587  18.5847225  40.1424904
  61.0255661  17.8283958  39.5676117  60.0157814  18.8826199  39.9675255
  79.1512680  29.9019089  55.8560448  78.7711334  30.7803478  55.8474731
  79.1412277  29.6455784  56.7782288  72.9382629  51.8583679  71.5363007
  72.9615860  51.0832367  70.9751740  72.7141724  52.5761566  70.9440231
  82.4642410  38.5351067  10.1234360  82.0481720  39.1312294   9.5007410
  81.9546127  38.6347618  10.9275389  75.6400757  43.1961327  63.8506889
  75.0771408  43.9589043  63.7183533  76.5031891  43.5650826  64.0381470
  16.2046165   4.3377237  78.8681259  16.5237560   3.9431002  78.0565567
  15.6147041   3.6809011  79.2380219  28.5558472   1.8035803  75.8064957
  27.8746872   2.4002175  76.1167831  29.2028885   2.3739026  75.3914032
  27.2896461  22.0162621  85.1329803  27.0514870  21.8776150  86.0496597
  26.4903660  22.3502293  84.7257385  83.7458191   1.5070068  35.4468689
  83.4155960   2.2677269  35.9248734  84.5597382   1.2772577  35.8951721
  39.2867126  30.7666721  88.1243439  39.5095673  31.2696629  88.9076462
  39.9929619  30.1258106  88.0422516  44.6770973  60.7157211  22.4888496
  43.9789162  61.2187653  22.9080410  44.3571205  59.8135910  22.4915905
   8.8786268  43.7604027  65.7409973   8.8921919  43.9740944  66.6739426
   9.6445351  43.2008972  65.6122818  80.4346008  18.5987949  45.2693977
  79.4864807  18.5844193  45.1386147  80.7632751  19.1717644  44.5766449
  10.8105526  38.7028770  86.3765106  11.4424610  38.5539360  85.6731339
  10.5053329  37.8271942  86.6136780   8.1159439  37.3809357  47.7822113
   8.7750864  36.8530998  48.2329369   7.4779634  36.7439384  47.4605789
  59.4685287  23.2933750  31.9633121  59.5106201  22.9943123  32.8716202
  59.1788216  22.5250721  31.4713669  85.3532257  45.3693771  87.2517166
  85.8047180  45.5535202  86.4280243  84.4387436  45.2405663  86.9999924
   7.9104099   3.4750223  28.5187454   8.4664106   4.2482314  28.6148815
   8.3718653   2.9254515  27.8852921  22.5587807  56.4903717  41.6682968
  22.5431709  56.8644104  40.7873383  22.7754612  55.5678864  41.5330276
   6.8574219  55.8523293  54.6648178   6.0624628  55.3256454  54.5818939
   6.8726797  56.3893280  53.8725853  41.3233681  66.8544769  61.3478012
  40.6037598  67.1943970  60.8159599  40.9343948  66.7047958  62.2095032
  42.0226326  53.5945740  25.1706886  41.3149872  52.9657326  25.3122139
  42.1202240  54.0388718  26.0128918  37.9591789  15.4134111   0.0026133
  37.4990349  14.5877790  -0.1484827  38.0118408  15.4873562   0.9554988
  66.3022385  66.0243530  78.6501541  66.4123077  65.3850021  79.3539734
  65.8304367  66.7505646  79.0578995  37.2346916  44.5765343  66.7124252
  36.4093056  44.0918007  66.7144318  37.6248093  44.3816986  65.8603210
  62.7179298  32.3467636  37.3327599  62.9773178  31.4268875  37.2800598
  62.5442924  32.5989876  36.4258614  59.5866508  52.1324234  56.5700073
  59.2515144  53.0127640  56.3999710  60.4678764  52.2742577  56.9157791
  84.9790344  57.0900192  69.8844681  85.8736725  56.9764214  70.2053299
  84.9348755  58.0083885  69.6182327  84.6494141  54.2780800  66.6036682
  84.7242279  54.5690918  65.6948547  83.8066406  53.8258514  66.6417465
   6.1675987   3.1612511  23.2099972   5.6683269   2.6776102  23.8680630
   6.2607198   4.0399423  23.5780487   7.1186600  31.3363838  12.4128866
   7.0227690  32.1170273  12.9584446   7.8808837  30.8838806  12.7741175
  12.8299007  69.8199234  87.7613297  13.0739594  68.9359207  88.0355606
  12.3101568  70.1614914  88.4889526  50.4063988  64.1019669  53.0179939
  49.8041649  63.3602295  53.0761261  51.2238083  63.7221260  52.6958160
  83.0462646  54.2472610  82.2726746  83.2757034  54.3608360  81.3503418
  83.8040085  53.8049126  82.6552658  13.8610077  34.6825447  87.3934631
  14.7592087  34.3684845  87.4975433  13.8283377  35.4894142  87.9074020
  11.1943398  50.6020927  15.7881870  10.9487753  50.4464493  14.8762083
  12.0526514  51.0226669  15.7366829  75.3407135  42.7696114  32.1463890
  76.0935822  42.2290802  32.3856468  74.9701920  42.3371391  31.3770313
  39.7072716  64.8726730  75.6585388  38.8164253  65.2209473  75.6221161
  40.2642517  65.6472321  75.7363892  81.4981155   5.4096708  30.1272507
  82.1536331   4.8293791  29.7402267  82.0029449   6.0067763  30.6793823
   7.6988864  15.4037924  73.4542084   7.3814626  15.8053970  72.6453857
   8.4457083  15.9438477  73.7127228  58.8128624  62.6143188  52.6142540
  57.9308014  62.9858284  52.6006813  59.3930550  63.3754158  52.6326637
  75.1544800   9.6462002   5.6685548  76.0986404   9.5828390   5.5244341
  75.0428848   9.4747419   6.6036382  84.0984344  42.3908539   9.5109177
  84.5850296  41.5767288   9.6399765  83.6644440  42.5460587  10.3498459
  40.5147247  54.4965744  72.7720795  41.3227310  53.9953804  72.6618042
  40.4055748  54.5694199  73.7202454  85.1482925  50.0091019   0.3365434
  84.6910172  49.8668289   1.1653303  84.7200851  49.4136772  -0.2785508
   3.7251368  18.7512398  61.3582573   3.1472354  17.9962635  61.2474747
   4.4236245  18.4360733  61.9318581  11.2258930  54.8224220  30.2392883
  10.5174952  54.2733154  30.5752735  12.0133915  54.4853668  30.6664543
  76.1201706  32.0588531  34.8528595  76.4633026  32.2618713  33.9826431
  75.7805099  32.8930054  35.1769867  84.1105576  34.2159576  58.2046928
  84.4844437  33.8494911  57.4033546  84.8503723  34.6350250  58.6443291
  83.6575394  10.6837463  60.7488480  84.2044754  10.2511702  61.4045677
  84.2708588  11.2070446  60.2328682  14.2437391  48.0420837  16.6456261
  14.8082771  48.6418953  16.1580257  14.8206739  47.6494331  17.3007622
  79.8075027  66.0241776  12.5906982  79.0392456  66.3929367  12.1547832
  79.4495087  65.5219498  13.3227072  74.3175201  35.8860626  54.2030716
  74.2220993  36.4153709  54.9948807  75.2488632  35.9410248  53.9890327
  72.8285828  46.1599350  18.9377346  73.0344391  46.8442955  18.3009415
  73.6450577  45.6698990  19.0350552  24.0676670  44.2702522  47.1611977
  24.7826786  44.8633385  46.9304657  23.2841225  44.6903152  46.8064613
  22.1633835  13.5786915  87.3390808  21.6089439  12.9271765  87.7684555
  21.5613956  14.2814159  87.0940933  42.2212830  22.4566250  59.1990204
  42.3549042  23.4044075  59.2083092  41.2856102  22.3449993  59.3672066
  70.4572296  52.5756874  54.7440376  70.8771286  52.2237740  53.9591331
  70.4933319  53.5253410  54.6296577  70.8210373  27.7398586  65.8900146
  70.3742828  28.5690460  66.0606003  70.5253143  27.1597157  66.5915985
  53.0087852  14.3840389  64.4328079  53.7015991  13.7866278  64.1511307
  53.3743362  14.8320599  65.1956177  20.8313351   2.4537108   5.0195818
  20.4096756   1.6028266   5.1397114  20.5765533   2.7248967   4.1376657
   3.5281446  22.4026585  43.1957092   3.9189856  23.0087223  43.8251190
   3.6704986  21.5363846  43.5772018   0.2750029  14.0856304  51.3992500
  -0.0635255  13.8539362  50.5344086   1.0891519  14.5558901  51.2196693
  77.9445877  43.8476105  21.0792847  78.8173447  44.1176949  20.7936649
  77.7758789  44.3718529  21.8621902  55.9388237  11.5383196  20.0840645
  56.7094688  11.4034624  19.5325642  55.2939301  11.9384623  19.5007744
  77.6604385  12.5199232  49.7331429  77.9773178  12.7373552  50.6098061
  76.7184448  12.6855898  49.7710342   1.3363557  39.8331909  66.5422134
   0.8184342  40.3832703  67.1299286   0.6884102  39.4000359  65.9865417
  53.3820190  43.9120865   5.0915198  53.9211655  44.6245651   5.4349222
  52.5083046  44.0816727   5.4437890  20.1494713   3.6680624  13.7311964
  20.0372143   3.8591404  14.6623888  19.9292793   2.7401800  13.6488495
  63.4234390  43.3774872  64.3639603  63.4652519  43.3164597  63.4096260
  64.1926575  42.8961449  64.6686783  75.3945236  40.2118416  42.3956833
  74.4421844  40.2185478  42.2995758  75.5403595  40.0249062  43.3230553
  15.9388781  15.3335791  71.9208679  15.6360350  14.8642130  71.1435547
  15.2006311  15.2917175  72.5287094   4.0217915   5.4963336   9.0824709
   3.5923667   5.8831077   8.3194294   4.4656897   6.2312617   9.5056343
  79.6895599  57.9492760  42.8363419  79.7123718  57.2620506  42.1704330
  78.7580414  58.0808144  43.0129662  82.1332474  34.9738579  78.8475571
  83.0255203  35.2830811  78.6911545  82.2174530  34.0226250  78.9131012
  33.6908913  55.7762489  85.5438461  32.8570786  55.5881081  85.9746399
  34.3510284  55.3956642  86.1231613  75.3566895  59.9891739  17.6781521
  75.6170654  60.2587471  18.5589275  76.1685257  60.0100288  17.1714783
   1.3593301  20.8229580  70.3535309   0.4113905  20.9197426  70.4444962
   1.5489085  19.9615307  70.7253342  48.6649933  53.6715813  21.7294579
  48.3057289  53.1424751  22.4416428  48.4276009  53.1952057  20.9338799
   2.3136168  24.4086895  34.3736763   1.6688493  23.7927780  34.7217560
   2.3326275  24.2297077  33.4335518   0.8543417  45.3800049  56.0653572
   1.6396253  45.1452141  56.5597610   0.6235216  46.2530136  56.3828621
  11.1122599  37.3649063   7.6486540  11.2608147  37.6162567   6.7370706
  10.5888805  38.0793266   8.0118475  27.5393620  48.7987900  40.1605721
  28.1740398  49.0959206  39.5085526  27.1877728  49.6053505  40.5375061
  56.4164314  11.1100016   1.7019225  56.9667625  11.6077032   2.3066218
  56.2766533  11.7019434   0.9628031  45.0212479  41.8834953  21.8626881
  45.7288399  42.4944763  21.6571484  45.1516342  41.6679115  22.7861347
  79.7490463  55.4647179  44.8387184  78.9898605  54.8820190  44.8207283
  79.7573700  55.8740387  43.9734879  32.9746437   5.9153781  13.6188164
  33.4351501   5.4649577  14.3268347  33.6571236   6.1147389  12.9779472
  55.4066391  50.2811317   8.4885168  55.7489548  50.1618004   9.3744125
  55.5065155  49.4233742   8.0755939  24.3880367  69.3245621  52.1061478
  24.1830597  68.4660492  51.7357864  23.8447037  69.9358673  51.6088295
  15.8630619  58.0585403  12.6160679  16.2339191  58.9112701  12.8431158
  14.9998760  58.2611275  12.2553740  84.6098099  53.3712807  49.9769630
  84.7171860  52.4286461  50.1040115  84.6706085  53.4937325  49.0295792
  31.2853699  42.9518776  62.9783363  31.5284805  43.8774223  62.9561577
  31.2870007  42.7260361  63.9085121  82.0844421  54.1432571  67.1539154
  81.3757629  53.9261780  67.7596283  81.6444778  54.3094254  66.3202133
  26.3329449  17.4755249  71.9451752  26.7703419  16.8998566  71.3178635
  26.3292828  18.3334827  71.5207672  17.5410385  51.6982651  75.0678177
  17.5331421  52.0108757  74.1631393  18.4443321  51.8261452  75.3575363
  71.8836517  13.5159054  61.1872253  71.8455582  14.2470331  61.8038559
  71.0958328  13.6125135  60.6522141  14.5518160  12.1700687  84.5817719
  15.4728775  12.2051735  84.3236160  14.2325602  11.3440475  84.2184601
  13.5074120  28.8404903  52.3551331  13.7530212  29.4129391  51.6283493
  13.9558773  29.2120342  53.1147804  54.9386444  15.4567852  66.5567856
  55.5100365  15.6238346  65.8072281  55.3639069  14.7396545  67.0270081
  50.2765846  62.2813988  66.9218674  50.2336349  61.3939247  66.5658112
  49.8677597  62.8285637  66.2512665  71.2379227  57.4462471  11.7079563
  70.3427124  57.1116066  11.7613735  71.7898636  56.6789703  11.8592072
   4.5666633  36.4703140  58.2733383   5.2854466  37.0875282  58.1368523
   4.6710992  35.8230324  57.5759468   5.7133880  69.4510880  45.4321480
   5.9914513  70.0183411  44.7130318   4.7835231  69.6474380  45.5462914
  31.5247765  51.1662750  79.8199615  30.8517857  51.6538429  80.2949295
  31.0481339  50.4549522  79.3920975  24.2543850  52.3554115  74.4117126
  24.3442116  53.2408638  74.0593796  23.6562672  51.9164963  73.8068619
  43.8298569  13.0419922  55.3874893  44.6506844  13.5081043  55.5462875
  43.3393974  13.1356115  56.2041397  19.2823601  44.0235558  59.9228554
  18.6831951  43.3684425  60.2807083  19.6474724  44.4600220  60.6925468
  55.4455376  67.2319489   6.6756797  55.2792892  68.1702271   6.7663488
  55.9933052  67.1602020   5.8939934  42.3096313  16.7359962  73.6609497
  41.6489182  16.9370689  74.3237152  42.0177612  17.2078114  72.8809280
  68.5691528  10.3770990  19.0330505  68.1673584   9.5736895  19.3636971
  69.4533539  10.3711262  19.3996258  74.4356155  63.8752899  84.4421616
  73.6749115  63.2945671  84.4600067  74.1706009  64.6332321  84.9632416
  48.1707382   0.1794897  21.6993046  48.5312958   0.1029464  22.5826912
  47.2910194  -0.1917154  21.7666759  68.5278702  31.3359165  15.5946102
  67.8864594  31.5630245  16.2678471  69.2388687  30.9113503  16.0746765
  82.2551193  61.6820526  45.9739532  82.2322998  60.8401451  46.4288177
  83.0529175  61.6475830  45.4461632   7.8114762   0.8859778  88.2185059
   8.3123102   0.9801419  89.0287704   7.5290346   1.7757051  88.0067444
  69.0733414  28.6656723  87.9837799  68.7551346  28.0629082  87.3117294
  68.2791824  29.0391178  88.3659897  13.7895451  15.3350992  11.6221905
  14.0930023  14.5028133  11.2596359  12.8614702  15.1915102  11.8073702
  48.7848434  55.5376282  61.0600891  49.0468025  56.1080399  60.3374329
  49.2624779  55.8759079  61.8174934   1.2360020  41.8950310   9.6270418
   0.5566805  41.7639656  10.2885370   0.8420657  41.5800667   8.8135042
  17.1614418  69.8811111  75.1175766  17.6584282  70.5646896  74.6681824
  17.8064575  69.4404373  75.6707382  32.8095398  38.5694313  88.6662445
  32.4893265  37.7202301  88.3620224  32.3490067  38.7171364  89.4922714
  71.4346542  29.5182285  82.9131622  70.6599655  28.9663486  83.0204620
  71.7577667  29.6532917  83.8040009  41.5945358  30.7722988  79.5043106
  42.3648834  30.6293926  80.0541916  40.9354858  30.1731930  79.8549652
   8.5275545  32.5300827  68.4246750   7.7581754  32.2812195  68.9368820
   8.8033466  33.3671913  68.7980576  21.2207088  32.7856216  77.2568665
  22.1541424  32.7490463  77.0480728  20.7868214  32.8409653  76.4054489
  47.1372528   8.5449991  31.6143684  46.8511696   8.9986105  30.8215103
  46.4823570   8.7772474  32.2727013  25.8948879  62.8565331  69.7469940
  26.8390465  62.8249588  69.5927277  25.7412357  62.2005997  70.4269714
  55.6721458   5.3244133  32.3810844  55.4326668   5.9872413  33.0288048
  56.3553276   5.7397017  31.8547478  45.7675476   4.9864912  62.7529488
  44.9178238   5.4265890  62.7302704  45.5947456   4.1546369  63.1938438
   1.4557861  59.5696220  38.3141365   1.4279114  59.9077606  39.2091866
   0.6949366  58.9920921  38.2524796  44.0498619  41.9774857  78.3820953
  44.9867668  41.8452492  78.5268631  43.8138733  41.3213272  77.7263565
  62.7434578   1.9070245  17.4482098  62.0341988   2.4175472  17.8387852
  62.3225250   1.1001843  17.1514664  36.7885780  38.0287971  78.4755249
  36.3671684  37.2054405  78.7219543  36.6882210  38.0740128  77.5246735
  11.3660603  49.2618790  51.2759552  11.3316336  49.0977859  52.2183571
  10.4582224  49.4403763  51.0305977   8.0481815   1.8092302  72.3814621
   8.0156097   2.7279932  72.6480026   8.6016579   1.8058827  71.6005096
  15.8113432  17.2312813  83.1317520  14.9209051  17.1919498  82.7827454
  16.3609810  16.8941193  82.4243317  86.9500046  51.6251450  20.3362064
  87.0695953  52.5700493  20.4315338  86.2960663  51.5352173  19.6430187
   2.3702290  46.9865303  18.6291237   2.9158471  46.2182617  18.7973347
   2.5642097  47.5813217  19.3535728  65.0225296  28.9138012  58.2465439
  65.5109100  28.8194313  59.0643539  65.4993820  28.3708763  57.6187897
  81.5284119  56.1168365  57.4392471  80.9883194  55.8825340  58.1939850
  82.0914459  55.3550224  57.3018951  84.6347961  50.0344696  22.5121689
  85.3981247  50.4091339  22.0726318  83.9057999  50.5942459  22.2448902
  66.7806625  10.1018457  45.4767380  66.2053986  10.0712614  44.7122993
  66.5001602   9.3633575  46.0172806  53.0732651  46.8965378  78.9955826
  52.1172829  46.9402275  79.0159531  53.3580627  47.6211586  79.5523987
  15.6558475  50.5692253  80.1973801  15.9669085  51.3320580  79.7099762
  14.7926865  50.3842049  79.8273087  56.0568810   3.4721842  37.3841896
  56.5542641   3.6863458  36.5949020  55.8434677   4.3215117  37.7706261
  53.2914581  28.6684570  82.9898987  52.8497696  28.2801323  83.7451096
  52.5831566  28.8858929  82.3838806  64.9368057  49.3647995  87.9966965
  64.5229645  49.4393463  88.8565826  65.8147202  49.7253036  88.1213455
   8.9363508  69.1370773   8.3693295   9.2964849  69.5832748   7.6028800
   8.5941515  68.3113098   8.0269308  46.8062019  37.8637733   4.1182113
  46.5726776  38.5346756   3.4766617  46.2028694  37.1421967   3.9405901
  50.9567719   1.8401086  16.2561016  50.4178581   1.4984910  16.9696159
  51.3437233   2.6407273  16.6103745  28.7903366  12.3345661   9.8626328
  29.2025299  13.0942211  10.2740345  28.9055653  11.6268406  10.4967299
  68.7160873  18.2364941  48.9038162  68.7317200  17.8107624  49.7609863
  67.8248596  18.0973721  48.5835114  65.3125839  57.6719055  48.0134354
  64.3575439  57.6343956  48.0656509  65.5400467  58.5207443  48.3928604
  73.3134003  17.1108303  39.5369453  74.0733795  17.5942249  39.2129135
  73.5122833  16.9411182  40.4577446  12.8870535  28.5005436   1.6683799
  13.2073383  29.0451450   2.3874478  12.1742420  29.0091743   1.2818236
  15.5204239  55.5404778  84.5848312  15.4428682  56.4856606  84.7146225
  16.0538769  55.4501190  83.7952194  24.2706299  55.1493607  47.0394135
  23.6188755  54.4572792  46.9277191  24.6998596  54.9424210  47.8695755
  72.5361862   9.9909372  29.8946323  72.6186142  10.6804676  30.5534077
  73.0326691   9.2557135  30.2540474  72.0537796   4.3460903  75.2941666
  72.2923889   3.7071166  74.6225967  72.4690933   4.0205979  76.0927963
  38.3887901  25.7179451  69.2701645  38.0711365  25.6020184  70.1656418
  37.6156349  25.9884682  68.7749023  72.0891800  65.0295105  24.7817039
  71.6557465  65.1805801  25.6216717  71.9630432  65.8452072  24.2969761
  19.6768303  46.6372452  83.8167877  18.9938831  46.9181938  83.2077866
  20.4687328  46.5859833  83.2815399  31.7943287  62.2346039  11.7501841
  31.7980194  62.6705055  10.8980055  32.1255302  62.8952217  12.3585615
  19.3167229  49.2806816  66.9463577  19.9671822  49.9761620  67.0435104
  18.6517525  49.6537895  66.3677063  75.8454742  63.2804642   5.1042514
  76.0303802  64.2160339   5.0220890  75.4484787  63.0403519   4.2670093
  39.8792686  59.5719261  33.4033890  39.0195236  59.5622330  32.9827080
  40.4958229  59.7136192  32.6850471   9.0939941  13.9512329   5.3149590
   8.9080706  14.8775434   5.1612916  10.0446711  13.8802691   5.2288804
   1.8958325  69.2135620  28.3496113   1.4636424  69.9239960  27.8755608
   1.5520264  69.2763138  29.2407284  12.5255060  47.8639297  31.6529446
  13.2455702  47.3054390  31.3599815  11.7512417  47.3035545  31.6007347
  74.1089935  57.9663544  80.6713104  74.9016800  58.5026588  80.6870575
  74.0137939  57.6531754  81.5708084  54.2606926  44.7150574  21.6354923
  54.8810425  44.8093605  22.3583393  54.2793083  43.7816734  21.4241219
  33.4491348  65.0289917  35.8144226  33.8894234  64.1801987  35.7704620
  34.1203804  65.6306000  36.1364784  23.2276478  54.8439522   8.1554384
  23.7887669  54.4258575   8.8085661  22.3441715  54.5468864   8.3732710
  13.1011734  49.9330826  11.4374256  13.4946785  49.0908699  11.2092466
  13.4432335  50.1287804  12.3097382  29.9621716  49.4861526  78.2952271
  29.3635807  49.7587776  77.5998154  30.6449795  48.9907341  77.8429413
  17.5048466  68.3037262  57.6980896  17.8611279  67.8135910  58.4390755
  16.7092209  67.8291321  57.4573135  62.6930237  46.2845802  38.0355415
  62.1118469  45.9847107  38.7345009  62.6022148  45.6241188  37.3486824
  25.8726692  56.7895775  61.8610115  25.8923264  55.8371925  61.9548721
  26.4997234  57.1072731  62.5107079  38.4561958  41.3300972  64.3689651
  37.7972527  41.4970055  65.0428848  38.5703163  42.1737518  63.9314156
  75.7645798   0.8048989  17.5555687  75.2910385   0.9098751  18.3807812
  76.6825180   0.9476094  17.7863426  20.4523220  31.5840054  86.0390167
  20.6266708  30.9316807  86.7174759  19.5647984  31.3868237  85.7395859
  70.6041794   3.4619842  78.5997391  70.0813904   2.7136335  78.8876572
  69.9988327   3.9915729  78.0807877  28.0374985  13.1240864  73.5080032
  27.3080006  13.6864090  73.2475128  28.5013371  12.9397545  72.6912384
  51.2135887  67.6874237  55.8705063  52.0975037  68.0505142  55.9260635
  51.0584488  67.5772247  54.9324112  21.0785637  50.8906288   2.1932018
  21.6262913  51.5329552   2.6444669  21.4561558  50.8281059   1.3158499
  10.3973541   2.2312243  11.3476877   9.4440126   2.1772809  11.2808867
  10.6833363   2.5059175  10.4764881  47.0260010   9.5710487  44.8290443
  47.7917061  10.1300564  44.6969833  46.4876175  10.0476513  45.4608841
  81.1646271  17.1796227  75.4484634  80.8683472  18.0869370  75.5207977
  80.6641541  16.8219833  74.7150803  68.2381134  65.3371582  10.5233507
  68.3773956  64.9348450  11.3806581  69.1040344  65.6506653  10.2623644
  84.9225922  39.7559586  76.8401184  84.7687531  39.5310669  75.9225159
  85.8559494  39.5910950  76.9738922  50.4800682  48.2987251  66.1195450
  50.3802719  47.5927887  66.7582321  50.7621994  49.0524483  66.6377487
   8.4711685  34.1554298  88.7084579   8.1290426  34.6115036  87.9395752
   7.7297902  33.6446342  89.0335388   6.7171373  45.1514015  82.9314880
   7.3047719  45.3709717  82.2085114   5.8640189  45.0240631  82.5165176
  10.7006693  40.7108154  13.3928509   9.9079990  40.7299652  12.8566246
  10.4423800  41.1235924  14.2169476  60.9843903  13.9296942  52.8379669
  60.6395073  13.1485844  53.2705765  60.5098915  13.9729128  52.0077782
   1.2060783  44.2174377  79.3305511   1.3879613  43.5576057  78.6613922
   0.9098440  44.9828148  78.8379364   5.0503902  22.4825096  65.0167923
   5.8843031  22.5877438  64.5588074   4.3892918  22.5408363  64.3270264
  85.2938766  22.1290684  79.8234177  85.9546967  22.4394989  79.2043991
  84.8946686  21.3750362  79.3894806  36.6985512  56.4148216  55.6522064
  37.1701012  55.9109192  54.9889145  37.0356026  56.0874710  56.4861565
  67.2817764  30.2626591  29.6033020  67.3147125  29.8680859  30.4747715
  68.1927719  30.2710514  29.3095989  59.2337914  14.9876680  50.6105843
  59.1661263  14.0397425  50.4961777  59.6303902  15.2993946  49.7970924
  59.4785576  20.3696194  32.8504410  59.4968262  19.6202278  33.4456787
  59.8705864  20.0421219  32.0409431  85.0811691  61.4017143  10.0379419
  84.9614182  60.8478737   9.2664814  85.9357376  61.8126984   9.9074211
  46.9418716  17.0725040  63.7848549  47.5505791  17.8014851  63.6653023
  47.1425247  16.7335320  64.6572495  79.8075943  43.4553413  56.4453239
  79.0063629  43.1568527  56.8756218  80.2973557  43.9031601  57.1351242
  82.9761887  41.7089005  71.1476822  82.8098297  40.9207878  70.6305466
  82.5051804  42.4023857  70.6856689  78.8904724   1.0547279  31.8805599
  78.7274857   1.2125114  32.8104897  79.4222260   1.7998462  31.6007957
  82.4840393  45.1342697  87.5874710  81.6907578  44.6216888  87.4319153
  82.2853241  45.6523819  88.3674088  10.9518671  46.6700554  25.8288174
  11.4069729  47.5120964  25.8376389  11.3539495  46.1730080  26.5412121
  54.5181885  31.5132408  85.9943619  53.6497536  31.1250916  85.8875961
  54.9872971  31.2741928  85.1949692  74.3095245  45.0044212  12.2269583
  73.3950195  45.0535545  12.5053425  74.2664261  44.7356567  11.3092756
   4.8684635  62.3257980  45.3685532   5.5362439  62.0733414  44.7309265
   5.2570181  63.0598450  45.8444023  18.2420921   5.0175591  20.0019817
  18.7682056   4.2437525  19.8003387  18.8746319   5.7351999  20.0353775
   6.8921189  17.8238678  63.2102966   7.1116405  17.2315102  63.9294319
   6.4696422  18.5702782  63.6352882  50.5911484  32.8101196  84.7468719
  51.0897484  33.1345482  83.9969559  51.0004730  31.9720707  84.9621811
  50.9637108  29.3978996  19.4675484  50.4355392  29.6575699  18.7126732
  50.4064560  29.5807037  20.2240410  58.4886856  30.9157372  65.3558197
  58.1453209  30.2223167  64.7923508  57.7259216  31.2291317  65.8418274
  12.7728395  59.2797203   0.1022661  12.5154018  59.9472237   0.7381882
  12.2069979  59.4379387  -0.6533937   6.4181461  65.9822845  49.3116302
   6.0801082  66.4295197  50.0874786   6.1670976  66.5474167  48.5809860
  62.7935066  48.6407013  77.4009781  62.0018387  48.1034470  77.3718185
  62.7672157  49.1501274  76.5910263  46.6831970  39.2818336  67.6437836
  46.4473724  38.6033096  67.0111542  47.0656853  39.9810486  67.1136627
  68.2055511  25.0489445  62.3169937  68.3818817  24.2276669  61.8580360
  68.9775391  25.1871624  62.8657837  11.6753626  14.0108271   4.8333287
  12.1027412  14.2530231   4.0117931  12.1059456  14.5512648   5.4957161
  51.7028732  38.2300377  35.7737770  50.9406319  38.7308807  35.4832916
  51.3478622  37.5894508  36.3900948  71.0468063   5.0979047   0.2507067
  71.7367401   5.0054698   0.9077246  70.3637390   5.6042747   0.6902987
  85.2855072  10.1189661  41.6565933  84.8369751  10.2697620  42.4886475
  84.5868073  10.1299229  41.0024261  32.4946251   3.0385795  12.5298891
  33.2518578   2.5140791  12.2696381  32.7578430   3.9422100  12.3555336
  58.0586777  29.1619606  29.7857265  58.4917831  29.4174900  28.9712620
  57.6598091  29.9699707  30.1086159   4.0599470   1.6422514  82.8387375
   4.5323939   0.9688554  83.3281937   4.0163379   2.3875365  83.4378052
   7.9056249  63.4368286  26.4597301   8.6305132  62.9613571  26.0538998
   7.7094779  64.1442566  25.8454781  15.1790190  12.8566895   0.9007845
  14.8560858  13.0149450   0.0137097  15.6291409  13.6669006   1.1399090
  38.5012245  39.2680969  67.2328873  38.2270737  39.1018333  66.3309860
  37.6821556  39.3796577  67.7154922  75.2223358  45.3570023   7.7362537
  74.9857025  44.8617363   8.5204411  74.5935211  45.0711327   7.0736060
  55.9834061   9.1352367  59.4634323  55.5951462   9.0826836  60.3367729
  55.2852364   9.4880123  58.9117661  35.5111656  35.7043304  79.7447357
  34.9145546  35.8465004  80.4796371  36.2229195  35.1801605  80.1119919
  52.4472466  17.1730328   5.8529716  53.1073303  16.6367817   6.2922382
  52.4289055  17.9884148   6.3540196  13.8348398  30.7501621   8.6436195
  13.0642719  31.0066185   9.1502619  14.3347988  30.1884384   9.2358513
  69.4978409   1.9502846  68.8534698  69.9623795   2.1216102  68.0342712
  70.0112000   2.4069118  69.5199356  64.9572449  20.2838211  54.9412651
  64.5233002  21.1213665  55.1038780  64.7883835  19.7693539  55.7305946
  33.5800591  62.1548347  18.4254246  32.9085999  61.9820824  17.7654781
  34.0208015  62.9466209  18.1171227  35.3294029  35.9713707   8.0556936
  36.1175766  36.4324226   7.7685633  35.5123100  35.0492401   7.8755441
  27.7629604  65.4235992  21.5794525  27.1645164  65.1010742  22.2532997
  27.2373466  66.0371323  21.0660839  66.3631668   3.1741424  66.3406906
  66.3581924   4.1186934  66.1856766  66.4804611   3.0872991  67.2866974
  74.5306931  28.4626236  78.8489227  75.2943726  28.0975513  79.2958527
  73.8794098  28.5757599  79.5412140  83.6491928   4.1891818  55.9551964
  83.9193268   4.4368777  56.8394508  83.5242538   3.2412114  55.9996338
  84.0552063   3.4191515  17.5075188  84.9054947   3.2735174  17.0927429
  83.9439087   4.3698134  17.4982929  25.7960510  52.1986656  18.6225033
  26.7409039  52.3507919  18.6409950  25.6482124  51.5287209  19.2899971
  53.9663620  54.7522278  35.5987129  53.3852348  54.2465591  36.1668854
  54.6881332  54.1550865  35.4019852  35.3401375  54.9966888  52.4934692
  35.3838730  54.0595169  52.3036613  36.2522354  55.2584267  52.6191559
  79.2871246  27.6484718  47.2667427  79.7143021  28.4096508  46.8738518
  78.6940308  28.0178223  47.9209976  24.7768707  48.0709610  43.3703880
  24.6808891  47.6275063  44.2132225  24.0084000  48.6383820  43.3094101
  60.1881790  32.8640671  82.7855606  60.4499664  32.0032616  82.4588928
  59.4173431  33.0930252  82.2663040  44.3989143  48.4642220  47.7387733
  44.8472099  47.6865349  48.0711403  44.1649857  48.2393150  46.8382607
  45.5271492  53.8701210   4.6605301  45.2538376  53.4976044   5.4988389
  44.7556267  53.7895927   4.0997276   4.5225749  13.9087620  14.3479004
   4.2470756  13.5263424  13.5147820   4.0888987  14.7616529  14.3749990
  79.2644653  32.7157555  26.6789265  78.4902420  33.2744179  26.7475491
  79.7997513  33.1303177  26.0022907  64.5025635  29.9813099   8.2543106
  63.8184738  29.3571568   8.4965611  65.3219528  29.5191936   8.4311810
  53.9873276  20.5018921  67.2785873  53.9486198  19.5778599  67.5253677
  53.0736580  20.7511692  67.1396561  47.2733574  28.8779812  82.7737427
  48.2167397  28.7955608  82.9132462  47.0222321  28.0597668  82.3451462
  83.5395660  61.1410332  18.3694515  82.7601929  60.7988739  17.9315853
  83.6551819  62.0174637  18.0023861  66.3412323  47.1585312   5.6266322
  65.9373856  48.0026779   5.8280168  66.1664810  46.6193275   6.3979659
  78.6541748  60.1538658  71.8327026  79.2930069  60.1867104  71.1206284
  77.9352951  60.7116089  71.5354462  77.8336105  22.3888168  25.0218735
  78.6819000  21.9458809  25.0431671  77.3884888  22.0173244  24.2602367
   2.2001677  57.8548698  72.4785614   1.9623659  57.2719994  73.1996307
   3.1356347  58.0171051  72.6002655  10.8381805   5.6930480  34.2957687
  11.1043034   6.3759642  34.9114304  10.8034124   6.1354690  33.4476624
   1.0548815  13.1032610  44.7467270   0.2852914  13.1955395  45.3083725
   1.4899787  12.3121738  45.0646935  59.6500626  16.3087196  65.7887344
  59.7683029  17.2456017  65.9452667  60.2851372  15.8871355  66.3676758
   5.5805855  24.1565723  86.2874374   5.8311319  24.3098583  85.3764191
   5.2848606  25.0110455  86.6015320  66.1329498  25.9195118  26.4734669
  66.2551651  25.7281170  25.5435944  66.3750153  26.8413486  26.5620918
  26.6684322  32.6055565   7.8743029  27.3345776  32.6068382   7.1869292
  26.3284359  33.5003204   7.8800073  52.1703720  55.5150261  21.1341381
  52.1955032  54.5581627  21.1372871  51.7198486  55.7401123  20.3201351
  36.0261078   5.0394449  43.0388641  35.9544563   5.4085326  42.1585960
  35.9006920   4.0986104  42.9150352  15.6664495  52.4461250  41.6778908
  15.5360212  53.3858986  41.5512047  15.6337738  52.3255692  42.6269073
  15.2410965   8.3573942  24.6804657  15.5826988   9.0197439  24.0797710
  14.8475065   8.8606682  25.3932304  21.2723579  21.1877365  80.9081650
  20.7109585  21.8055305  80.4397659  20.6636620  20.5660782  81.3072357
  60.7278404  18.9895039  60.4868393  60.8992920  18.9545689  59.5457649
  61.1402779  19.8036766  60.7753716  81.6775589  28.3203545  82.5993881
  82.3796387  27.7343426  82.3167114  81.3739090  27.9483662  83.4274292
  23.7243061  44.8408813  84.0084534  24.3727283  45.3012009  83.4756393
  23.0160465  45.4743156  84.1240463   9.8418665  36.7873611  51.5418015
   8.9038315  36.9773865  51.5563698   9.9859848  36.3569145  50.6990814
  24.7115650  58.9684296  47.1924706  24.2248135  59.4117165  47.8873100
  25.1799660  58.2638588  47.6401405  40.0202599  50.7132912   0.5160879
  40.7541542  51.2335854   0.1891023  39.6851158  50.2594299  -0.2571648
  38.0469551   0.7323178  38.9060097  38.4830933   1.0051271  38.0988007
  38.6022797   1.0755073  39.6060562   8.9030972  60.1582031  12.5257120
   8.4922943  61.0153770  12.6385374   8.3772411  59.7274246  11.8518152
  25.8013897  65.9847717  56.7296944  25.8525829  66.7559128  56.1649399
  26.3228283  65.3216171  56.2774048  12.9664316   6.8277736  88.2201614
  12.5161963   6.0576391  87.8731613  13.7172222   6.9484825  87.6388092
  19.4402409  25.3120937  67.6931534  19.4518833  24.3550892  67.6777954
  18.5106964  25.5404415  67.6872406   6.0879288  16.7239342  53.8629761
   5.8347096  17.4551926  54.4263344   5.7023053  15.9543543  54.2816315
   4.6197495  35.1363831  19.9975052   4.0465565  35.7381134  20.4724827
   4.0396223  34.4332085  19.7055645   6.3684883  26.1251431  22.7316761
   5.6747146  25.5134411  22.9781132   5.9048729  26.9219627  22.4740505
   0.7792868  26.6454735   8.1014786   1.2986411  27.4076996   7.8455248
   0.0868546  26.5952129   7.4425068  82.8928146  10.3536320   2.4091468
  83.7105331   9.8632803   2.3247273  82.4802780  10.2814054   1.5484325
  85.5014038  31.2905006   1.9430985  85.2302551  31.3386040   2.8598285
  84.7743988  31.6802635   1.4575260  65.9242249  49.0867577  64.2745361
  65.1155548  48.8160858  63.8397713  66.3787766  48.2666435  64.4669647
  34.6532097  61.7858276  85.4494019  34.5180130  62.3614388  84.6966629
  35.5788078  61.5460815  85.4044037  49.7973289  57.4475517  39.5958405
  50.6291885  57.1861801  39.2009659  49.7865448  58.4018440  39.5220604
  81.1697235  29.2564201  13.4928131  81.6065598  28.5712452  12.9869051
  81.5781021  30.0699520  13.1967945   6.7966757  68.8194046  85.6500626
   6.1076798  68.7849274  84.9864960   7.4388285  69.4351044  85.2968216
  43.1935005  35.9338913  82.7650223  42.4345894  35.3782959  82.5872421
  43.8856773  35.3213997  83.0139618   8.2283401  42.9252701  34.2762985
   7.9323106  43.7483902  33.8876266   7.4395461  42.3850174  34.3227997
  30.1471386  18.4177608  61.4836731  30.2058125  17.6379681  60.9316635
  29.7399063  18.1083584  62.2927856  52.5214767  52.5734711  73.6539383
  52.0892143  52.7246323  72.8133850  51.8326225  52.2213669  74.2176208
  81.5619736  68.1531143  61.9079552  81.6831436  67.2156143  62.0584297
  81.1395569  68.2054520  61.0505981  76.1583328  32.0540085  15.6477079
  76.0774612  31.4444523  14.9141321  76.4772797  31.5158806  16.3722248
   6.6493964  54.0358963  18.8918533   7.0952115  53.2816620  18.5063534
   5.7177649  53.8375015  18.7973328  83.4341278  13.5991287   3.3487344
  83.6152725  12.7270269   3.6992433  82.4790649  13.6462812   3.3055563
  29.7043819   2.1193137  87.3526917  28.9261055   1.7502439  87.7701874
  30.3582954   1.4223626  87.4064484  54.5656395  52.6721230  12.2730703
  53.8330498  52.4966698  11.6825104  55.3247375  52.7529564  11.6956034
  85.4167328  64.4671783  58.7776489  84.7416687  64.2226868  59.4106827
  84.9510040  64.9794998  58.1166992  78.3921738  63.3464432  17.5099773
  77.9778061  64.1882858  17.6992626  79.3260727  63.5474129  17.4493847
  35.8293304   1.0397692  25.9344807  36.0966606   1.8041755  25.4241371
  35.8015976   1.3531119  26.8385143  50.1217041  52.9424591   7.4006763
  50.7373619  53.1658669   8.0987368  50.4426231  52.1091690   7.0559044
  35.8092308  33.8799057  63.4570923  35.3799400  34.7311287  63.5429039
  35.2435455  33.3850403  62.8643532  48.8525620   1.0590386  24.0995541
  49.3009338   1.7498890  24.5873241  48.1635208   0.7566669  24.6911812
  10.2969656  55.3200722  85.8878708  10.1856270  54.3706970  85.8376236
  11.0950480  55.4407272  86.4023972  69.6575928  14.4062338  72.6456604
  69.9896317  14.8110085  71.8443298  69.9509659  13.4965754  72.5938339
   1.7817789  35.7446327   5.1496921   2.1151421  36.3806229   5.7826357
   2.5529413  35.2429237   4.8854413  81.2018280  27.2662983   4.4648299
  81.1765823  27.6179161   3.5749090  81.7207031  27.9012585   4.9586115
  37.2558975  50.8523788  74.8589935  37.3861122  49.9320145  74.6305008
  36.7798538  50.8280487  75.6890640  40.2280579   4.3002229  36.4672775
  39.6922722   4.8560266  37.0331802  41.1152878   4.6468258  36.5617447
  74.0599136  41.9975929  29.8974724  74.6217041  42.5740967  29.3795300
  73.1719055  42.2018700  29.6042957  56.4870491  67.3635178  58.4043121
  56.6260262  66.7416153  57.6900597  55.5632095  67.2624588  58.6335297
  59.8583183  54.5111732  27.3321724  59.9876976  55.4595718  27.3260479
  59.1124573  54.3674240  26.7497158  19.4657841  46.8928909  12.7358036
  19.1586933  47.1078873  13.6165438  20.4161816  46.9972801  12.7813950
  76.9316635   8.3246822  72.9867630  76.5556946   9.1906538  72.8287430
  77.4286575   8.4238882  73.7987900  79.8217697  50.9792938  17.0679054
  78.9735718  50.5392456  17.0117340  79.9428482  51.3769646  16.2056808
  50.3193016  35.3624420  72.4730148  49.5292282  35.8434105  72.7193604
  50.4226036  34.7037163  73.1597824  62.2140999  15.2559423  82.4165955
  62.2387199  15.2712946  81.4598389  62.5669136  14.3977098  82.6515274
  38.0595474  57.4151840  83.4594116  38.7863274  58.0379906  83.4477386
  37.7555275  57.3848495  82.5522766  26.4400806  14.3672657   0.5944582
  26.1147861  13.8839245  -0.1650126  25.6782188  14.8495407   0.9157175
  64.0263214  50.2176781  28.8916740  64.6885071  50.4290962  28.2336102
  63.4882393  49.5407982  28.4811440  15.8769293   1.6442889  77.7643814
  15.4336090   1.1422734  77.0805054  15.2028551   1.7928330  78.4275436
  23.7588558   8.9390631  78.1575546  24.5857735   9.3264532  77.8705521
  23.2843456   8.7588949  77.3460007  49.9744568  16.6289463  68.4695435
  49.4455681  15.9659357  68.9133072  50.8715897  16.3011723  68.5324249
  23.5731773  49.2859497  50.2934647  23.4230976  48.4379921  49.8755226
  23.0015278  49.2790947  51.0611877  71.6901169  23.5559902  18.6403522
  72.1850586  23.0577450  17.9899559  70.7730789  23.3976383  18.4162998
  51.7587471  66.4509430  85.9370270  51.9682121  67.3832092  85.9939651
  52.3818436  66.0289001  86.5285187  61.1046715  52.0353508  88.2004471
  61.2368660  52.8217239  88.7299500  61.9434853  51.8995056  87.7598038
  83.3517227  57.5468140   5.7162991  83.2891235  56.6076050   5.8900766
  84.2893295  57.7355843   5.7550411  66.5071640  43.5087357  21.4816360
  67.1428070  43.8228607  22.1246853  66.3101730  42.6134644  21.7571735
  42.6709824  29.7328129  73.4012070  42.6577950  30.4836884  72.8077011
  42.8551598  30.1105061  74.2612381  43.6729012  21.0433121  69.8123245
  44.0703773  21.8324642  70.1804047  42.8178864  21.3322067  69.4933853
  45.7025681  43.3439941  51.3408470  45.6857910  43.9773369  50.6233368
  46.6010056  43.0138512  51.3479500  64.8549881  50.7769623  52.1681862
  64.3285599  50.6148605  52.9510193  65.0337296  51.7170677  52.1901894
  76.4071960  38.2376785  76.3892059  76.5879517  39.0777626  76.8108902
  76.9620667  37.6117744  76.8546066  62.4349251  17.6405678  50.4339828
  61.7636414  18.2529449  50.7349930  62.8813744  18.1039238  49.7253113
  46.9318924   9.1119833  72.6385727  46.5958023   9.6521187  73.3537827
  46.1500092   8.8282957  72.1648483   5.1137323  14.0790768  11.0664272
   5.7587276  14.6932478  11.4171515   5.5483599  13.2271280  11.1053438
   1.3124840  59.5471535  78.3053436   1.5148170  60.3778648  77.8749847
   1.7844887  59.5871124  79.1371155  57.1674767  71.1104889  44.5061989
  56.4427071  71.4266739  43.9667854  57.1493034  71.6692581  45.2831650
  55.7258987  21.7496967  88.3502426  55.8681183  20.8041534  88.3060379
  55.6972427  22.0306072  87.4356384  71.4101868  34.4598351  57.4360390
  72.0095673  34.3365402  56.6999893  71.5276260  35.3752823  57.6898003
  11.3834639  44.1470642  55.2786217  10.8111868  43.3835487  55.2026482
  12.2387381  43.7834740  55.5078392  73.2865677  55.4490280  57.0232277
  73.8067703  56.2352600  56.8575020  73.5148087  54.8555984  56.3077011
  11.3703833   6.3951130   4.5292406  11.9409676   6.3723416   3.7610309
  11.9461346   6.6573901   5.2475386  29.8501072  38.4178200  75.0143509
  29.4900017  37.7843208  74.3936768  30.2240562  37.8818932  75.7137604
  44.5397491  63.6231956  78.6994629  45.1671982  64.3437347  78.6414185
  45.0820084  62.8410378  78.8015442  61.0123520  27.5926514  36.1487427
  60.3283577  28.2345829  36.3392944  61.5776749  28.0273991  35.5102768
  57.6435509   7.6673212  84.7474976  56.8152847   7.5469112  84.2830582
  57.4790764   7.3204951  85.6243591  82.4683533  57.4515457  43.3918037
  81.6005096  57.0892029  43.5700836  82.3003616  58.2144699  42.8386688
  35.6535301  23.1772957  62.0461388  34.7561417  23.5003929  61.9652977
  35.5566368  22.2741814  62.3481827  15.8818884  10.2613897  81.9761734
  15.9574223   9.7796774  82.7998734  16.2322998  11.1299734  82.1736755
  80.1335449  62.0905800  86.4597168  80.2942810  62.6857224  85.7274628
  79.4480133  62.5200691  86.9713974  47.1212921  69.5784302  68.3820724
  46.6760178  69.4591064  69.2209549  46.5062256  69.2358398  67.7335739
  86.4098663  15.6114826  22.6135960  87.3041077  15.2702599  22.6250916
  86.1810303  15.6523829  21.6850510  54.3807449  13.7386370  28.7547684
  54.2245064  13.0754519  28.0824528  55.1977234  13.4674749  29.1733932
  67.7552338  70.3721237  65.8806000  67.1978302  69.6237488  65.6673813
  67.7617416  70.9009323  65.0827637  77.3116837  15.2655230  40.7490044
  78.0088959  14.6123066  40.8076096  76.5387497  14.8229551  41.0996246
   4.7897382   5.7937889  61.4669609   5.2673969   5.9044013  62.2890549
   5.2108760   5.0454226  61.0440865  52.9914398   9.1642733  23.4702168
  52.3073921   9.6278057  23.9533806  53.1626129   8.3795376  23.9909115
  75.7718048  56.9898529   5.0889759  75.9165344  56.4903793   5.8925986
  75.3037262  56.3858032   4.5125546  80.2087555   7.5365338  50.5911446
  80.5316162   8.3479023  50.9831581  79.2611008   7.5676780  50.7223434
   6.2477970  60.1033020  16.0474815   6.1547790  60.7639198  15.3610678
   7.0944252  59.6927719  15.8716478  52.8839073  16.3679504  12.6934605
  52.0186234  16.7765865  12.6703787  53.0440826  16.0950584  11.7900753
  15.3568516  63.3326607  27.4345169  14.6636391  62.9026756  26.9337158
  15.7426395  62.6317978  27.9600525  74.5725937  24.5027637  65.0542679
  74.8329926  24.6566353  65.9624252  74.0265350  25.2564697  64.8306885
  58.8069572  51.2287521  17.2217369  58.6808891  52.1231232  16.9048252
  59.1320190  50.7484131  16.4602604  75.5767746  65.9386063  72.2952576
  74.6980057  65.6449051  72.0549850  75.7851486  66.6192627  71.6553268
  26.6758804  53.6619148  11.8195000  26.9493980  53.0076561  12.4624310
  27.4216976  54.2581406  11.7523575  19.2620964   0.7946321  63.3163261
  19.4878349  -0.0957728  63.5854988  18.3301620   0.7511246  63.1022377
   2.4209650  18.6767693  33.7770538   2.2407303  18.6933117  32.8371239
   2.7144034  17.7820187  33.9489517  59.5697098  33.6642342   7.4777799
  58.8680153  33.0588455   7.7172837  59.1801338  34.5331039   7.5753951
  17.8324623  23.4485340  82.5820847  17.4034004  24.3036442  82.6124802
  17.1166458  22.8257523  82.4556732  12.1718493  45.5894203  16.1331272
  12.1057796  46.4871597  16.4585991  12.7326994  45.1448708  16.7687778
   9.9179859  67.7379837  11.4744711  10.2271671  68.2595749  12.2151299
   9.0380049  67.4596786  11.7282658  75.9958878  30.7436161  65.3485031
  76.3611298  31.3063850  66.0312347  75.3462296  31.2917843  64.9084015
  10.9130993  41.1745224  10.3459730  10.1873198  41.0231133  10.9514074
  11.5731068  40.5282516  10.5968828  39.7417870  23.4116821  86.2887650
  39.9772453  22.6538372  86.8239822  39.2627563  23.0416756  85.5472488
  34.6664314   7.9511676  74.1741257  35.0703697   8.3883600  74.9237442
  34.1592102   7.2362189  74.5585785  62.5784531  30.7105503   5.5201583
  62.8142891  31.0262814   6.3924689  63.4053993  30.4116287   5.1419606
   1.2360417  11.8164454  64.8866043   0.8821107  12.1037321  64.0449219
   1.6215549  12.6059942  65.2663727  64.0514679  14.6252356  48.6113777
  64.6003952  14.4815178  49.3822594  64.5757523  15.1929054  48.0464783
  81.3546982  25.1281605  46.8059921  80.8077469  24.3689442  46.6043396
  81.6546249  24.9760323  47.7021675  26.3940926  59.6646919  16.8450165
  26.7016754  59.9978065  17.6880226  25.6464596  60.2208748  16.6260681
  78.7568207  35.9773445  26.5591125  79.1344604  35.5828133  27.3452225
  78.1273117  35.3286209  26.2442989  77.8797455  31.8882999  73.9323883
  78.4494705  31.3053970  74.4342499  77.0977020  31.3653202  73.7559280
  86.5800095  58.9825516  25.7108765  86.7885284  58.8048096  26.6280231
  85.7649918  58.5057869  25.5538082  14.8224897  25.5446262  73.8579483
  15.7203236  25.8455467  73.7180405  14.7453156  25.4546146  74.8077774
  27.4514732  25.5243416  53.8864441  28.1918907  25.0328712  53.5308189
  26.6790829  25.0518742  53.5759315  18.0313168  56.4234505   8.7312994
  18.3387852  56.4914551   9.6352196  17.4520702  55.6614113   8.7320318
  37.8616905  64.7166519  40.7076683  38.0706673  64.5026169  39.7984085
  37.3241081  63.9841042  41.0086937  69.6274185  26.2521439  70.7862167
  69.4670868  25.5254612  70.1841736  68.8364944  26.2970371  71.3234711
   0.7384132  16.3182068  43.3322182   0.8323304  17.2684593  43.3987923
   1.6354572  15.9859276  43.3658943  14.6880970  12.8904095  10.9273500
  14.4449959  12.1028900  10.4405785  15.3285112  12.5863085  11.5704861
  80.7368927   1.3339459  23.5468826  80.4714737   0.9681797  24.3906822
  79.9336090   1.7076197  23.1844826  76.9307556  26.6992321  33.7872391
  77.1949615  25.7904282  33.6440430  77.7100449  27.2118912  33.5724792
  60.7625771  20.6856098  57.3646851  60.6726112  21.6009083  57.6299477
  59.8922768  20.3105526  57.4993820  46.0819664  63.1909676  75.4700699
  46.4872513  64.0571060  75.5122986  46.7309265  62.6037140  75.8576431
  49.3433189  32.5847359  68.2728729  49.6734772  31.9453106  67.6417160
  49.8493462  32.4193459  69.0683746  39.8448029  61.7326012  26.4742813
  38.9744072  61.3343277  26.4792747  40.3785515  61.1485214  27.0129795
   2.2793481  53.1288300  56.3006668   2.3614054  52.7945442  57.1938362
   3.1541798  53.0274506  55.9256668  18.0556698  20.5879860  85.8486023
  17.2709064  20.2252522  85.4377441  18.4409466  19.8505096  86.3218079
  11.2788506  55.4171753  33.7594719  10.9780579  54.5220795  33.6027756
  10.4954853  55.8862572  34.0467606  59.7087135  64.7921448   1.0823441
  59.7116776  65.5842896   0.5450132  60.1268082  64.1287766   0.5333668
  41.9727707  63.8956795   7.8041105  41.7285538  63.9895744   8.7248554
  41.8027534  64.7567673   7.4222069  44.3387909  28.2854080  82.0995560
  44.7759438  27.5878601  81.6111374  44.4675484  28.0511951  83.0186844
  78.4916077  31.6000500   9.2824745  78.4930725  31.7890606   8.3441219
  77.6641464  31.9628468   9.5985785  60.5157814   4.8173170  61.3923950
  59.8638229   5.5159798  61.4476433  60.2916336   4.3433390  60.5915604
  23.3684006  14.3693399  25.8007336  23.9086494  15.1151447  25.5396996
  23.9897766  13.7399330  26.1667519  25.1462765  26.2792454  61.3195229
  25.8913803  25.7479229  61.6001434  24.4331913  25.6508465  61.2061310
  51.5018730  30.0593853  25.9145336  50.9133606  29.3580055  25.6353340
  51.7170563  29.8444176  26.8221226  17.8238888  46.5951958  28.9173050
  17.9136162  47.1301346  28.1286221  16.9738312  46.1660118  28.8201809
  48.2279930   0.4870022  60.5311775  48.7673531   0.4137690  59.7438011
  47.4317780  -0.0015361  60.3223724  61.7209587  37.3087082  64.8641891
  61.1994438  37.6134949  65.6067200  62.5321617  36.9867859  65.2573090
  30.9501972  68.2140427  50.1949997  30.2228222  68.8359070  50.1740913
  31.6887569  68.7205963  50.5328751  53.9014931  61.9477196  64.2627563
  53.1581383  61.3692322  64.0924377  54.2941399  61.6033134  65.0649033
  57.6283760  19.8479061  16.7825546  56.8960762  19.9729671  17.3861504
  58.2778511  19.3624954  17.2912693  71.3902512  62.1273537   7.2915096
  70.7256927  62.6463623   7.7445288  72.2196884  62.5447388   7.5240035
  49.6739426   9.5947886  41.9652977  48.9219360   9.9942331  41.5280762
  49.9165306  10.2225628  42.6459465  67.5649643   4.7731752  80.5001984
  67.2855301   4.2371721  79.7580032  68.1067581   5.4589672  80.1098404
  45.1847572   9.9915485  65.8762741  45.5563278  10.5992603  65.2368546
  44.4380913   9.5968437  65.4257965  12.1466694  60.7978249  24.7601414
  12.7489023  60.0866394  24.5415916  11.7938499  60.5580902  25.6170425
  36.8861923   7.1686492  81.1363297  37.6649704   6.6121154  81.1384125
  36.1546593   6.5572467  81.2216187  56.9198074  61.8404388  44.5896645
  57.2972717  62.6612778  44.2734680  57.5751991  61.1768417  44.3744125
  53.0889015  -0.1022215  17.0381088  53.1235695   0.3315980  17.8906517
  52.2059364   0.0760970  16.7143650  80.7272415  48.7543983  13.9305477
  79.9130630  49.2557526  13.8859739  80.5852280  48.0140419  13.3406839
   2.1333952  54.5219307  84.6140213   1.6889868  54.4283409  85.4566269
   2.6445212  55.3265648  84.7008972  80.6532364  13.3166924  45.8762283
  80.1605148  14.1268044  45.7451591  80.5686264  13.1336193  46.8119392
  30.7259026  40.4173470  20.8935738  30.9953194  39.5193558  21.0865936
  30.6306038  40.4393883  19.9413834  12.5676374  50.9670753  28.1309929
  12.4491158  51.1725922  29.0583267  13.4408531  50.5781212  28.0815716
  62.9030228  52.4429245  48.0441589  62.5864716  51.9346695  48.7909546
  63.5590668  51.8804855  47.6324615  85.8701248  14.0603418  79.1427689
  85.4120026  14.2407465  79.9636307  86.7851868  13.9459782  79.3992996
  19.1216507  70.5751495  17.7101345  19.3525963  69.6594238  17.8661423
  18.4916267  70.5439606  16.9901829  36.6458549  50.8215103  42.6467514
  35.7074280  50.8588409  42.8316650  36.7101173  50.9692535  41.7032089
  57.3710747  42.9389000  63.9805183  57.6427460  43.8497581  64.0935059
  57.4377174  42.5586700  64.8564301   8.9807959  44.5587921   3.6054342
   9.5772581  45.0332680   3.0263507   8.8297443  45.1578293   4.3365765
  15.2396784  39.5157585  87.6133041  15.5985651  38.6579781  87.8405457
  14.8080111  39.8144722  88.4137192  70.4184113  15.4535551  52.1456833
  71.2374954  15.8534365  52.4379539  70.6042786  14.5148087  52.1247482
  45.6972694  -0.2418704  51.3139305  46.0723686   0.6385981  51.3315430
  44.7560692  -0.0992816  51.2137337   0.9111657  42.1502724  22.5038242
  -0.0101957  42.0418396  22.7395515   1.3407149  41.3682480  22.8504620
  25.8100929  43.2054520  75.4685974  25.6850891  42.3445625  75.0692520
  26.4934635  43.6176834  74.9401093  46.9353905   9.4724388  48.8924789
  46.3739929   9.2883282  49.6455841  46.5935440  10.2912388  48.5334015
  45.4539185  16.8216133  14.3023624  44.5889549  17.2030849  14.1522102
  45.3120041  16.1685829  14.9876680  36.5841217  50.6905327  54.5238113
  36.5011024  51.6044998  54.7958527  36.3271904  50.1865273  55.2959518
  52.9030266   3.9046693  54.1254044  52.9732323   4.8388844  53.9290733
  52.0089989   3.7944834  54.4491348  39.9163742  48.7041359  75.4687042
  39.0237389  48.8513832  75.1560440  39.8629913  47.8914642  75.9716415
  31.1017094   7.5539970  18.1143246  31.1045227   8.4092369  17.6844540
  30.9638691   6.9287419  17.4027863  45.5330696   6.8707752   7.2660151
  46.0792236   6.3140039   7.8209491  44.7748909   6.3266435   7.0531354
  31.6162930  13.8764648  13.0611916  31.9214516  13.5402269  13.9038382
  32.1255875  14.6751242  12.9233675  63.8345222  70.0677414  66.5786362
  64.4668503  70.7843628  66.6319122  63.7361603  69.9043427  65.6406326
  73.5671997  51.5819168  54.8028374  73.8637924  52.4583549  55.0480194
  73.1107407  51.7075310  53.9709091  38.0487175  43.9570770   8.2438555
  37.3658676  43.5351562   8.7653236  37.5701408  44.4785385   7.5994396
   3.7516265  23.6894798  67.0886612   3.9026875  24.5371666  66.6705170
   3.9723513  23.0470390  66.4142838  33.4739647   3.1282244   6.8236322
  32.6402168   2.8629179   7.2118511  34.0760880   3.1857111   7.5655046
  55.2503357   1.4628271  35.4427109  55.1637764   2.1374557  36.1162186
  54.3493805   1.2523845  35.1973114   2.9435008   3.4610608  84.6257858
   2.0626135   3.0892265  84.5809708   2.8467097   4.2410760  85.1720886
  69.2738800   7.8190365  33.1146851  68.8450851   7.9504604  32.2690506
  70.0258942   7.2605591  32.9176826   1.7711445  55.6740608  43.2023582
   1.9860741  56.3653450  42.5761299   1.2190626  56.1050873  43.8547783
  50.2880592  46.1599846  67.8932877  51.0534286  45.8309250  68.3646317
  50.0394020  45.4428978  67.3100357  54.2142525   2.2432749  50.5046425
  53.3578110   2.2339747  50.9320221  54.3286018   1.3508533  50.1779327
  57.7528610  61.3946304  84.1425476  58.1686745  61.6019516  84.9794159
  57.8604965  60.4480515  84.0496140  35.5935593  56.6479378  35.6427879
  36.0011368  56.4431381  34.8012581  35.7000580  57.5945740  35.7364235
   4.8936810  60.8653107  54.5040359   4.3526673  60.6232529  53.7524109
   4.4241571  60.5134583  55.2603302  83.6190033  29.9259682  21.7119446
  83.0111313  30.5922356  22.0325832  84.3428040  30.4246445  21.3329029
  39.7860069  16.1183357   6.9650407  39.9187088  16.6868572   6.2064853
  39.3390808  15.3488474   6.6123734  81.7520752  31.9094410  67.6685944
  81.5252838  31.0062542  67.8900681  81.2565002  32.0919571  66.8702698
  69.9508667   2.9386311  15.5966215  70.4475403   2.3948400  14.9852009
  70.3677292   3.7987568  15.5452299  72.8512192  63.4528046  62.9904861
  72.2156677  63.7783012  62.3530197  73.6910019  63.4918480  62.5328064
  81.2149124  68.8136902  23.2458611  81.6014023  68.2765579  22.5542336
  80.3487396  68.4324188  23.3894062  49.7434196  56.3637199  63.3313370
  50.6485901  56.6335640  63.4865074  49.3101654  56.4812965  64.1767349
  46.8399124  27.6365376   8.3532925  46.5583916  28.1707363   9.0959959
  46.6246605  28.1636791   7.5838642  45.5183067  53.4192429  46.2712173
  45.0265541  54.1037521  46.7249298  45.4000626  53.6154022  45.3418236
  54.0956573  -0.0609025  67.1151581  53.9276733   0.2224234  68.0139008
  53.4762573   0.4415557  66.5858994  48.2468491  24.4844360  74.1343689
  47.4036827  24.0701656  74.3179016  48.2432060  24.6258545  73.1876831
   3.2171955  54.5865555  88.1492233   2.6500390  55.3379364  87.9760437
   2.7767868  54.1114082  88.8538513   7.6497321  43.8861504  85.1359100
   7.1228652  44.2671928  84.4334488   8.5508814  44.1195297  84.9129791
  34.5494766   7.6137533   7.3575230  34.1244888   6.8020840   7.0803771
  33.8909073   8.2920980   7.2079759  63.7154388  44.5192413  67.7012711
  63.4954605  43.6000824  67.8528900  63.0580482  44.8227272  67.0752029
  52.4052315  35.1755600   5.8408947  51.8034515  34.9212837   5.1412964
  51.9024773  35.7873001   6.3787112  20.2261868   2.4390998  65.1789627
  21.1694183   2.3264046  65.0612946  19.8338070   1.9297436  64.4698639
  32.7711906   0.5756190  71.6533661  32.6490898  -0.2970974  71.2796173
  32.5965919   1.1738834  70.9268494   5.5849419  40.5852928  48.8181000
   5.1773934  39.8863869  49.3296318   4.8698297  40.9473915  48.2949066
   5.2054601  67.6258545  67.3580246   5.3048368  67.1827393  66.5154037
   5.3845925  68.5465469  67.1670609  35.5053215  60.9520645  12.5632095
  35.1763878  61.2109566  11.7023907  36.4353104  60.7755623  12.4210892
  76.5402832  11.8134489   8.3002367  76.7545471  12.1778450   9.1590385
  76.2561569  10.9180708   8.4840870  74.6328888  48.7273827  54.8535385
  73.7724380  48.3080368  54.8555374  74.4432983  49.6634178  54.9177704
  24.8231316  22.9991493  67.7346115  24.6522064  23.9409637  67.7359924
  25.7739506  22.9284096  67.6499252  14.2869835  27.6441212  82.9326172
  14.6657820  28.5203781  82.8624802  13.7534504  27.6766815  83.7266617
  12.3620834  48.4023285  61.1287651  11.8844967  49.0836945  60.6556053
  12.5996952  48.8105469  61.9613075  49.6662483  58.4364395   3.4418550
  49.5467949  59.1645737   2.8321116  50.2190590  57.8152580   2.9677587
  76.1217728   7.0039706  62.7737427  76.2163467   6.9633031  61.8220940
  75.5700607   7.7710066  62.9270439  35.7584343  41.5378151  15.9520702
  36.6691246  41.6023178  15.6644592  35.5375175  40.6129532  15.8422661
  65.0671997  67.8945465  79.7955475  64.6067276  68.4455414  80.4284821
  65.0263977  68.3864517  78.9754257  42.3610306  67.2757874  28.2791061
  42.1510201  67.4408264  29.1982841  41.8069572  66.5339890  28.0362835
  46.9983063  23.5132923  81.3407288  47.6074295  22.8003120  81.1487274
  46.2824249  23.3911629  80.7171707  49.0708084   3.2321143  61.5178032
  49.6383286   3.4757082  60.7864914  48.6264267   2.4376674  61.2218132
  83.2790756  55.0510902  69.5133743  83.1174469  54.8671799  68.5880203
  83.9496384  55.7341347  69.5082474  32.2352943  10.6982965  78.4367065
  31.4467220  10.2376165  78.7233429  32.2127838  11.5295048  78.9108582
   2.3967676  21.3272400  52.9699783   2.6578817  20.7678928  52.2384186
   2.6770225  22.2053776  52.7119789   8.4861336  52.0088921  77.0359726
   8.2140512  52.1887054  76.1360474   8.8947849  51.1443062  76.9944229
  32.8004150  60.0512772  50.2862968  32.0776825  59.4282951  50.2102585
  32.4533577  60.7549973  50.8345337  37.6704521  36.1417580  71.6783295
  37.5492096  35.2592468  72.0286255  38.3092270  36.5466728  72.2650452
  56.1307678  22.3711071   4.4609299  56.0084267  23.3132172   4.3439136
  55.7582550  21.9811592   3.6701031  86.3306808  18.7298031  25.9308414
  87.0101089  18.0568199  25.8894672  86.2299576  19.0244293  25.0256996
  52.6340256   8.3421364  29.9402046  53.3294678   8.7058020  30.4882374
  51.9283905   8.1368513  30.5535297   8.7458382  57.8927879  26.3224220
   8.0279799  57.3645630  25.9732914   9.2347536  58.1736259  25.5489101
  21.6654320  31.1168098  11.9247322  21.0248775  31.6500835  12.3954134
  21.7420330  30.3181534  12.4467611  54.4473419  46.8197823  10.0737505
  54.9041595  47.2682419   9.3621092  53.9918480  46.0944252   9.6464138
  36.5899200  56.7223892  33.3213959  35.8955193  56.9218369  32.6934929
  37.1078796  57.5259399  33.3689423  69.4123611  21.4313622  80.4624863
  68.5114975  21.1575928  80.6348953  69.4112701  22.3746777  80.6249313
  65.4512787  66.3782959   6.2858610  65.6563721  67.2964096   6.1091437
  64.6047897  66.2361298   5.8622117  15.1482220   5.7617302  46.4825592
  14.2344084   5.5953350  46.7138367  15.6000977   4.9432592  46.6878548
  81.9731064  39.0849609  29.1182270  81.2369461  38.7479248  29.6288166
  82.6112061  39.3653603  29.7743073  68.7952957  38.0263977  70.9819107
  68.2308350  37.9723053  70.2107468  69.5887070  38.4602318  70.6680298
  63.3228149  12.9148970  82.4387436  62.6530342  12.4585962  81.9294128
  63.3976173  12.4062681  83.2461700  74.0811310  30.7484722  18.7560177
  74.2855530  31.5346146  19.2623978  74.8373032  30.1762466  18.8863773
  72.1362228  69.9567413  22.3088913  71.4656906  70.5829315  22.0359554
  72.8822784  70.5000992  22.5626450  56.1134148  27.7443771  88.1073685
  56.2638245  28.4929371  88.6846619  55.3104668  27.3431015  88.4397659
  22.4172211  29.6575718  75.3987808  22.8964062  30.3770237  74.9876785
  21.5432873  29.6991367  75.0105209  57.5430069  36.2448387  77.2834549
  56.7868729  36.6672592  76.8759613  57.6535721  36.7034607  78.1163254
  42.3393860  33.7641487  15.4047632  41.9262581  33.9475861  16.2485085
  41.6435852  33.3712349  14.8777800   2.9193439  17.3189354  46.7496490
   2.1361978  16.9397221  47.1485367   3.6245964  16.7169342  46.9872322
  41.3347397  16.1646862  83.7123337  42.1228409  15.9550562  83.2111511
  41.5633049  15.9534769  84.6175308  42.7116356  56.2111931  36.4723244
  42.0037231  55.6347237  36.1846199  43.4869690  55.6500282  36.4858322
  78.3793411  39.2426300   4.2317419  77.7900848  39.8682404   4.6531973
  78.8405304  39.7569313   3.5691457  69.9469604  21.0677376   8.7916555
  70.6740723  20.4610672   8.9312429  69.8335266  21.5039806   9.6360826
  82.3796616  33.0901337  45.0960236  82.5648804  32.8736382  44.1822090
  82.3417892  34.0464401  45.1126671   0.5812602  41.8624535  52.1359825
   0.0279904  42.1676407  51.4169655   0.0769236  41.1587372  52.5442200
  45.1645813  66.8574448  59.7430954  45.8421288  67.2496719  59.1923561
  45.3727722  65.9231873  59.7501297  13.0510941  26.5784817  66.6309128
  12.3421402  27.2212734  66.6100159  13.0605278  26.2035866  65.7502365
  40.4617004  33.9230499   5.8909307  40.1406937  33.6829796   6.7601571
  40.7127571  33.0908813   5.4900589  17.1106167  38.2668457  65.7399445
  17.1236668  39.2235031  65.7693863  17.8822880  38.0012741  66.2401733
   2.1959982   2.5568910  23.9233780   2.8205309   2.6387372  24.6441364
   1.5271219   3.2156658  24.1100655  25.6215210  29.6053848  81.5722504
  26.3900776  29.0389805  81.6410828  24.9456425  29.0464516  81.1888275
  12.2377176   6.0724812  29.6897945  12.7531681   6.4581523  28.9814148
  12.8891792   5.7656221  30.3204041  67.2728348  24.0619240  66.3032150
  66.4578857  23.8726749  66.7682800  67.8508911  24.4284534  66.9723511
  77.9275284  50.2296906  74.0081482  77.5861511  49.3438530  73.8857422
  77.7213593  50.4421692  74.9184113  57.2297363  13.7211752  18.2628117
  57.1023102  14.5362272  17.7773399  56.3592567  13.3245935  18.2977219
  84.9762192   8.2172804  34.7694016  84.8263855   7.3494835  35.1445160
  84.0984192   8.5708380  34.6255341  43.1506577  30.5821552  75.9431839
  43.2620468  31.4431000  76.3464203  42.2938118  30.2838459  76.2482452
  36.8704643  51.8828850  58.3134155  37.4945679  51.3270760  57.8467216
  37.0902443  51.7660675  59.2376900  -0.1161507   0.7053645  15.2970076
   0.7676712   0.7442448  14.9315224  -0.4184296   1.6135545  15.2899227
  30.1095142  39.7523422  17.9815979  30.0531940  39.3355370  17.1217537
  29.9320259  40.6774216  17.8114300  73.7182541  70.0623703  49.1545258
  74.5618134  69.7837219  49.5108910  73.7555847  69.8161316  48.2302933
  11.2240419   0.9623815  40.3852768  11.0834322   1.9030837  40.4927025
  11.9399796   0.7570220  40.9865189   5.7410374  -0.0216061  35.5704041
   5.7680783   0.8728417  35.2306023   6.2123485  -0.5399541  34.9181671
  10.0437937  62.2438278  43.3397903  10.1418867  61.6185875  42.6216812
   9.5125227  62.9498863  42.9717293  61.4936523   6.6306157   4.9363456
  61.9906654   6.9498043   4.1831322  62.1611671   6.3799586   5.5749617
  72.4846802  32.0463638   7.2517934  72.8714905  32.7348671   7.7926898
  72.6335220  32.3367081   6.3519173  80.1273041  37.2498245  78.9171066
  80.6903839  38.0238876  78.9153442  80.7357864  36.5110512  78.9310303
  72.1609039  59.3975182   8.4736032  73.0363159  59.7844048   8.4591541
  71.8059692  59.5755196   7.6026444  83.7160339  38.9359436  19.9131756
  83.1781769  39.2006416  19.1669369  83.9632492  38.0313339  19.7213421
  19.8180809  41.6661987  57.7800140  19.1085472  41.2195320  57.3181877
  20.3823395  42.0028381  57.0839386  56.5059700  13.2349396  58.9839325
  57.4045525  13.2010784  58.6558495  56.5411911  12.7811995  59.8260193
  20.5148144  55.6434669  16.6770573  21.3257771  55.3707886  16.2478542
  20.5377254  55.2097511  17.5300503  78.8423615  68.0043030  68.2283859
  79.4915009  68.7075119  68.2470169  79.3598251  67.2026138  68.1525421
  81.4030991   6.8440852  84.8405380  81.1094437   7.7550974  84.8478317
  81.0383606   6.4684420  85.6418381  64.8038177  44.8831062  19.5753860
  65.2812576  44.6533356  20.3725605  64.7063522  45.8342705  19.6203251
  71.6055679  19.5630817  13.7321806  70.8847122  19.6657238  14.3535175
  71.1830597  19.5614986  12.8732777  66.4706268  18.3055477  32.8523064
  66.5580826  17.6088276  32.2017937  65.5927048  18.1861687  33.2145653
  21.5980358  70.4821777  58.7711029  21.3142052  71.3477554  58.4770622
  22.1906796  70.1781235  58.0836754  23.4828720  34.7528572  26.7698784
  24.2122803  34.2402725  26.4213791  23.4597206  34.5338516  27.7013988
  40.2784081  39.1934395   5.7282786  39.9672394  39.5035439   6.5787144
  41.1756973  38.9035034   5.8927350  64.4596100  14.3767662  23.5676727
  64.8005142  14.7732611  22.7659187  63.5116196  14.4956942  23.5093555
  58.0632553  63.5216103  42.8855782  57.4279099  64.2285919  42.9984360
  58.0629539  63.3473015  41.9443817  14.6944876  12.1965303  17.5950890
  15.5766430  12.5677938  17.5810871  14.1141424  12.9577026  17.5880566
  49.4557419  25.9658012  26.3518353  48.7286758  26.5880470  26.3723316
  49.1239548  25.2264633  25.8423958  38.4144249  13.4264030  14.5886965
  38.8478203  12.9713516  13.8666658  39.1244392  13.6540184  15.1889496
  19.8059845  49.1988983  88.1614227  20.6673012  49.5971603  88.2869186
  19.9632797  48.4735413  87.5569839  85.4381332  46.4194641  51.6721001
  85.4005508  46.6264763  50.7383080  86.3644180  46.5023880  51.8987160
  70.8472214  17.6840839  43.2074127  70.7415848  18.6237373  43.0586624
  70.7835541  17.2948761  42.3352318  76.7071609  28.1718159  80.4361877
  76.8494644  27.4775372  81.0795822  76.6231155  28.9692478  80.9589386
   9.2693710  34.3842888  62.8571396   9.8574514  35.1383972  62.8984871
   9.1388817  34.1319122  63.7712021  44.5472221  23.6362896  35.0610733
  45.3371162  23.1000729  35.1301422  44.0048332  23.1818256  34.4164734
  28.5595531  67.4957428  39.7580032  29.1092205  66.8234863  39.3553085
  27.9858780  67.0118332  40.3521080  16.3360977  33.9119835  56.1948280
  16.1010971  34.6072235  56.8093567  15.7449389  33.1909714  56.4114037
  12.4593840  59.6120796  39.8364220  12.9546137  58.8955612  39.4394569
  13.1154222  60.1224861  40.3111076  18.9208145  32.8293190  17.1900616
  19.7448864  32.3971519  17.4144821  18.6223717  33.2177734  18.0124168
  63.5577812  59.4706459  40.7521629  64.0792618  59.1485176  41.4873619
  62.6657600  59.1834297  40.9471970   4.5391359  43.3867912  84.6454697
   4.5959692  44.3310852  84.4994888   5.1908102  43.0130806  84.0522614
  26.6267738  66.1752625  87.3085175  27.4021492  65.6397934  87.4767380
  26.6830578  66.3926010  86.3780212  85.9982452  35.0348969   0.4283819
  86.6600800  35.5188866   0.9223049  86.4991074  34.5305710  -0.2127293
  46.5761833  30.5986729  64.0140305  46.5769806  30.2414150  64.9020615
  46.0309448  29.9925270  63.5124969  59.8256035  35.6943741  53.6531143
  60.2170639  36.1698570  52.9203758  60.3620872  34.9065781  53.7413979
  18.2768021  53.3810844  80.3979568  17.6707554  53.9476776  80.8753586
  19.1390553  53.6022301  80.7498779  75.5795059  27.8227291  57.1519203
  75.9698563  26.9494209  57.1864090  75.1405258  27.9223995  57.9966660
  83.9428406  16.3188858  33.7667503  83.8210220  15.7316160  33.0207596
  84.7750397  16.7584267  33.5921593  14.5273886   0.9151114   6.4228806
  14.5182781   1.4976840   7.1823263  14.2261114   1.4623325   5.6976132
   7.4905939  15.6375504  10.9763575   8.1227140  15.3481102  10.3184204
   7.1882119  16.4887848  10.6598186  67.0465393  68.4544373  68.0021820
  67.4670944  68.1589737  67.1946716  67.7521896  68.8617477  68.5045624
  14.0026245  50.3266983   4.5504742  14.5680437  50.3263168   5.3228292
  14.6058998  50.2437134   3.8119593  68.5180206  34.6581039  62.7251549
  67.5718613  34.7121086  62.5906372  68.8931732  34.8385086  61.8632088
  67.1498947  46.7212105  73.3603516  67.4292755  47.0186920  72.4945068
  67.7642975  47.1360168  73.9658966  68.4544144  70.3611526  49.9901161
  68.4579391  70.1440735  49.0578613  67.7528229  71.0056000  50.0833206
  10.1479502  22.9665298  82.3731613  10.6614647  23.0619640  81.5710220
   9.9912443  22.0251083  82.4466476  12.6744690  62.6453972  34.1829376
  11.8903170  62.0966301  34.1968079  13.0957918  62.4400368  33.3483467
  77.0895462   1.8454318  26.5978222  77.7416153   1.2415323  26.2423820
  77.6034317   2.5093544  27.0575600  24.6895962  25.3905792   7.4181013
  24.0131817  26.0218811   7.6633592  25.4546947  25.6472073   7.9328828
  58.5338936  66.7165070  42.1541786  58.6089287  66.3050156  41.2932053
  57.7528610  66.3211441  42.5413513  78.9059601  10.4572506  19.8424473
  78.2929077   9.7359800  19.9844799  78.3499146  11.2325859  19.7656040
  68.1347351  16.6017609  44.4452858  67.4552078  17.0097294  43.9085960
  68.5005341  15.9152746  43.8874702  38.8987045  67.8311462  54.8606796
  39.2002068  67.7646103  53.9546432  38.0701256  67.3520584  54.8731766
  56.0226250  26.0386162  60.1548576  56.3064575  26.3202553  59.2851715
  56.3484154  25.1420918  60.2344627  52.1908188  16.6096210  20.8288250
  52.8641205  16.5095196  20.1558628  52.5689049  16.2026024  21.6083221
  75.4343567  52.6849670  26.1779804  75.9060745  52.7084084  25.3454151
  74.6959000  53.2807655  26.0517235  82.1860123  56.4287605  36.5845490
  82.3240967  57.1141090  35.9307442  82.9575195  56.4772949  37.1490326
  59.5562668  56.9848175  21.9391403  59.3696365  57.8329620  21.5365829
  60.5048218  56.9841461  22.0674858  74.0340042  55.7974510  69.7241974
  74.8200760  55.2543869  69.6658783  73.8913803  56.1091423  68.8304749
  61.0415421   8.8772650  41.3133812  60.2016563   8.7344475  40.8770027
  61.5106430   9.4816103  40.7381020  18.7695732  63.3845863  87.7155457
  19.4266281  62.8261642  88.1310883  18.8733025  63.2197952  86.7783585
  62.2375793  29.4796219  54.9462357  62.5781136  30.1280499  55.5625191
  61.2873840  29.5887222  54.9844818  24.8193798  49.7077179  77.7215729
  24.9524345  50.6533012  77.6552734  23.9236488  49.5697098  77.4135971
  30.0882835  29.4618187  65.1478195  30.2773132  30.1551476  65.7801132
  30.8265076  29.4851437  64.5389633  48.7491150  16.5050240  58.1328316
  48.7267494  16.1313076  57.2518845  47.8823700  16.8939095  58.2501068
  44.3123093  57.5760727  38.2141151  43.8522758  56.9983864  37.6051140
  45.1613235  57.1549950  38.3486519  74.3054123  62.7566986   2.6525714
  75.2005081  62.7638016   2.3134737  73.7919388  62.3336182   1.9644059
  50.5347023  54.8962288  84.8466110  49.9119987  54.3421249  85.3171921
  50.0803070  55.7322502  84.7425537  62.9084663   6.2265592  60.9816017
  62.1406021   6.0616512  61.5287933  63.1806908   5.3587856  60.6831169
   8.3762245  31.3114109  48.3692131   8.8963661  30.7908306  48.9813271
   8.6773758  32.2100906  48.5030670  13.8150635  67.0492783  18.5998974
  13.9964085  67.7202911  17.9418049  12.8611536  66.9701309  18.6047077
  35.6969757  15.0465746  78.4570541  36.5463600  15.2614031  78.0715408
  35.8417244  15.1021214  79.4016190   8.1748953  59.6193695  82.1336136
   8.5504560  58.7934875  82.4387436   7.8406506  59.4217339  81.2587128
  27.9693451  69.4285355  13.5824986  28.9223022  69.3449097  13.6158285
  27.6577625  68.5436554  13.3923864  24.7835808  49.1771545  65.4843674
  25.0028896  48.2471008  65.4283752  25.6244926  49.6137657  65.6202774
  61.4016533  47.0794029  11.5375557  61.5248032  46.1558571  11.7569523
  60.5000992  47.1320572  11.2202940  58.5779762  14.3283930  68.1883240
  59.3094254  14.3467035  67.5711670  58.3673477  15.2501364  68.3375168
  48.2887802  54.2165833  52.2438278  49.1545410  54.0779343  52.6278458
  48.3882294  55.0023499  51.7063179  67.0087967  37.6397362  20.1454697
  66.3305893  38.2209435  19.8012924  66.5757751  36.7903290  20.2304859
  56.8642731  21.5754261  43.5809975  56.8641052  22.2644463  42.9165573
  57.6749535  21.0913486  43.4238548   7.6874032  33.3191528   8.5378504
   6.9326625  33.7996750   8.8779907   8.1457224  33.9527016   7.9857731
  62.6632309   2.8222885  69.6008606  63.1776276   2.0318902  69.7648697
  63.0068359   3.4647760  70.2216492  72.0488205  64.9536285  43.8198013
  72.2583694  64.3412170  44.5249825  72.7072449  64.7789536  43.1473465
  54.1121712  43.9874725  79.8645401  54.7985497  44.6507607  79.9363861
  54.0547905  43.8027534  78.9270935  68.3325882  44.6956177  19.6078911
  67.3996048  44.5056915  19.7063751  68.6602020  43.9986229  19.0394783
  47.1843910  36.4244080  19.6354790  47.1756096  36.0515900  18.7539120
  46.3026962  36.7773209  19.7550716  64.9279556  23.0618057  46.6772728
  65.1442184  23.9682503  46.8959503  64.7839203  23.0715294  45.7310219
  40.4243317  19.0789185  73.5941544  39.9994736  19.2542572  72.7545242
  41.2993355  19.4561920  73.5032349  44.0284996  36.0552788  57.9044800
  44.6879387  36.4218788  57.3154335  43.1933060  36.2467155  57.4778214
  83.3651352  49.7077904  72.3176346  84.0635681  50.2235107  72.7206955
  82.7165909  49.5980644  73.0130386  83.5943680  68.9652481  65.4125366
  83.3756180  68.8342972  66.3351593  82.8465881  68.6051941  64.9356461
  79.1508484  48.2239914  40.0128822  79.3409805  47.3917084  39.5800018
  78.8576126  47.9763794  40.8897705  31.3499737  54.4793816  47.4140091
  31.7168694  54.5162506  46.5306854  30.4368591  54.2235489  47.2835999
  77.8252640  36.7675476  67.6843643  78.2000198  37.3633652  67.0356827
  77.6056442  37.3297424  68.4272919  33.0203171  15.2397327  32.4890900
  32.8140564  14.3317204  32.7108994  32.6310730  15.7535038  33.1967316
  23.4284210  57.5883255  39.4103813  23.1001205  58.4874039  39.3998718
  23.2115250  57.2440033  38.5439911  40.7923775  42.7549095  88.5994186
  41.1622047  42.3646240  89.3913345  40.8704529  42.0696144  87.9357147
  31.0124245  57.7995186  11.6555500  30.5386925  57.4527092  10.8995523
  31.5846863  58.4744606  11.2905817  84.2214890  51.2294540  63.0270576
  83.2785034  51.3673592  63.1164474  84.3014221  50.3447876  62.6703911
  51.4740257   2.7366071  23.8408909  51.6089554   2.3295105  24.6966343
  52.3576660   2.9064796  23.5144653  39.7783127  38.6489296  83.9024200
  39.6367645  39.5581627  83.6388168  40.1490364  38.2294006  83.1260223
   9.4389305  12.7302904  77.8882370  10.0220909  13.3902187  77.5131989
   9.4192429  12.9319344  78.8237457  66.9457016  34.4230537  50.3677101
  67.8447495  34.2958946  50.6706429  66.5854950  35.0850563  50.9578285
  79.4219818  69.3670654  76.9092331  78.6831360  68.9935760  76.4287796
  80.1880646  69.1475296  76.3789978  49.9503212  69.1417618  36.7626648
  49.4153671  68.4909286  37.2170525  50.8523407  68.8961029  36.9682007
  46.0366402  48.0561256  30.8990707  45.1013718  48.2593765  30.8851089
  46.4203453  48.6494408  30.2533302  85.8212662  26.9671173   5.8552032
  85.2147446  27.2300625   6.5474610  85.2745667  26.8936615   5.0729303
  79.8186722  23.0777378  77.7383423  79.3461456  22.3038940  77.4315567
  80.3363266  23.3572578  76.9832687  75.7458191  35.5119438  61.9837532
  76.1200790  35.2484550  62.8244286  76.0103378  34.8207855  61.3766594
  41.4604416   3.1771467  11.4483452  40.7732124   2.9675102  10.8158894
  41.3648071   4.1168718  11.6032724  32.8336754  58.2306137  61.0062065
  33.3536453  57.9546432  60.2514153  32.4599800  57.4189034  61.3492928
  74.5300369  69.0430984  41.0465698  74.9817200  69.4099274  41.8066025
  75.0880661  69.2713699  40.3031120  85.1216278  45.5374680   0.6462187
  84.2120514  45.8015900   0.7845532  85.1532745  45.2575760  -0.2685990
  23.0135880   2.5539005   1.3883015  22.4444599   3.3187349   1.4740503
  23.8108559   2.7945015   1.8602219  44.3193321  42.7183380  69.4401398
  44.3682709  43.4824791  68.8657455  43.4575958  42.7829399  69.8517990
  77.2258301  50.0656738  63.9643631  77.5849991  50.9509659  63.9053345
  77.2467880  49.8605309  64.8990860  16.7063236  31.8449860  51.9687729
  16.1955204  31.2144547  52.4764557  17.0445137  32.4592400  52.6203499
  28.8713684  43.1338463  67.8549347  28.0521336  43.3673553  67.4183960
  29.5517197  43.5511894  67.3265533  46.4810295  28.6113968  11.3026257
  45.7952805  29.2532501  11.4870195  46.1075935  27.7752151  11.5811510
  81.5871353  64.1637955  11.5117836  80.9875336  64.8656769  11.7648935
  82.1218796  64.0129013  12.2912140  85.3435364  47.9684486  15.8634787
  85.7132568  47.8093338  16.7319374  85.7439346  47.3006973  15.3066893
  67.8366013  47.6756325  18.1176300  68.5829544  47.6317482  18.7153473
  67.0736847  47.5244675  18.6756058  17.6517830  55.1095734  63.4218750
  17.7698307  55.5461578  64.2654953  17.3792839  54.2203827  63.6484184
  31.9187469  29.1092453   9.4371586  31.6679344  28.3308487   8.9397411
  32.8267517  29.2737427   9.1828003  78.5792542  26.5181484  49.8854218
  78.7831802  25.8321342  49.2497902  77.6338196  26.6449451  49.8059387
  23.7340221  20.1590519  88.5045395  23.5977936  20.1446552  89.4518890
  22.9094009  20.4904385  88.1489944  50.9158516   8.7391729   3.4561257
  51.7282257   8.2479162   3.5783803  51.1239815   9.6243963   3.7549458
  -0.2083031  51.9417496  32.9070396   0.0088983  52.4355087  33.6977730
   0.6234166  51.8585091  32.4406242  22.4157772  28.7754326  24.8464737
  21.5108814  29.0828152  24.7925072  22.8219318  29.0829773  24.0361118
  13.5824223  64.6999893  84.9035645  13.5672665  64.9731674  85.8208313
  13.2029381  63.8212471  84.9090576  74.7154160  39.8224831  72.9423752
  74.5249252  38.8844566  72.9498672  73.9548645  40.2179375  72.5164413
  74.8869629   5.0453844  56.6737900  75.4297791   5.3706956  55.9556274
  75.3783722   4.3046904  57.0289307  76.4694214  29.5018215  68.7376099
  76.2804337  30.4117832  68.5085144  76.6443710  29.0750446  67.8988724
  52.3847160  24.2459850  54.9795570  52.3196983  23.6166706  54.2612457
  53.0037041  23.8478012  55.5915489  30.6811275  45.5012741  56.9665108
  30.0998821  44.8396606  57.3415451  30.1026993  46.2318153  56.7475052
  52.3328781  57.2328377  73.8889694  52.7846451  56.4299583  73.6291199
  51.7343864  57.4160118  73.1647491  12.7076998  31.8984966  14.2589970
  12.3655424  31.0060596  14.2068768  12.0338049  32.3860931  14.7326479
  75.3795853  20.7671452   7.1122489  75.9992599  21.4785309   7.2739806
  74.5694122  21.2085667   6.8572927   3.5859044  22.0112801  18.9489975
   4.2198834  22.1258678  19.6569328   3.2984040  21.1018600  19.0298195
  62.5484276  53.4044609   1.7300593  62.4038124  53.9854431   2.4769049
  61.9155731  53.6959953   1.0737567   2.6921144  27.5012951  18.6704254
   2.6469908  27.5459118  17.7153320   3.0090179  26.6169662  18.8541813
  65.0640259  69.1985550  77.4251251  65.1317520  69.1318436  76.4726562
  65.9307938  69.4909439  77.7069855  23.2505550  32.4865303  84.5641403
  22.9242401  33.3860359  84.5388412  22.8434963  32.1058769  85.3423691
  31.5401382   7.3172169  33.5956459  32.1068192   8.0866003  33.5395050
  30.9604263   7.5001740  34.3350334  33.4223557  19.5566540   3.7054152
  34.0163612  19.8251019   4.4063621  32.8637619  18.8909245   4.1066742
  24.5473061  40.9346733   8.9024897  24.8989010  41.1114044   9.7750597
  25.0840187  40.2156181   8.5691242  34.8008957  35.5043602  10.7597675
  35.4331627  34.8576126  11.0731268  35.1911697  35.8517914   9.9577637
  33.3578262  41.9813957  78.9799347  34.3109970  41.9156876  78.9217758
  33.1472511  42.8051147  78.5401917  57.0058784  50.3067513  65.6689682
  57.1314125  51.0073204  65.0289078  57.8226776  49.8084221  65.6419067
  59.4933357   7.0900888  17.0928097  60.4219818   7.3026485  17.1859112
  59.4778976   6.3384776  16.5002937  60.2655830  20.6240501  24.8025131
  59.4741783  20.0975075  24.9150467  60.0370979  21.4802265  25.1644344
  44.0387535  71.1889114  11.6141949  44.0111198  70.5155106  12.2938986
  44.0178185  70.6999207  10.7915897  15.7349024  39.6610870  25.0307388
  16.5026398  39.9382401  24.5307426  15.9126711  39.9539146  25.9245415
  29.8763103  68.4164658  83.7747116  30.3931770  67.8674850  84.3643799
  29.2985172  67.8027954  83.3210602  23.7481289   1.8719525  79.4877853
  23.3814106   2.2581775  78.6924362  22.9978027   1.4728384  79.9281769
  82.4656448   5.2066040  73.8924942  82.7185745   5.0490890  72.9828568
  82.9124069   6.0197496  74.1279449  55.1991653  70.3219452  20.9574051
  55.1031952  71.2732620  21.0022678  55.7312241  70.0986099  21.7211227
  25.1672573  35.5053596  82.8959961  25.6684189  36.2202301  83.2884598
  24.4894104  35.9427299  82.3807678  18.8608494  49.6771507  54.3613968
  19.4320564  48.9341354  54.5560379  19.4366989  50.4403877  54.4071503
  59.6992073  34.5810699  85.0294037  59.5059357  33.8897743  85.6626434
  60.1470985  34.1312256  84.3129807   0.7546756  25.7791100  10.7027378
   1.6590072  25.4664593  10.6769390   0.5908839  26.1114559   9.8201571
  36.8124199  70.1563568  24.5983639  36.6461525  70.9516449  25.1044331
  36.7193947  70.4294205  23.6856670  68.2943344  57.4898300   8.9489059
  68.6714325  56.8381271   8.3578835  68.2563248  58.2919998   8.4280300
  50.5389519  51.7912636  48.5137863  49.7793884  52.2929153  48.2177544
  50.1660805  51.0051575  48.9128304  12.2946920  38.1669731  55.6014481
  12.3080196  38.5385208  54.7193985  13.1889181  38.2815056  55.9231186
  21.3671036  13.0552559  81.7548294  20.7941303  12.5101576  81.2155685
  20.9027557  13.8888321  81.8307419  12.8767786  15.8960066  82.1737442
  13.2088528  15.5684299  81.3378906  12.7064056  15.1077013  82.6892853
   8.6055737   0.7557188  49.9836617   7.9649105   0.3439230  49.4038277
   9.3296623   0.1308988  50.0227432  75.6453552  32.9207497  43.3238525
  75.7534561  32.3767128  44.1039619  76.4939194  33.3490601  43.2110786
  67.2511826  40.4399147  13.7406359  67.0531006  40.2099991  12.8328180
  66.7670593  39.7988892  14.2611570  34.5186348  53.1893311   7.8443298
  35.4165497  53.3710938   8.1217165  34.2416191  52.4567261   8.3945885
   8.5469971   1.8201715  46.7234154   9.3439703   1.7767045  46.1950417
   8.3625164   0.9096502  46.9539566  82.9399109  49.7492867  46.1515694
  82.7756195  48.8355560  46.3846703  82.0957718  50.1834183  46.2748413
  74.1901703  10.6231699  59.9228630  73.9101639  11.4455853  59.5210419
  74.1858597  10.8023424  60.8631363  52.4578133  64.2114716  88.3608856
  52.5898018  63.3473625  87.9708481  53.2527084  64.6973724  88.1411819
  30.4782791  44.1588631  37.9543877  30.0848484  44.9319687  38.3590508
  30.5794868  44.3962860  37.0326385  62.2085304  52.8835144  26.3336773
  61.7297897  53.4312019  26.9558334  63.1215668  52.9438095  26.6146736
   2.5707562  31.5976238  50.1492043   3.0756352  32.0281448  49.4592896
   1.6884152  31.9580021  50.0606956  22.2426300  41.1325912  15.5998859
  21.6614704  40.9942207  16.3477745  23.1025810  41.2882500  15.9903803
  46.8474884  12.7521276   1.3691427  46.5748215  13.6605844   1.2403377
  46.7297287  12.5973043   2.3063695  33.5453682  39.3408890  83.0243149
  34.1704750  40.0274277  82.7916336  32.7135124  39.6399269  82.6571350
   3.5571468  68.6090622  15.2034254   3.9913299  69.3105087  15.6889000
   2.7176845  68.4936905  15.6486502  16.0248184  42.4758453  68.1365967
  15.7455835  41.5741768  68.2955093  16.7417355  42.3971710  67.5072556
  51.3984261  17.9243450  61.7453537  51.3627243  18.1122952  60.8074684
  52.2084198  17.4272041  61.8593407  58.3293457  25.0724621  77.2710190
  59.2799950  25.0417480  77.1635361  58.1220665  24.2969055  77.7923431
  83.6022339  29.5928402  56.1692123  84.5337524  29.4005623  56.2765923
  83.2978821  29.8036709  57.0519104  28.0943737  47.3886108  50.6014938
  28.4521675  46.8962364  49.8627205  28.2564983  46.8306732  51.3621902
  68.7198486  10.6970873  85.6342773  68.7884979  11.6466055  85.5346069
  68.6767578  10.5580597  86.5803452  77.3721237  70.4035339  65.3153152
  76.5507584  70.0391006  64.9854889  78.0488968  69.8242722  64.9650955
  55.5456505  55.5388641  59.1804008  54.9581490  55.2213287  58.4946556
  56.4235535  55.4177628  58.8186684  45.2651482  11.8700361  49.4130440
  44.5417709  11.3491545  49.7618103  45.4408722  12.5210323  50.0924225
  76.5235291  47.0505104  53.5188446  76.0555038  47.7633514  53.9536324
  76.0070190  46.2692337  53.7164612  77.5034485  16.3948689  88.6524658
  77.2394104  15.5550880  89.0283432  78.4588394  16.3938122  88.7112808
  34.3726959  15.5504656  11.3865204  33.6163101  16.0569000  11.6825514
  34.7068748  15.1328602  12.1803484  17.5079651  10.5458450  68.0340195
  17.2102985  10.4569883  67.1286316  16.7634964  10.2547369  68.5605698
  31.0336285  69.9947510  22.2816143  30.5536919  70.6567612  22.7792473
  30.5260124  69.1918411  22.3994675  55.4817886  57.9876404   3.3445196
  55.9390945  58.6867180   3.8118472  55.4037323  57.2817459   3.9862769
  28.2027702  48.7916794  28.8235950  29.0598793  49.1014519  29.1162338
  28.0869389  49.1879196  27.9599915  10.1370745  45.3637352  14.1864166
  10.3684492  44.7644157  13.4768295  10.9040899  45.3643837  14.7590590
  81.2757263  55.9425659  49.8286400  80.6186142  56.5427513  50.1810875
  81.1875076  56.0217705  48.8788109  54.0822601  48.8531799  35.6557846
  54.7143593  48.2381134  36.0277748  54.3147240  49.6979408  36.0412254
  63.1898384  22.1402016  56.1501999  62.9265442  21.3040695  56.5346413
  63.1725655  22.7564869  56.8824081  68.2513199   2.1956897  48.0690765
  67.9505463   1.5267684  47.4540062  68.9990311   2.6037219  47.6324234
   1.1655772  48.0907516  81.4597092   0.3130636  48.5147018  81.3611374
   1.6814258  48.7079239  81.9785843   2.9876037  14.8895159  56.6049271
   2.3361342  14.9669828  55.9079208   2.5722237  14.3283205  57.2597198
  11.6015463  56.4569054  38.5002480  11.4918823  55.5060692  38.4895363
  10.7526674  56.7990837  38.2199783  21.6570930  58.0982361  34.1341515
  21.7482967  59.0251312  33.9132957  21.3368702  57.6906586  33.3294334
  43.2887344  36.8539848  80.0159225  43.5304756  37.1059532  80.9071579
  43.4755058  35.9161606  79.9731598  73.1864319  32.6624680  48.2286835
  73.0798187  33.5893974  48.4423714  72.7972641  32.1993561  48.9705124
  63.4531364  30.3888321  64.2614136  62.6169090  29.9247799  64.3015823
  63.8015671  30.1799812  63.3946915  48.7041321  11.1391191  32.4613647
  48.6382942  10.1910286  32.3472519  47.9678764  11.3635693  33.0303841
   0.5498155  14.9413967   0.4273446  -0.2219824  14.4548120   0.7168186
   0.4408577  15.8124323   0.8089960   1.5057455  49.6238365  30.3406525
   1.1618962  49.2239532  31.1394596   1.6965377  50.5284576  30.5886269
  16.7111397  10.0404463  18.8418236  16.6183586   9.4717751  18.0774689
  17.0526199  10.8621149  18.4890003  45.5473213  68.0488281  80.5876694
  44.9948578  67.2947464  80.7935333  46.4423218  67.7187958  80.6669464
  86.8835907  71.1902618  49.7552032  86.6655045  70.3241272  50.0993996
  86.7314148  71.7850952  50.4895439  44.7729530  64.6995773  44.5536804
  45.6423416  65.0819702  44.4346581  44.4811592  64.4874725  43.6670609
  29.4253712   4.1196766  60.3020096  29.6249676   4.7585773  59.6177597
  29.1162300   3.3484402  59.8267670  47.2583084  49.6790161  72.2630920
  47.7969933  49.1869240  72.8826828  46.6196251  49.0421677  71.9425583
  49.7230492  13.6890717  66.9850998  50.5285873  13.7689972  67.4959335
  49.4176941  12.7983541  67.1571808  39.0664215  69.3048477  22.4490204
  39.1128387  68.4303360  22.0626163  38.2926483  69.2772598  23.0118237
  46.3839035  42.2730827   9.3594370  46.7776108  41.6156578   9.9330406
  47.1256142  42.7861214   9.0386734  46.4042511   9.0151834  63.1583633
  45.5672035   9.3175497  62.8060074  46.8814011   9.8188076  63.3651199
  62.4784889  41.5341644  50.7650528  62.4579887  41.5799599  51.7209358
  63.3918457  41.7067528  50.5365295  46.8976898  23.9453640  69.0847168
  46.4976540  24.6168766  68.5322037  47.3439140  23.3635254  68.4694214
  16.9954128   0.3899057  61.9073563  17.0524807   0.4496842  60.9537315
  16.1961384  -0.1115176  62.0685005  71.7026291  15.0986576  38.6225777
  72.3224869  15.6523228  39.0974045  72.2207108  14.7081327  37.9187889
  72.1823273  23.5762959  87.1184540  71.4142761  23.2476654  87.5857010
  72.8629608  23.6363106  87.7888031  24.3873978   0.9185402  87.6617508
  24.2691383   1.8681740  87.6407166  23.4974384   0.5667689  87.6832581
  46.6301956  14.6989727  73.0764923  47.4629669  14.9582119  73.4708557
  46.6621170  13.7425146  73.0564804  48.3992195  52.8164597  27.9442177
  47.9381561  51.9798698  28.0056210  48.7773323  52.8175735  27.0648651
  70.6617966   5.7247567  86.6140594  69.7569427   5.9692001  86.8082809
  70.9567947   5.2577553  87.3957977  54.6676407  36.0649261  59.5810394
  55.3070984  36.4599495  58.9883499  54.2649307  36.8087540  60.0291214
  49.4953842  57.2945518  84.2946548  48.9961357  57.0628242  83.5115280
  49.9586143  58.0970688  84.0546265  79.1050339  16.8988304  71.0580902
  79.0531387  17.0537815  72.0012360  79.2735748  15.9599495  70.9785309
  68.4447708  42.6683807  64.8151321  69.2203369  42.9127846  65.3201065
  68.2428207  43.4460754  64.2948990  51.6703529  58.4492607  86.5169144
  52.1979713  58.6414413  85.7417297  51.4536438  59.3087425  86.8782425
  73.3567810  30.9684982  40.1547623  72.6966248  30.4423065  40.6059303
  74.1561737  30.8388100  40.6650429  71.9701004  10.9598894  16.7535915
  71.5814438  10.2109661  16.3016033  71.5721283  11.7241306  16.3367157
  82.5066681  25.7460442  41.9063873  83.0827637  26.2692242  42.4637260
  81.6917725  26.2467003  41.8673897  73.6645966  16.1252937   4.2479949
  74.0662231  16.8625221   4.7077961  73.1561432  15.6719236   4.9204292
  15.4741163  45.0901222  27.8464565  15.3152218  44.2408333  27.4345169
  15.8258543  45.6355286  27.1428661  33.2542496  53.0260811  48.9855385
  32.6704636  53.4068451  48.3294563  33.7942924  53.7594528  49.2800636
  54.1961937  33.5578003  47.0239105  54.0921631  33.3678131  47.9562798
  53.6217155  32.9297905  46.5859528  72.5299454  64.5373535  65.3813934
  72.4266891  64.1009674  64.5357361  72.3944092  65.4654083  65.1901398
  60.2167015  16.2040787  86.4838104  59.7897377  17.0260506  86.2423630
  59.6885109  15.8627691  87.2054443   6.1818690  61.2516022  43.2153130
   7.0080171  60.8423767  42.9579315   5.7459650  61.4526711  42.3871880
  16.6562843  63.0163841  37.9127693  16.2769985  63.2312355  37.0605888
  16.2741070  63.6563835  38.5132484  69.9047241  64.6442642   7.7916942
  70.4615860  64.4815369   8.5530481  69.6143036  65.5502853   7.8966308
  44.3866463  50.1400871   5.8284578  44.1064186  49.7494698   5.0007372
  44.8591728  49.4385376   6.2765388  63.1064682  17.1373577  16.2431374
  63.4574432  17.6837196  15.5399046  62.7993469  16.3459053  15.8009672
  45.0073242  60.8555489  32.4416733  44.3115120  61.2643814  32.9563904
  45.8124542  61.2629662  32.7610626  22.6996880  14.3542461  74.6932983
  22.1616879  14.4053850  75.4833450  23.5206566  13.9598246  74.9877014
  23.8251057  45.9329262  52.2443275  23.6095924  45.1682587  52.7782478
  24.3346825  45.5798798  51.5149994  71.7934723  35.2341194  32.5404854
  70.8868561  35.5404472  32.5616989  71.8733139  34.7801208  31.7015915
  63.5565681  20.8984222  67.2992554  63.6342812  20.0895061  66.7934418
  62.7118683  20.8231220  67.7431488  61.1904945  59.0189476  62.2310562
  62.0360298  59.1679153  61.8078384  61.3608665  58.3262672  62.8693352
  29.1119137  63.3236809  20.6128063  28.7366314  63.2986145  19.7325974
  28.8208122  64.1611633  20.9735298  16.9089241  55.0119514  44.0179863
  16.2283478  55.2471085  43.3873177  17.6805725  55.5001450  43.7308311
  30.6160679  24.7269020  81.8876495  29.9961948  25.2741299  82.3698654
  30.2126827  24.6088295  81.0276642  68.2639236  28.0517426  23.0858326
  68.9580765  28.5763721  23.4847641  68.2900620  27.2201996  23.5592079
  34.9759750  46.7482910  75.0766373  35.1239166  45.8326759  74.8400116
  35.1237373  46.7782707  76.0218887  43.4081268  34.1087265  80.3125229
  42.5800629  34.1080437  80.7926712  44.0188408  33.6477356  80.8876343
  11.2841940   0.7593616  82.5280991  11.6056538   1.4233575  83.1380234
  11.0040426   0.0353543  83.0880585  16.7144032  63.1854095  61.5838890
  17.3349495  62.5218277  61.2825356  16.1774197  62.7332344  62.2345963
  17.2793446  37.0120773  69.6943130  17.6973171  36.2978516  70.1753693
  16.6749535  36.5752029  69.0942459  25.1228924  12.5597858  65.4690857
  25.1915550  11.6600733  65.1496582  25.1518745  12.4783630  66.4223785
   7.6629963  46.0150986  77.4856949   6.9974527  46.6481285  77.2163315
   8.4634275  46.5324020  77.5748138  53.9918251  21.8325539  56.6117592
  54.5687332  21.1102066  56.8599968  53.7775307  21.6634979  55.6942978
  82.1909332  31.2945232  82.4609375  82.0837479  30.5123634  83.0022049
  82.0788803  30.9817734  81.5632401  80.8134918  31.4532852  39.7480202
  80.4136047  32.1744156  39.2619171  81.7460175  31.5124836  39.5403481
  22.7446365  57.4480438   8.6238642  22.2182083  57.2428474   9.3965216
  23.3036079  56.6802979   8.5040941   5.2994471   2.8346786   5.5720425
   5.5370684   2.8970356   4.6469045   6.1377282   2.8050935   6.0331726
  40.8175926  39.5031815   0.5648295  41.5300789  39.2004433   0.0018527
  41.1906128  40.2408485   1.0474646  43.9141083  20.7561836   7.9037800
  43.8740501  19.8178864   7.7187867  43.1732559  20.9169292   8.4881897
  67.0635834  35.4726906  59.1343880  66.2005234  35.5263786  58.7239380
  66.8807907  35.2592087  60.0493965  54.7989044  41.9579239  20.7198601
  54.8710022  41.9998474  19.7663002  54.6035690  41.0393639  20.9051323
   7.4327855  55.6140251  64.0715561   7.9316554  54.8740921  64.4177628
   8.0507526  56.0751038  63.5043221  86.5265121  33.9935379  19.7680683
  87.1339035  33.6129913  19.1336422  85.8582611  34.4216232  19.2328873
  80.6945114  43.3251038  65.1487350  80.2294998  43.1627884  64.3279724
  80.8633347  42.4528313  65.5049133  85.3363571  32.4707298  31.4280472
  86.0577240  32.0105896  30.9989376  84.5468140  32.0624886  31.0728073
  41.0720978  63.8536720  71.2289963  40.7483101  63.1012611  71.7242508
  40.3017616  64.4080811  71.1047287  42.9744682   6.4419985  24.4235535
  43.6894493   6.4630694  23.7874775  42.1817284   6.5402088  23.8961582
  19.0205231  21.9660034  10.6121483  19.7115002  21.7086964  11.2225370
  18.9292011  22.9104805  10.7380695   2.3322098  24.2069035  75.6270523
   2.1731308  24.9564037  76.2007904   3.2858560  24.1454945  75.5720978
  57.1177216  25.7935162  81.5147324  57.7714653  26.4843521  81.4070511
  56.2772713  26.2439556  81.4311905  32.6129837  42.0869141  86.9366760
  33.2784309  42.5978050  86.4758072  31.7805252  42.4529495  86.6379013
  36.8007240  59.8790550  78.2822495  36.3490372  59.1471443  77.8621063
  36.3178177  60.0231476  79.0960541  50.4498787  45.4385567  63.1206398
  50.9109077  44.7963943  62.5809021  50.4952507  45.0823669  64.0079422
  71.1751404  62.5488510  82.4704208  70.5606918  61.9479141  82.0490417
  71.0320740  63.3861008  82.0290833  81.3217392  48.1995544  42.9952507
  82.0169373  47.5417900  43.0117874  80.5706940  47.7447281  42.6140671
  55.1282387  46.1133728  77.3024979  55.5807762  46.3784866  78.1032181
  54.2153778  46.3605118  77.4502716  67.7615585  59.6458435   4.3424382
  68.5707779  59.4961472   3.8535781  67.7653580  60.5844231   4.5302916
  66.4017334  44.4593124  67.1132126  66.7802505  43.6174164  66.8598938
  65.4862289  44.2608261  67.3099213  29.9157467  54.2963333  82.6168900
  30.5680885  53.8097382  83.1207809  30.3729382  55.0887108  82.3352051
  27.3442059  71.3234253  54.4702225  28.1357841  71.0135574  54.9102402
  27.2337971  70.7282867  53.7287064  75.0771561  40.9569511  87.8625717
  75.1681366  41.3133392  88.7462769  75.6345825  40.1788139  87.8595581
  67.3704300  33.2907295   8.9384880  67.5644226  32.4459114   9.3445425
  66.6682739  33.1016846   8.3160200  41.6646461  28.0141430  80.9530869
  42.5292206  27.8346004  81.3225632  41.6418839  27.5089817  80.1403656
  10.3824520  20.1785889  19.3532200   9.4753857  19.9643345  19.5712948
  10.5404396  21.0185108  19.7842655  70.2828369  40.8816261  41.9048767
  69.8811798  41.6769257  41.5550079  69.5432281  40.3080368  42.1053925
  74.6291046  40.9853592  23.0994091  73.7431107  40.8899193  23.4489098
  74.7018127  40.2958488  22.4394703  10.6218796  40.5812874  74.9014053
  10.8431597  40.3595581  75.8058929  11.4627075  40.5886574  74.4440308
  53.7835884  40.8892517  73.9113464  53.1330414  40.5588608  74.5309143
  54.5883751  40.9609642  74.4245758  29.5067768  62.9201546  45.3417168
  28.5713959  63.0949631  45.2380943  29.7816448  62.5757408  44.4919739
  54.3832359   8.6659365  88.1156464  53.9337196   8.0794048  87.5072479
  54.8349380   9.2946119  87.5526581   0.9647920  56.7901573  15.1534081
   0.9001659  56.7721901  16.1082554   1.3334689  57.6508102  14.9544535
  44.0075569  30.2154408  69.2285538  44.5026512  31.0320759  69.1636124
  44.2604485  29.8487606  70.0757980  41.3720932  56.8764954   7.0251627
  42.0394516  56.9597054   7.7062931  40.6964302  56.3239250   7.4180779
  81.2763290  11.5916567  79.7730713  82.1226807  11.1570711  79.6679382
  81.1709442  12.1073656  78.9735870  24.9556503  28.4032841  14.7386885
  24.1707630  28.2823544  14.2043104  25.1813908  29.3267746  14.6271610
  30.2824516  47.4839973  22.1257553  30.3659859  46.6580887  22.6023293
  29.7205963  48.0249519  22.6806622   1.2746086  29.0402813  60.6415329
   1.6425000  28.4531631  59.9810944   0.5294942  29.4540176  60.2058067
   1.0015920  42.9101601  83.9108200   1.6250837  43.6052170  83.7001343
   0.1425749  43.3078079  83.7686996  64.0659866  69.3233719  22.8376579
  64.0598297  70.2597198  22.6390343  64.6506500  68.9432831  22.1819630
  48.1700783  11.8701515  73.9321518  47.7807236  11.2275448  74.5251846
  47.8902016  11.5917549  73.0601425  58.9718170  47.5653763   2.1539938
  58.6437492  48.2249298   1.5427712  58.6471329  47.8484383   3.0087960
  81.7009506  43.2920341  61.1551132  81.5443726  43.6744881  60.2917213
  82.6518326  43.3209763  61.2610245  85.9281540  19.7940350  67.5194855
  85.5398865  20.6132965  67.2124176  85.5879974  19.6858883  68.4076462
  47.7201195  21.6656094   1.7466466  47.8400230  21.1424751   0.9540652
  47.6259727  22.5636234   1.4289374  26.0936337  23.8491917   5.5219588
  25.3942699  24.2068214   6.0689712  26.5556087  23.2364388   6.0940986
  65.6331406   6.3341951  38.9978333  66.5204315   6.0216393  39.1746063
  65.1387711   6.1101942  39.7862816  66.1187668  39.0650787  79.5839615
  66.4357376  38.2198296  79.2656631  66.5025024  39.1516037  80.4565964
  67.9032669  63.0688934  50.7065048  67.7293243  63.6161461  49.9406776
  67.3544693  63.4413528  51.3966713  32.0377121  65.7255173  23.7754955
  32.5391579  65.3360977  24.4918327  31.8429337  64.9915237  23.1927853
  74.0736465  57.6713104  78.0006180  74.3164978  57.7170372  78.9253693
  74.8750763  57.9020233  77.5308228  16.1192684  10.6255894  10.0984020
  16.2293911   9.8179903  10.6002855  16.9061909  11.1357899  10.2899170
  61.7085342  47.0801659  67.4287872  60.9207840  46.5587921  67.5832291
  62.1829414  46.6017075  66.7489014  54.9445229  45.5421257  45.0933037
  55.8228188  45.1745491  45.1918526  54.9552841  46.3352051  45.6291580
  35.6136971  67.4462433  80.7616959  35.4698372  67.4871140  79.8162537
  35.2503929  68.2667236  81.0949402  48.8717346  27.6551418  43.0073051
  48.0775337  28.1833935  43.0874825  49.5442734  28.1634674  43.4606590
  58.7407761  38.3291588   5.3416138  58.4170685  37.7284431   6.0128684
  58.8378525  37.7851448   4.5600400  55.9409981  55.3891335  71.8442001
  56.7170105  54.8369484  71.7486877  55.6070976  55.4892769  70.9527283
  69.2812500  16.2044468  28.6189384  68.4771805  15.7841129  28.9239368
  69.2066956  17.1102982  28.9191189   2.1100404  40.1923485  70.9521408
   1.8120736  40.7665901  70.2466660   3.0572269  40.1320000  70.8279343
  62.0686684  54.4205551  77.3348007  62.4199257  53.8295059  78.0007706
  61.6042023  53.8463249  76.7258911  48.4570503  28.1478424  13.8901663
  48.9769592  28.6028099  13.2276487  48.9703064  27.3686676  14.1039095
  63.4847374  30.0238609  31.5730190  64.0884476  29.2881126  31.6752014
  64.0504456  30.7745266  31.3921642  27.2548161  47.6986694  88.9673691
  28.1716270  47.8866043  89.1682892  26.9311314  48.4992714  88.5544510
   0.8902955  35.5727081  61.7905464   0.4723088  35.9361992  61.0099106
   0.9057060  36.2988014  62.4140701  56.2589417  25.6894112  26.9807549
  57.0772514  25.5396271  27.4542198  55.7111130  24.9373264  27.2054443
  36.6362534  69.0721436   9.7207308  37.1842461  69.4885330  10.3859806
  36.0958633  68.4515533  10.2096844  23.1908665   3.9813645  82.4527817
  22.6981754   4.3584986  81.7239075  23.5223770   4.7387743  82.9351273
  54.6035728   8.6435728  69.9337769  55.5234108   8.7876101  69.7115555
  54.3536758   9.4201822  70.4344406  60.0840187  26.1673126   2.3116949
  59.8042450  25.2607346   2.1848996  60.5044708  26.4059906   1.4855690
  11.4063883  55.4731522  83.4001465  11.3911791  56.4007187  83.1642990
  10.9187756  55.4271011  84.2225494  73.6370239  16.5983868  50.0515633
  72.7168579  16.6585884  49.7948532  74.1066437  16.4604797  49.2289619
  80.5338135  35.7803993  61.9514732  81.3669128  35.3102226  61.9182930
  79.8697586  35.0985489  61.8497314  85.8252335  17.7458229  37.9458580
  85.6576004  17.8505135  38.8824310  86.4261856  17.0027466  37.8916969
  71.7705002  71.4179077  72.1201096  71.3360291  70.9912643  71.3815765
  71.0675812  71.8793564  72.5774918  44.5772133   6.2862964  49.0518379
  45.1889915   6.3443904  49.7857246  45.1031456   6.5081639  48.2834625
  51.2920189   8.2520256   7.9788928  50.6985130   7.6393065   7.5446615
  51.0414543   9.1105957   7.6378574  51.2849770   4.6642714  16.5639515
  51.9016190   5.3763752  16.7339382  50.8078575   4.5589976  17.3870564
  26.9073009  52.1425018  57.3707581  26.2116470  51.5080910  57.1980705
  27.6863842  51.6078949  57.5239143  38.9193268  47.3970261  79.5377808
  39.7402458  47.3048782  80.0213470  38.4632149  46.5675735  79.6799316
  63.8116646  60.4415016  25.3125553  62.9754562  59.9955101  25.1780834
  64.2275772  60.4356689  24.4504566  26.9989624  52.2179832   0.8484099
  26.9461441  51.4846153   1.4612852  27.6106396  51.9228439   0.1738901
  51.1430092  17.1953659  31.9716511  50.7398415  16.3380165  32.1081772
  51.4337273  17.1808529  31.0597820  22.6301289  71.6167221  81.4606171
  22.1261425  70.8036804  81.4951477  22.5240860  72.0013885  82.3306808
  62.5936584  49.0502014  23.3889675  62.1311188  49.2313309  22.5707493
  61.9113846  48.7461853  23.9875526  30.0807266  65.6762466  38.4480324
  30.9050179  65.3162842  38.7754517  29.5260468  64.9099655  38.3018188
  42.1631508  44.6462898  28.3941727  42.0639877  43.7842522  27.9900837
  42.9880867  44.5912323  28.8765430  16.4754829   9.9454508  28.5253334
  17.1853199   9.3034477  28.5113773  16.4327774  10.2355261  29.4365215
  70.3880157  38.0595169  83.6048050  70.3051987  38.6629562  84.3432007
  70.4698029  37.1958504  84.0093079  86.8272781  46.1019440  77.3351440
  87.0826035  46.3916283  76.4592896  86.1042709  45.4929543  77.1847153
   0.6378311  42.6764030  63.8618088  -0.1714388  42.2724075  63.5485954
   0.5564211  43.5978165  63.6156425  67.7457352  31.0079346  10.3311777
  68.6972961  31.0812931  10.4045887  67.4719162  30.6083450  11.1567583
  23.4665966  52.5620956  51.5041847  23.6831684  52.1966248  52.3619461
  22.7345772  52.0287476  51.1944809  75.8925400  20.7013302  17.1058159
  75.7668228  19.9587936  17.6966343  75.4737549  20.4308300  16.2887001
   0.9121753  57.4166603  20.9175777   0.8988182  58.1143723  21.5727520
   1.6377400  56.8519478  21.1838226   8.8423386   2.7466483  66.6874237
   9.3046503   3.5776088  66.5778580   9.3938875   2.1048965  66.2400131
  61.9635086  11.2319002  39.6315231  62.8985100  11.0452871  39.5467949
  61.9128418  11.8932104  40.3216934  78.2264862  64.7375336  60.9184723
  78.2736359  64.5498962  59.9810295  77.3110733  64.9727554  61.0699005
  38.8744583  49.4166489  60.4033813  39.1985970  50.3170280  60.4253922
  39.3160591  49.0214195  59.6517067  55.9856720  61.8464851  81.2572861
  56.2546921  61.5262947  82.1183014  56.4946594  61.3238182  80.6376190
  69.7083359  44.1476593  78.2875366  68.8088455  43.8312187  78.3712616
  70.0466614  43.7045860  77.5094223  84.5623474  52.2086067  68.6384354
  84.5499573  51.4843750  68.0126801  84.4259415  52.9901848  68.1029358
   0.2619329  46.6174583  10.8345909   0.9516118  46.0234413  10.5384169
   0.4352012  47.4362183  10.3700047  22.1821976  38.3008537  16.7107239
  21.4042053  37.8174934  16.9887905  22.4322147  38.8145599  17.4787254
  12.3148441  46.0820007  42.8785210  13.1267567  45.8668556  43.3375854
  11.6996202  45.3998108  43.1474915  22.5786228  70.7926178  64.3716965
  23.4238377  70.3447418  64.3363647  22.4041576  71.0467453  63.4654846
  56.6106186  15.3254013   9.5403700  57.4575958  15.0790348   9.9120712
  56.6842995  16.2660446   9.3791513  43.4199448  70.1422729   6.4967594
  43.4646873  69.2883835   6.9269891  44.0605850  70.6792831   6.9630618
  23.7584629   1.5852988  83.7625427  23.4938736   2.3350136  83.2294846
  24.3066063   1.9622890  84.4507599  63.8408127  19.4932995  28.5897751
  63.0214424  18.9999619  28.5512848  63.8071098  19.9483433  29.4312210
  83.2991791  54.9541664  51.7966995  83.8572464  54.2051353  51.5875549
  82.8104324  55.1211281  50.9907951  62.1364250  59.2739220  23.6551361
  62.3433609  59.7836304  22.8718052  62.1752357  58.3625641  23.3650475
  22.4221268  54.7057877  34.6798592  22.7508106  55.1119652  35.4818687
  21.7915039  54.0526962  34.9832077  81.8462448  20.7613583  61.2420273
  81.6341934  19.9310665  60.8155479  81.0101776  21.2245960  61.2934341
  56.8758202  44.5737648  23.4485359  57.0450134  44.0727692  22.6506596
  57.2132530  44.0217972  24.1540165   2.4572151  53.4740295  25.6016979
   2.0996969  54.3269539  25.8485470   1.8091012  52.8429832  25.9146843
  48.2690582  53.7017174  13.3394585  47.7909813  54.1719360  12.6563988
  47.9465065  54.0766754  14.1589708  35.9001389  17.2782974  82.6717606
  36.5571480  17.9659576  82.5636292  35.0617828  17.7338696  82.5952911
  18.5996876  47.8066940  38.8299179  18.5621700  48.4543076  39.5337753
  18.3400021  48.2900696  38.0456047  73.9585648  22.2603226  76.2057953
  74.8204117  21.8450718  76.1738205  73.3485031  21.5356579  76.3433304
  65.0335693  61.8223381  78.4458008  64.9211578  61.7272644  79.3916092
  64.2069626  61.5143433  78.0741959  45.4742928  45.8977242  48.3031273
  46.0577965  46.2415199  48.9795532  45.9948463  45.2320976  47.8534622
  14.7803993  46.5394402  34.7292252  15.7342587  46.4811554  34.7838860
  14.5676622  47.3771248  35.1406441  84.6755753  69.1522675  72.3122406
  83.8125839  68.7530289  72.4221954  84.9099884  69.4608536  73.1874847
   8.4931259   7.7221994  29.8005943   7.5478201   7.8449736  29.7136784
   8.8601656   8.5985441  29.6842575  48.0336952  56.0311623  34.2419243
  47.6645584  56.8830261  34.0089035  48.4482422  56.1743965  35.0927238
   3.8423100  30.4563065  64.7032623   2.9091985  30.4228134  64.9140015
   4.2199769  31.0212536  65.3773804  84.8064117  70.1084061  74.8933945
  85.5516815  70.6782913  75.0832367  84.1809158  70.2904892  75.5946960
  60.1426353  50.6744194  35.3614349  60.2604218  50.1197701  36.1326180
  60.7701111  50.3342323  34.7236443  67.2034683  27.7570171  69.0653992
  66.3005905  27.8074570  68.7515564  67.1496811  27.2366982  69.8670273
  67.3054733  65.4884491  25.9502544  67.5600815  64.6039047  25.6876011
  66.3983459  65.5736542  25.6568336  13.7872486  53.8693466   2.9818070
  13.2385302  53.3352699   3.5561805  13.2195511  54.0866776   2.2424033
  33.9415016  51.1182327  35.6865387  34.8614845  50.9728470  35.4658051
  33.4554710  50.6463356  35.0102844  41.1014137  52.7118187  18.5327473
  40.6924706  53.5499191  18.7485867  41.6802292  52.9102631  17.7966633
   4.3307481  30.2570248  13.7591763   4.5988011  30.8689289  13.0736446
   5.1065869  29.7189846  13.9167137  25.3836517  68.4387589  66.0578842
  25.7106152  67.8896790  66.7705078  25.6028957  67.9540710  65.2621155
  73.0012207  26.0460663  23.6390610  73.7617722  26.5544205  23.3573322
  72.7961807  26.3847980  24.5105286  80.9386826   5.9800167  59.8094826
  80.4183350   6.7782416  59.9006119  81.7741318   6.1897607  60.2269325
  76.7505188  18.5064354  62.0478821  77.2280426  17.8006611  62.4838753
  76.4888992  19.0928001  62.7577858  24.0558052  69.2749329  72.0198517
  24.2905293  68.7865829  72.8089371  24.7043591  69.9772339  71.9710236
  18.6565228  43.3651276  24.9811649  18.3073750  43.0879707  24.1341038
  18.7741203  44.3110542  24.8938408  13.9649878   9.8291864  26.5539837
  13.1370087  10.2967958  26.6636372  14.5636997  10.2551727  27.1674252
  63.0839348  56.5286674  81.0147552  62.9890976  57.2086906  80.3478165
  63.0134583  56.9973335  81.8463898  53.6286850  23.0496540  84.1487350
  53.4449768  23.3172302  83.2482452  52.7651291  22.9321594  84.5445938
  50.9201660  64.8517075  71.8843231  50.7675591  64.2722397  72.6307526
  50.1189232  65.3709717  71.8164825  31.2495346  67.4612045  11.7278280
  31.2916355  67.8120041  10.8382225  31.2453194  68.2354431  12.2906475
  59.3511658  69.3138962  44.4652939  58.7198868  70.0312805  44.5208473
  58.9240952  68.6614990  43.9101219  47.7606812  64.7213745  60.8651314
  48.5928383  65.1842499  60.7676849  47.4002457  64.6875153  59.9790306
  69.2677994  39.6672668  56.4502449  69.6282196  38.7894478  56.3246880
  68.3939972  39.6252327  56.0617523  42.4474411   0.6177409  50.6651688
  42.0235252   0.1303276  51.3715363  42.4683495   0.0048318  49.9302292
  53.7869263  37.8639679  72.8412323  53.3732529  37.6265221  72.0113373
  54.3833046  38.5779724  72.6159210  71.2007828  49.5026550  53.4049377
  71.3620377  49.1334114  52.5366707  70.7533798  50.3313141  53.2334938
  12.1859484  43.9558640  88.5710526  12.5345659  44.7539444  88.1738586
  12.0311804  43.3681526  87.8315430  82.6638794  12.4741659  50.2473907
  82.5271759  11.6700964  49.7463760  83.5773926  12.4281731  50.5295334
  79.4003830  33.6050415  39.7295837  79.0561295  34.2884216  39.1545029
  79.7616577  34.0808868  40.4774361  82.8933258  45.0773125  83.7249069
  83.7677383  44.9518127  83.3562775  82.4297943  45.5989494  83.0697174
  54.7339554   1.9086671  14.7332687  54.1441956   2.1576777  15.4448919
  55.1835518   2.7207444  14.4995470  54.5204277  26.0708981  84.6703415
  54.1271744  26.7562084  85.2106552  53.9925346  25.2926483  84.8489151
  76.9809875  11.2568197  88.7600479  77.0620422  11.2444620  87.8063660
  76.3550949  11.9587946  88.9381485  83.5327911  16.6760406  29.4240875
  82.6227951  16.9450474  29.5497093  84.0438690  17.4614525  29.6194248
  17.6457462  53.2470284  59.9919853  16.9263916  53.3997841  59.3792648
  17.2149200  53.0019150  60.8108521  72.3487473  61.9373665  59.2257881
  72.6493607  62.3116150  58.3976555  72.3221512  62.6803246  59.8287277
  54.4160805  27.5101185  18.3699894  53.5267830  27.5829926  18.0234718
  54.5029945  28.2547436  18.9651470  48.1874962  62.0812683  42.0722580
  47.7761116  62.9041252  42.3366432  48.8062706  61.8859138  42.7759514
  16.4098454  41.4286385  59.9460144  16.3348980  41.2726021  59.0045967
  15.8953981  42.2211838  60.0991325  50.8533325  70.1152115  28.4447651
  51.5479088  70.5645142  27.9631786  51.3113213  69.6402435  29.1382217
  82.7922668  47.7578506  60.1317558  81.8801193  47.8664436  59.8626328
  83.0670700  46.9379082  59.7213745  49.3321266  26.9482327  21.9462357
  50.2028427  27.2830143  22.1607323  49.2764931  26.1119251  22.4085407
  28.7482853  54.3680840  28.8206692  28.0871334  54.8860550  29.2798157
  29.3467827  55.0171700  28.4509125  13.4229527  51.0888062  87.5109253
  14.2629242  50.8948784  87.9269485  13.6264105  51.1500664  86.5776062
  56.2478600  32.9891319   2.3883545  56.9622955  32.5549812   2.8545403
  55.4706726  32.8045845   2.9157584  43.6264153  21.1441212  79.4321823
  44.4877739  21.4066048  79.1075363  43.0808716  21.0904198  78.6474991
  75.0139999  10.1763773  21.2501640  74.5939789  10.2521772  22.1069412
  74.4887543  10.7335529  20.6757908  58.0341454  30.8060532  48.7501259
  57.8444138  30.7643909  47.8128433  57.8079262  31.7017460  49.0007057
  58.3533592  13.7493477  43.9111938  57.5255470  14.2144566  43.7902451
  58.9891701  14.4383011  44.1043854  74.2349396  38.7767525  44.9134636
  74.5764008  38.4424934  45.7428703  74.1799164  38.0056915  44.3489571
  67.6605148  59.1570206  70.4322433  67.2659912  59.9788742  70.7240372
  67.1536484  58.4771347  70.8761749  29.9326458  54.7074280  15.9914007
  28.9900742  54.7057228  16.1581001  30.2496090  55.5043449  16.4164791
  63.8867798   2.9544170   3.4931648  63.5518951   3.7146497   3.0176330
  63.1728287   2.7055187   4.0801525  39.1676712  35.1274796   3.7180526
  39.2617226  34.4679871   4.4054079  39.7715378  34.8452415   3.0310874
  69.7149811  25.6936665   5.0749502  70.5674286  26.0928402   4.9011030
  69.1679840  25.9666901   4.3384166  13.4254761  42.0007515  37.8166351
  12.9209595  42.4387970  37.1312065  13.1498899  42.4285507  38.6273613
  29.5002346  15.1876040  68.1185150  29.5644665  14.2362461  68.0346985
  30.0382614  15.5278864  67.4036942  76.1365814  59.3490753   0.8258523
  75.5880356  59.8504524   1.4291348  75.8583374  59.6345253  -0.0443965
  22.1687260  43.9512215  69.3134232  21.5682526  44.4712906  68.7793884
  21.5995998  43.4701805  69.9141922  32.2308273  46.1617432  74.6457443
  31.6948566  46.8562698  74.2628555  33.0919762  46.5621643  74.7653961
  50.2624016   3.4651201  63.8648567  49.7667351   3.0415084  64.5656433
  49.8262100   3.1853373  63.0600662  65.7406387  57.8983765  86.7314148
  65.4822388  58.7791901  86.4600601  65.1546249  57.3169212  86.2469330
  61.6315727  33.4543686  18.5873375  60.8585739  34.0137024  18.5108547
  61.2941628  32.5643463  18.4861088  27.1062851  67.5749054   1.7728882
  27.1332245  67.0214691   0.9923659  27.9270344  68.0667343   1.7462100
  26.4770927  70.4284363  38.7439499  26.1255970  71.3048477  38.9007416
  26.8912621  70.1848450  39.5718155  34.6583176  59.6336327  44.9346046
  34.5379257  58.7145767  45.1735001  35.5579567  59.8326569  45.1939735
  64.5036087  43.1251488  58.3891678  64.1413498  42.9472580  59.2571297
  64.8243561  42.2761688  58.0848961  32.2942162  62.3209457  24.1555367
  32.0694237  61.3907318  24.1353188  32.1579208  62.5805359  25.0667267
  36.3105850   2.9026070  82.7915192  36.5636444   3.4470103  83.5370560
  36.7136765   2.0525308  82.9679260  14.2928953  14.8729515  76.6136246
  14.8368578  15.6439180  76.7747040  14.9117336  14.1963663  76.3388443
  62.7267761  21.8466835  49.5711708  62.3721008  22.1490078  50.4072571
  63.6758690  21.9155502  49.6746750  21.8461628  48.0843353  57.9123573
  21.0400772  47.6574669  57.6221123  21.6782646  49.0191879  57.7936363
  62.2453156  65.7053680   3.0009916  61.4297523  65.9825668   2.5835605
  62.8616447  66.4141846   2.8167431  23.6548080  49.1291618  18.4421024
  23.7354965  49.6975670  17.6761799  23.5270214  49.7314987  19.1749687
  28.2921524  25.1694183   4.9804411  28.9130535  24.6537437   5.4950218
  27.4328957  24.8320808   5.2336493  57.8020287   8.7206182   1.8607672
  58.2748451   9.2374134   2.5131471  57.1095810   9.3035517   1.5494175
  46.5995331  59.9929924   6.7847872  45.7368660  59.5816231   6.7317557
  46.4729080  60.7405205   7.3690815  14.0397024  15.6516228  63.9044914
  13.3255253  15.1333961  63.5335121  14.8326702  15.1703930  63.6681633
  19.1061840  62.5624962  39.1907845  19.7271271  62.1423798  38.5956688
  18.2977161  62.6324005  38.6831207  78.9496307  40.1532707  47.5682907
  78.6187668  39.8443184  46.7248993  78.2201691  40.6443520  47.9463921
  15.2785769   5.7752924  13.1804247  14.4564438   6.1185060  12.8303766
  15.1927013   4.8249216  13.1052408   4.9914131  10.9256592  41.3680229
   4.3647361  11.2099447  42.0333710   5.6942940  11.5741653  41.4083900
  27.3175430  43.1716614  85.6392288  26.6982021  43.8969498  85.7204742
  27.1654549  42.6383057  86.4193802  45.5334435  18.0523872  33.7210655
  45.2750969  18.9673004  33.8325119  45.9075699  18.0146713  32.8408165
  14.3467131  41.8654709  18.9625187  15.0482378  41.2220421  19.0629902
  13.7486963  41.4706764  18.3278980  86.7688217  35.9239616  37.6188393
  86.4399414  35.8710861  36.7214699  86.8137283  36.8622894  37.8025703
  27.2483883   0.5584658  61.9411430  27.7079124   1.1813112  62.5042877
  26.6273174   1.0944759  61.4479942  68.4704437  34.8853111  35.7817993
  68.1843033  35.7854347  35.9371490  67.9913406  34.3667526  36.4281654
  28.3937740  45.8353043  17.5003357  28.7853870  46.2590256  18.2640991
  29.1308403  45.4198380  17.0527306  86.2787247  16.7070179   2.1871064
  86.1809158  16.5455456   3.1255047  85.3838882  16.8317699   1.8709910
  47.5498352  16.9385471   3.6392739  48.1554222  17.6248398   3.9194527
  47.6796913  16.2317619   4.2715902  37.6585732   6.3593435  73.3799515
  37.8712082   6.6026125  74.2809753  36.8990707   6.8984613  73.1591873
   2.0563214  65.5122757  56.5956268   1.6645535  64.7344589  56.9928131
   2.7161810  65.7974243  57.2276917  76.6631622  49.9282188  80.1992874
  77.4810410  50.1110992  80.6617355  76.2672729  49.2072105  80.6888275
  60.9130478  64.3797073  70.1273422  61.0010986  65.0397568  70.8149567
  61.5694427  64.6243744  69.4750214   1.4028339  68.6084366  16.7014618
   1.8782755  68.5332413  17.5288277   0.5220917  68.8840714  16.9555302
  57.5880852  37.7164993  35.8429947  57.3533287  37.1343079  35.1203804
  56.9053764  37.5722847  36.4982414  41.3574944  18.4392681  11.3171396
  41.2652740  18.6674576  10.3921223  41.2796936  17.4854507  11.3374462
  70.1829910   9.5347490  38.3127403  69.6000595  10.1766624  37.9073181
  69.6203918   9.0461712  38.9135780   9.9482737  62.8195686  21.3538342
   9.0481682  63.1387215  21.2891483  10.3433895  63.3550262  22.0418758
   1.6672461  37.9529800  72.4698639   1.5422992  38.5706863  71.7494049
   2.2096291  38.4268684  73.1003189  10.2914009  30.7235374   6.4259076
  10.3256493  31.6083183   6.0622835   9.3864479  30.6204357   6.7202916
  25.7288742  69.9029236  59.7837906  26.2517509  70.5008392  60.3179550
  24.9523983  69.7245331  60.3143539  81.0050507  38.7436447  75.5172272
  80.7417450  37.9972458  74.9789047  81.0401688  38.3957672  76.4082794
  49.9972954  45.0863075  26.0697327  50.3246384  44.1906662  26.1528301
  49.8109207  45.3575592  26.9685764  78.5916977  15.3102303  45.1752396
  77.7250214  14.9333868  45.3272247  78.4159546  16.2033939  44.8792534
  44.1575089  32.4278679  78.1402435  43.8687897  33.1465225  78.7027435
  43.5898514  31.6947308  78.3779678  79.9861298  62.6684074  24.7024574
  80.4979706  63.1623306  25.3430004  80.5621414  62.5940781  23.9415874
  56.7589493  25.1464882  21.3838406  57.1952553  24.8607540  22.1864777
  57.2865715  24.7723942  20.6782207  14.7447653  45.5903244  44.1248932
  14.6073389  45.4706917  45.0645943  15.4885597  45.0245819  43.9176750
  17.6558018  44.6049652  77.9905930  17.4289417  43.7363091  78.3225632
  16.8658218  44.9028320  77.5395508  57.7842903  21.4221420  30.1283817
  56.9227295  21.0132828  30.2106934  57.6897354  22.0353909  29.3995361
   9.1275625  53.5331535  60.7405357   8.3661613  54.1131592  60.7501640
   9.8762913  54.1189156  60.8524399  38.1764297  13.3407640  73.3889008
  37.8118362  12.8430061  74.1207047  39.0759315  13.0236015  73.3080292
  52.5882759  33.7501640  83.3033218  53.4867897  33.8301506  83.6234894
  52.6819916  33.4498329  82.3992996   6.1653080  47.6189384  79.5552292
   5.3896203  47.0655899  79.6465759   6.1790323  47.8611641  78.6292877
  64.5114212  56.1169510   0.5291492  65.4647598  56.0869293   0.6095799
  64.3182449  55.5731888  -0.2345510   1.0762297  55.7539597  56.0235023
   1.3517327  54.8394012  56.0860634   0.3142661  55.8145180  56.5996780
  81.0702820  52.0591736  12.9998732  80.2036209  51.7817307  13.2967815
  81.4979630  51.2498970  12.7198887  48.2956963  24.0534039  20.4489899
  49.0883141  23.7597980  19.9997845  48.5361595  24.0660152  21.3754082
  19.2565098   3.3022070  16.6955109  20.1525269   2.9671149  16.6623955
  18.8298035   2.7783861  17.3735714  74.1036987   3.4082255  31.9954853
  73.7492828   3.2850742  32.8760872  74.2002487   2.5208261  31.6498947
  70.2368546  28.8777752  62.7618256  70.2924271  29.3229713  61.9162827
  69.3015442  28.7172737  62.8869858  71.5754852  19.1780491   6.8972960
  71.7309418  19.9134369   6.3046150  70.6222763  19.1012211   6.9387693
  40.0845299  46.9342728  16.8267212  39.8973541  46.8351746  15.8932447
  40.9713898  46.5895805  16.9310837   5.1258550  53.8791084  58.8856583
   5.6984429  53.7190857  58.1354828   5.7087183  54.2223244  59.5629387
  67.1769638  34.9269562  54.1342583  67.9712372  35.2723198  53.7267113
  67.4926682  34.2730408  54.7579269  84.0621033  29.7464390  43.1582108
  83.8357925  29.3294544  43.9895592  83.9294510  30.6813068  43.3152390
   1.8280568  45.4716377  86.2347641   1.6695046  46.0070877  87.0121841
   1.0016851  45.4990005  85.7524796  36.2456474   5.0153222  54.1384468
  36.7707100   5.8144670  54.1821251  35.9110107   4.9973130  53.2418289
  20.4063606  66.0567169   6.9150376  19.9657669  66.0970917   6.0662270
  19.6951885  65.9739380   7.5503440  60.5291100  21.5255661  37.1134338
  61.1255264  22.0881939  36.6194954  60.9723778  20.6778622  37.1472244
  49.0713654  32.8792953  53.6604462  49.6771965  33.1453094  54.3521347
  49.1293564  33.5784950  53.0093040  48.7407265  71.7473602  67.3804932
  49.3342552  71.1378784  66.9417572  48.0296898  71.1959991  67.7070770
  39.6637383  66.3016205  32.6143227  39.0642624  65.6845551  32.1947021
  39.8608284  66.9447708  31.9333382  76.8171005   5.6820741  26.7252312
  77.4488602   6.1430960  26.1733532  77.3118210   5.4462934  27.5100174
  12.2868576  29.1680698  10.7850332  12.6260042  28.2798176  10.8955736
  11.4987478  29.0590324  10.2528439  60.3671913  47.3671265  77.8469696
  60.8207817  46.5394974  78.0067062  59.8821030  47.5342369  78.6550522
  20.1875896   1.3594574  42.8104477  20.0005932   2.2030320  43.2223282
  20.3660030   0.7696100  43.5428963  40.4593887  62.4812355  49.6828995
  39.8481712  62.3004456  50.3970146  41.0211487  63.1793861  50.0194206
  46.4177475   6.4502707  46.9471855  47.3201370   6.5512176  46.6443024
  45.9674797   6.0211744  46.2196121  22.5257759  68.9895630  12.6407299
  21.7477913  68.8321075  13.1756887  22.3835869  69.8564377  12.2605429
  27.5905094   4.0302749  39.4594650  27.2220001   4.5234756  38.7265358
  28.5349388   4.1707025  39.3919144  64.4205780  47.7480202   2.8480177
  64.6285858  48.3729591   3.5425785  63.5526352  48.0106697   2.5415516
  84.4827652  63.5256119  39.0180397  83.9293976  64.2273636  38.6751747
  83.8863907  62.9781914  39.5288200  71.3417816  42.4547653  25.3701630
  70.8764954  41.6183739  25.3840733  70.8001175  43.0390167  25.9007168
  76.8228073  49.4058456  71.2230606  77.7501678  49.1695824  71.2028198
  76.7216415  50.0399361  70.5131836  34.6703072   2.7498727  10.5692854
  34.2982178   3.6159918  10.4030981  35.3358536   2.8999209  11.2406750
  20.8902855  54.1192741  81.0070877  20.9733677  55.0411568  80.7632446
  21.0206356  54.1096535  81.9553223   2.8822296  60.9604492  82.2871780
   2.9540827  60.4589806  83.0993347   1.9969194  61.3238220  82.3075867
  70.5847092  68.6916351   4.4202709  70.0743027  69.0020599   3.6723719
  71.4347382  68.4556885   4.0487704  82.4605637   9.9492226  48.9072838
  82.0653839   9.1243906  48.6249313  83.1845169   9.6858521  49.4753990
  78.9842987  65.9195786  54.9688263  78.7126846  65.0666046  54.6298561
  78.4484253  66.5501709  54.4877586  29.3322525  67.5182495  74.4181442
  29.4613228  66.5697861  74.4188385  28.4507961  67.6397552  74.0653000
   2.3354819   8.7536840  72.7898407   1.9656094   8.6362028  71.9148407
   2.5001490   7.8638268  73.1017227  15.0947170  59.1232338  88.0148697
  14.2350254  59.0773010  88.4332581  15.6745329  59.4644814  88.6957474
  41.6951866  24.5742455  84.5437622  41.2886581  24.0604973  85.2416306
  42.6252365  24.3536873  84.5946579  37.8345146  50.4239082  32.4976311
  37.1177483  50.4244423  33.1320419  37.5338364  49.8451309  31.7970333
   6.2284083   5.7891808  51.1279526   5.3597045   5.3966832  51.2147331
   6.3257508   6.3309855  51.9110260  42.9533501  57.4054642   9.0548658
  43.7061882  57.9433174   8.8095512  43.3295441  56.5535278   9.2760315
  79.3748703  68.2599945  37.5768013  79.7433548  67.9636154  36.7445679
  78.4287720  68.1641541  37.4675026  64.7594070  37.7373390   1.8895571
  65.4913330  37.2041664   2.1997797  65.0089264  38.6357574   2.1059303
  36.6188164   3.3288293  63.5913658  37.4370880   3.8225188  63.5371513
  35.9348488   3.9984622  63.5947151  79.1309433  18.0609913  64.8415375
  79.8051682  17.7717705  64.2267227  79.2158966  19.0142498  64.8591690
  72.0306015  37.4229126   0.4779632  72.4900360  38.0748291  -0.0513379
  72.2940445  36.5820427   0.1041073  68.9126968  57.8637047  64.5069962
  69.6690674  58.3265038  64.8674850  68.5182343  57.4256020  65.2611160
  51.7400436  71.4799881  56.3613853  52.1223068  71.0018387  57.0972366
  52.4875832  71.8953552  55.9313965   9.0110884  65.6333771  16.4820652
   9.7451277  65.5839081  17.0944157   9.0394497  66.5292053  16.1460381
  70.9093246   9.3650532  20.4465237  70.8330307   8.7387209  21.1663303
  71.5233841   8.9557238  19.8369312  40.9032974  14.9530697  62.8496895
  41.6938553  14.8209858  62.3264275  40.9780617  14.3172426  63.5612831
  39.0672035  44.9150772   1.4673816  39.6030502  45.5713844   1.0220013
  39.6627121  44.5053825   2.0948787  78.8801804  49.7450676  26.4326344
  79.1229172  49.1106071  27.1070004  78.8129196  49.2276917  25.6301193
  63.6350441  19.3781815  14.6208038  63.1112137  19.8981304  14.0113058
  64.4798889  19.2750015  14.1828327  17.2828140  15.8235407  88.4622040
  17.0500374  16.2741318  87.6504059  18.2261200  15.9602699  88.5500183
  69.7716293  55.6871567  34.7080917  70.6570435  55.7435760  35.0673866
  69.8257217  54.9992218  34.0447311  40.8865242  24.9579582   5.1796794
  41.4258499  24.2014332   5.4099646  41.1029587  25.1367416   4.2645707
  13.7227163  44.3812943  25.2635460  14.3424625  43.6923485  25.0237484
  14.2148714  45.1949310  25.1539574  61.5377426  30.0874367  50.6746101
  61.5489540  30.9048500  50.1766701  61.4995003  29.4014797  50.0081024
  55.5660362  46.5747185  12.6608534  56.1234627  45.8330650  12.4253559
  55.1374321  46.8218880  11.8414402   7.8350682  43.1692429  49.7267075
   8.1758804  42.3179512  50.0012703   7.1144767  42.9585533  49.1329155
  24.2227230   0.6181594  23.8278008  24.5851765   1.3370003  24.3456097
  24.6820583  -0.1599422  24.1437130  44.0181999  15.1267099  84.4253922
  44.2751389  15.5441685  83.6032333  43.9101677  14.2024336  84.2011719
  53.6873817  50.6979790  58.4807129  53.7367058  51.3694534  59.1610947
  54.5527229  50.2888336  58.4848099   0.4634943  47.3152161   1.8640735
   1.2982148  47.0203629   1.5000186  -0.1975639  46.9381142   1.2835335
  86.6904526   1.4504915  51.9543228  87.1376495   1.5413178  52.7957497
  85.9052124   0.9408999  52.1541977  46.7033234  30.9993362  69.7153778
  46.1162376  31.7373886  69.8792038  47.0460129  30.7695808  70.5790939
  76.4334259  31.2424793  12.9794474  76.8928452  30.8005161  12.2654219
  75.8810730  31.8913765  12.5434799  57.9756203  11.5219622  67.1765060
  58.0036812  10.5680838  67.1019363  58.1170998  11.6936903  68.1074905
  66.1916733  34.5362930  73.8324051  66.0660629  33.8340988  74.4706650
  67.1413803  34.6417580  73.7761383  15.0636683  26.2584877  70.6620483
  14.9040241  26.4182987  71.5922165  14.2651863  26.5576630  70.2271347
  78.5697556  34.2933960  45.0603905  78.6766434  35.2280006  44.8833961
  77.7435074  34.2333946  45.5399055   7.8278351  56.8734436  43.4105568
   7.6391830  55.9623375  43.6353378   8.7707100  56.9638863  43.5485420
  41.3121490  38.5713348  72.8562317  41.5652809  37.6483879  72.8744431
  41.3632507  38.8517799  73.7699966  76.6058350  24.6873817  30.7534161
  77.3884354  25.1908512  30.5291786  76.6867905  24.5247555  31.6932201
   4.3210812  70.7614975  27.4519577   3.7904251  70.1625748  27.9772511
   4.7510376  71.3264389  28.0939884  45.6923294  35.1064262   6.9363532
  45.9771385  35.0864258   6.0227261  45.4268494  34.2061768   7.1242380
  67.0175400  55.1622963  27.5344734  66.1355820  54.9267693  27.2465534
  67.1719131  56.0258331  27.1514530  25.5131245  66.7236786  63.4992676
  25.5778580  65.7967072  63.2695541  26.4185772  66.9983902  63.6439171
  67.8422623  69.7731705  47.2279663  68.7322235  69.9870758  47.5080528
  67.9178009  68.9046860  46.8326759  29.6529064  69.9833679  55.5434113
  30.0100307  69.5667343  56.3277016  30.0374737  69.4941330  54.8160934
  47.7123413  71.8296051  84.1824799  46.8883018  71.4295578  83.9047165
  47.9644089  71.3398972  84.9653473  18.4110374  41.3151627  64.4669418
  19.3135052  41.3045845  64.1480865  17.9131870  40.8535423  63.7921906
  69.7717438   7.4584274  43.4362259  68.8843689   7.5221834  43.0830536
  70.1250916   8.3445349  43.3575287  45.3628960  40.5355606  17.6850128
  44.6061630  40.7263184  18.2392693  46.0372696  40.2366066  18.2949963
  32.5987396  33.4999962  10.2816954  33.4146004  33.6600456  10.7560225
  32.6671028  34.0441246   9.4971685  72.5464325  52.9540863  85.8339157
  72.7256317  52.2101173  86.4089127  71.6689987  52.7854843  85.4905167
  64.1800613  20.6372967  78.7925491  64.0590820  21.2799854  78.0935822
  64.9371567  20.1214428  78.5151825   7.8678303  12.3816395  66.6703262
   7.2571158  12.6926308  66.0020905   8.7342072  12.5432491  66.2968292
  44.4387817  39.4123001  15.2571888  44.6720161  40.1967506  14.7607288
  44.5729485  39.6592445  16.1722031  56.1488037  18.9777889  87.0709991
  55.9085655  18.2970753  87.6996002  55.4133720  19.0090942  86.4591217
  85.5623322  34.8602142  17.4685364  85.3035812  35.7728462  17.5965557
  84.9129410  34.5104752  16.8584461  59.7640839  19.2975750  30.1573124
  58.9614182  19.8139744  30.0845699  59.4960175  18.5016232  30.6164761
   0.9172462  62.4194450  85.9495316   0.3479193  61.8453064  85.4372177
   0.7720717  62.1527176  86.8572769   3.3618720  21.9519405  15.8004503
   2.9091561  22.5209007  16.4229965   2.9607368  21.0920200  15.9263830
   4.6677070  23.8404713   8.7303505   4.0100126  23.6546021   8.0601845
   4.1590848  24.0759392   9.5062962  20.2001190   3.0355699  73.3176880
  20.0188351   3.3228562  72.4227905  20.2742481   3.8473353  73.8194580
  34.8792725  53.6989822  58.7582474  35.2537537  52.9606285  58.2777977
  35.5986748  54.3260193  58.8325310  81.3800964  15.3420420  27.2756157
  82.0511932  15.5060635  26.6130753  81.5566330  15.9873295  27.9602108
  55.4356232  48.5770416  19.8639336  55.9371071  48.6291084  20.6775894
  55.3997498  47.6416130  19.6641388  58.2788086  62.6278877  78.8424454
  58.4915085  63.5597916  78.8928604  58.4252739  62.3004417  79.7298965
   8.1181622  30.9234524   9.8051472   7.6419740  31.2030048  10.5870209
   8.1066704  31.6893291   9.2310972  32.5566750  51.5475082  75.2128525
  32.0508270  50.7486153  75.0641327  31.9184475  52.2552490  75.1234131
  77.9652100  21.9465065  14.4953346  78.9122772  21.8729744  14.6132193
  77.8497849  22.0665455  13.5527315  42.6842346  61.2557220  34.2266502
  42.0056610  61.3833237  33.5637093  42.3300018  61.6681862  35.0144463
  46.9305382  68.3912048  46.7320862  47.3672638  68.7996368  45.9846344
  46.7128143  69.1218643  47.3108521  26.8069649  11.7934303  60.5946655
  25.9038162  12.1032114  60.6624184  26.7358150  10.9390078  60.1690674
  32.2698708  53.1393356  77.6035080  32.0034752  52.3744049  78.1135559
  31.4463997  53.5434303  77.3299484  43.2412872   3.5192778  56.6763306
  42.8308754   3.4431307  57.5377235  43.0966072   2.6667345  56.2658806
  31.0419445  71.5796432  61.2102928  30.3099098  71.0800323  60.8487015
  31.3606739  72.1034775  60.4752846   7.5849328  11.1140423  82.1069336
   7.2342272  11.6333828  82.8304825   7.4495940  10.2056160  82.3765182
  85.0185852  27.5537663  30.8684978  85.5821762  27.1132374  31.5045280
  85.0912628  27.0224361  30.0756321  78.2042923  36.3205299  39.7865982
  78.9080734  36.5996704  40.3722610  77.5233612  36.9841232  39.8971214
  55.1398697  47.9673424  16.3048763  54.4247704  48.4906960  15.9429846
  55.9210052  48.2819405  15.8498096  22.4497776  42.5016899  81.9926987
  22.3751621  43.3992271  82.3168716  23.0402851  42.0718803  82.6114044
  44.6161919   6.6421962  72.8574753  44.6748734   7.4327402  72.3209763
  45.2732735   6.7680049  73.5420532  42.9484329  21.9933376  16.9965820
  43.2837486  21.1413498  17.2757053  43.6831093  22.5934544  17.1244221
  59.5405273  60.9921265  50.3862305  59.1860504  61.6632652  50.9694557
  58.7868195  60.4455032  50.1640663  47.6746292  37.3434143  51.8930550
  47.8180237  37.2941055  52.8381691  46.7328835  37.2093887  51.7863731
  72.8178711   5.4505591  24.6412506  73.6119537   5.1867189  25.1060734
  72.1289520   4.8989429  25.0118427  57.8529129   0.7034680  57.2600098
  58.2503624  -0.0063595  57.7644043  57.7758446   1.4260288  57.8830681
  81.4514465  24.5485096   5.5535312  82.0463943  23.9477482   5.1048079
  81.7511902  25.4200420   5.2950435  11.3906765  60.0889511  37.2253418
  11.8734741  60.8581543  36.9229126  11.7110405  59.9395638  38.1148796
  85.2051544  57.6201897  14.8809080  86.0547028  57.2492676  14.6423302
  85.3196030  57.9204559  15.7825594   7.1278243  63.6309700  65.9160080
   6.2698731  63.4770012  66.3115387   7.6884117  62.9496117  66.2871170
  39.3720284  49.7143250  46.0791817  40.1311302  49.6248398  45.5029984
  38.8577003  50.4214096  45.6896515  78.5525894  33.6061058  12.8725910
  78.9096756  33.7031174  13.7553759  79.2026520  33.0791740  12.4078426
  59.8884888  51.5818291  70.3513184  59.4704514  50.9917755  70.9784698
  59.3744392  51.4828224  69.5499573  61.5358658  21.8858910  78.1094437
  60.7314796  21.4842834  78.4379349  62.2103043  21.2215252  78.2508087
  48.7576714  47.3552551  30.8241005  47.8366089  47.6080818  30.8869762
  48.9922066  47.0823135  31.7110767  30.1173439  52.8642273  74.6621475
  29.8962078  53.4502831  73.9383545  30.0151653  51.9848747  74.2980957
  51.1342049  31.0208702  60.7018356  50.3224030  31.1766968  61.1844597
  51.7898560  31.5467796  61.1598473  68.4540863  31.5217590  51.7148438
  68.7617722  31.8202610  52.5706825  69.0049057  30.7654686  51.5127220
  27.7973576  20.2159767   3.0229728  27.2561226  20.3856506   3.7940156
  28.5207558  19.6818047   3.3509755   7.4914522  51.3750000  15.5334167
   8.1023579  52.0823975  15.7398510   8.0032549  50.5746765  15.6507597
  62.2236900  52.1428566  57.2531204  62.8778534  52.6139755  56.7370300
  62.5270348  51.2349930  57.2530899  83.1675949  49.4949036  15.3768339
  83.9360352  48.9925270  15.6476698  82.6076660  48.8565750  14.9349680
  15.6503038  17.8853493  58.9778023  15.5628061  16.9825935  58.6718483
  16.4317532  18.2141609  58.5334473  33.5986061  66.6758423  38.7594376
  34.4046059  66.2397461  38.4830093  33.3745003  67.2510529  38.0279007
  41.6394920  27.2551346  60.9820938  41.3092804  27.9489841  60.4113350
  40.9578247  27.1457005  61.6451073   6.6920223  10.2446260  68.1927185
   6.6974654  11.1072121  67.7778091   6.4175858  10.4140654  69.0939407
  19.6970940  65.2437134  37.1668510  19.6100903  64.8002014  36.3230705
  19.9223328  64.5458984  37.7821198  81.7765427  52.4544296  43.9653549
  81.0829620  52.1338501  43.3888092  81.8636703  51.7762947  44.6352615
  36.2959785  58.2999420  85.6697464  36.4138985  57.4727287  85.2027893
  37.0807495  58.8067360  85.4611130   0.0796279  19.4935684  57.4893684
   0.4839307  19.3653088  56.6312752   0.3783216  18.7471390  58.0088463
  59.1269608  10.5184355  80.8129044  58.3200150  10.8167143  81.2325439
  58.9568214   9.6032505  80.5899200  45.6945343  15.6819572  82.1171799
  46.1288033  15.1940012  82.8168564  46.3335419  16.3446808  81.8550797
  82.7639771  44.6109352  68.3977356  83.1733246  45.4216576  68.7000504
  82.1309433  44.8938484  67.7378464   1.2625215  14.6046209  69.9087830
   1.4625956  15.2948284  69.2764740   0.5484741  14.1104870  69.5060425
   6.9821362  56.1079292   3.2463694   6.2565670  55.5939217   2.8920047
   6.6505771  56.4494476   4.0768309  12.5232267  21.6955280  66.7100372
  12.4807014  20.9596424  67.3206863  11.9147005  22.3408470  67.0698853
  77.5509338  21.2863598  38.8473358  78.2747574  20.6629906  38.9082985
  76.8065338  20.7610645  38.5537949  39.6608353  70.9420319  42.6558609
  39.0674438  70.3244400  43.0832901  40.2821426  70.3887024  42.1825371
  64.7769775  45.0676308  88.8328629  64.4542847  45.7658463  88.2631302
  65.5991287  44.7897415  88.4290466  63.3611717  34.5595055  48.3271713
  62.9027596  33.7231140  48.4080620  62.9009972  35.0178261  47.6240311
  52.7201538  14.0167227  30.6788292  52.8155174  13.2693853  31.2692738
  53.2197647  13.7718725  29.8999405  65.3289108  24.7883625  50.6325645
  65.9495163  25.0098476  49.9382820  64.5378113  25.2802963  50.4125710
  39.9869308  29.8631878  76.3428802  39.6956520  30.7171059  76.0231781
  39.7923470  29.2598267  75.6257172  66.5782471   3.9780588  74.2888489
  66.3996887   4.8693466  74.5887756  65.7147217   3.6124697  74.0967712
  61.7003746  66.0261612  43.1970100  61.8718987  65.5652466  42.3758125
  60.9595871  65.5591965  43.5835495  64.2089691  18.8714485   8.8609819
  63.9263649  19.0909252   7.9731770  65.0718155  19.2772675   8.9448805
  59.5631943  65.5560226   8.2772217  60.1387787  64.8002396   8.1600094
  58.7738838  65.1955719   8.6813183  65.0124435  50.3326912   7.8555393
  65.2311172  49.9106979   7.0246749  65.8246689  50.3015480   8.3610573
  17.4575195   7.4741940  69.2523804  16.8739815   7.7074552  68.5303650
  18.3332672   7.6899061  68.9318085  76.1749039  54.8735886  39.0641365
  76.7690735  55.1385994  38.3620262  75.2996826  55.0203323  38.7053947
  66.1110001  23.0196724  72.2877731  66.0259933  23.0814171  71.3363571
  66.7533035  22.3235950  72.4261780  71.0947876  40.3621864  66.5845337
  70.8789978  40.8998528  67.3464890  70.3674393  39.7439575  66.5139084
  11.8953304  49.2420616  75.1519623  12.6633072  49.8048058  75.2507782
  12.2561216  48.3737411  74.9728470  26.3769989  28.8556900  57.9291611
  27.1212292  29.4072781  57.6881142  26.4611053  28.7401829  58.8756371
  64.4025726  35.0059967  15.3024960  65.3120575  35.2266197  15.1015091
  64.3916473  34.0497627  15.3440428  49.4289474  59.9168549  65.7633514
  48.5349693  60.1128540  66.0437317  49.5313072  58.9793854  65.9273758
  24.4732380  53.2012444   9.9950161  25.3205452  53.3976326  10.3946838
  23.9442692  52.8542099  10.7133417  10.1041145  47.0331726   0.8294901
   9.6227713  47.5784111   1.4517910  10.7339983  47.6299820   0.4253890
  30.4768486  42.5608139  77.2789612  30.4887104  41.6159515  77.4316788
  30.4686565  42.6493111  76.3258972  49.1517792  60.2202835   1.6060191
  48.5127258  60.2370453   0.8935860  48.8355064  60.8765182   2.2269528
  52.9204559  32.4917526  28.0066738  52.5206261  32.4070625  27.1411114
  53.4223061  33.3055115  27.9601002  15.4485216  39.7416801  68.7552795
  16.3172531  39.5099335  68.4269028  14.8627071  39.0968513  68.3587341
  54.7382164   6.1599140   6.6137886  54.7422028   5.6684723   7.4351907
  55.6044121   6.5652175   6.5729675  59.9268570  54.4760933  12.1982422
  59.8780899  53.7123108  12.7731237  59.4449921  54.2160759  11.4131126
  60.0219460  46.2826004  45.6436729  60.7703857  45.8770981  45.2059135
  59.8165894  45.6891060  46.3660469  29.9633942  68.1889114  71.9812851
  29.5217648  68.6113358  72.7180023  30.2822113  67.3593674  72.3368607
   5.9389644  62.2350655  73.7146225   6.2671356  62.9362373  73.1516876
   6.1569891  61.4295807  73.2456970  28.1903896  50.6295547  11.0548677
  27.9596958  50.7187500  11.9795609  28.9299526  51.2250938  10.9339972
  44.6858635  60.6788826  36.6143494  45.5786247  60.6987038  36.2696495
  44.3162804  59.8635788  36.2753563  82.2937851  19.8338108  42.8089905
  81.7960434  19.0551567  42.5596313  82.8197327  20.0395393  42.0361443
  46.1189613  11.2193937  33.7919006  45.5412598  10.4692364  33.6513367
  46.2692108  11.2321825  34.7371483   4.0888762  56.4321060  85.6454620
   4.7128282  55.7982979  85.9993057   3.8127251  56.9457321  86.4045105
  77.6129456  16.4468670   7.4628639  76.9808884  15.7958994   7.1579471
  77.0797272  17.1151619   7.8933139   3.4387507  60.0341721  52.4457626
   3.4222097  60.0458946  51.4887772   2.6958389  59.4828377  52.6914139
  63.8438568  54.0420914  82.0119400  63.3454857  54.7805824  81.6619568
  64.0979233  53.5370445  81.2395401  26.9456673  64.8362350  34.5880013
  26.3236160  65.2578506  35.1808968  27.6996403  64.6286697  35.1399727
  36.4389267  36.7922134  15.4294014  36.4365387  36.8974686  14.4780083
  37.3464470  36.5766258  15.6442471  41.9010086  66.7856293  18.0982056
  42.3545456  66.7138672  18.9380798  42.0229263  67.6985092  17.8373966
  20.1228485  29.2192097  73.8804703  20.7544937  29.5488529  73.2412567
  19.3144264  29.1042557  73.3809967   3.5278244  13.1912279  35.7884064
   3.9126763  12.9273701  36.6241684   4.2238727  13.6782694  35.3473396
  20.9413605  64.1053925  61.1573906  21.4723434  64.8826141  60.9835892
  20.0392227  64.4252930  61.1509285   8.0439720  38.1277237  73.2706909
   7.9715562  38.6918526  74.0405884   7.4700828  37.3860168  73.4624023
  32.5828896  26.3337574  83.4982376  32.9605408  25.6243439  84.0181808
  32.0442352  25.8900242  82.8431168  56.5092468  64.4134979   0.5443645
  57.3474808  64.8573074   0.6732925  56.4564552  63.7869644   1.2661015
  64.3697815  48.3918686  47.6307716  63.7971954  48.5601425  46.8824005
  64.1892548  49.1104507  48.2368126   4.1162100   9.1889067  16.8573017
   3.3856664   9.6032295  16.3980904   4.4452324   8.5336857  16.2419472
   5.8432107  22.3882103  26.2340908   6.1749420  22.7698421  27.0468292
   5.4930811  23.1329498  25.7452126  49.5388260  40.1790314  65.5723572
  49.9400558  39.8157005  66.3618088  49.8777199  39.6367188  64.8601227
  62.7329102  52.3552437  23.6911087  62.4351578  51.4472771  23.6348057
  62.3380623  52.6872292  24.4974060  62.6345787   3.2592092  30.2790318
  63.5414276   3.0808067  30.0299702  62.5026550   2.7538490  31.0811787
  82.7038193  34.5259666  27.5177917  83.4066772  34.3851547  28.1521358
  82.7140579  35.4690628  27.3543892  44.9409523  13.0669184  63.9678230
  44.1262016  13.5608635  63.8760147  45.6045341  13.6209345  63.5567780
  49.6699448  59.4680443  52.1767120  50.2924957  59.8090591  52.8188744
  50.2174606  59.1359520  51.4652557  38.0341606  49.4021683  81.1754150
  37.4065971  50.0661888  80.8899765  38.3513298  49.0074844  80.3630981
  45.2886581  23.8138695  16.4964924  46.0095329  23.1843052  16.5112762
  45.0049667  23.8317280  15.5824728  35.0079079  11.5006304  79.0334015
  35.0532761  12.4415731  79.2031097  35.5641212  11.3686314  78.2656555
  54.6631355  15.7747517   7.5532417  55.3644676  15.2503471   7.9397192
  55.0832214  16.6030807   7.3216610  64.7314377  61.7000198  81.1556473
  63.7807617  61.7103806  81.2667160  65.0003891  60.8382797  81.4739304
  77.7478943  43.3037643  73.9909592  77.8649216  42.4740677  74.4537125
  78.2433701  43.9385719  74.5084076  81.8030472  49.9552612  66.8740082
  82.1965179  49.1029243  66.6870880  81.8169250  50.0212517  67.8288269
  59.8637543  30.9148808   5.9855194  59.8203354  31.8424301   6.2178993
  60.7815933  30.6775551   6.1177235  79.2889481  47.7560349  67.8051605
  78.5998154  48.2504425  67.3614349  79.6151276  47.1499557  67.1399536
  25.7295036  15.1320906  68.8151321  24.7763481  15.0636950  68.8703537
  25.9566383  14.6681376  68.0092850   0.9931980  19.3911495  54.6833992
   1.2178611  20.0401325  54.0166321   1.7375681  18.7894306  54.6923790
  50.3379898  16.1923752  35.4117813  50.9124222  16.8141441  35.8586159
  50.9354477  15.5951767  34.9616356  39.9143906  69.8027191  88.0763550
  40.8323860  69.8718185  88.3385391  39.4255829  70.1528931  88.8211212
  56.7402344   3.6899519  14.3279257  57.1553650   2.8845236  14.0194101
  56.9958038   3.7538288  15.2481623  51.6797218  57.1109467  52.7218895
  51.1450691  57.2656517  53.5006332  52.2827530  57.8537865  52.6939354
  73.6641464  53.8882332  47.2725410  74.1900406  53.7658577  48.0629120
  73.7325516  54.8237381  47.0818062  77.5930862   2.6095421   4.3879681
  77.9824371   3.3178859   3.8752458  76.6576309   2.8117890   4.4041553
  73.6021957  48.8256264  40.3858681  72.6904831  49.0321999  40.1800995
  73.7520599  49.2289352  41.2409210  34.6908989  46.6481590  11.9167767
  34.0291634  46.1510391  11.4359312  35.1261673  47.1768303  11.2479868
  14.1217127  44.3387184  17.4908447  14.8761864  44.7878571  17.1096954
  14.5016127  43.6254883  18.0038853  70.9018936  32.0760422  12.7205820
  71.7116165  32.3738518  13.1351910  70.2084808  32.5442924  13.1855001
  17.9472675  33.4844398  53.8923569  17.9752789  34.4047470  53.6306648
  17.4253006  33.4793663  54.6947021  84.6249542   9.3725729  86.7123413
  84.3268890  10.0442715  87.3257065  85.5741577   9.4892654  86.6720352
  82.8128052  65.7823868  45.7111015  83.5132599  65.4372559  45.1574860
  82.1219559  65.1215897  45.6630745  77.6664581   8.0549059  20.8179150
  77.4044647   7.1426921  20.9422436  77.1583786   8.5407009  21.4675980
  12.9944477  56.2939987  24.4260273  12.0887117  56.1668816  24.1436882
  13.1146402  55.6636391  25.1362629  71.4932938  18.2253666   4.0115280
  72.2212677  18.8421497   4.0880585  71.9014664  17.4069653   3.7289543
  71.6138535  59.6136360  57.8930016  72.0573120  60.2106628  58.4956055
  70.6866989  59.8378372  57.9727173  50.7355766   3.1868467  47.5233116
  50.6363831   2.2887721  47.8393097  50.3112488   3.7243204  48.1921158
  79.9228821  11.3929825  86.5167236  79.6571121  10.8579721  87.2646332
  80.0676346  12.2645273  86.8850861  39.6629715  65.4507675  67.8171921
  38.8779182  65.1398697  67.3663406  40.0608635  66.0703506  67.2056122
  51.0501595  32.4650192  14.9486609  50.4626923  33.1685257  15.2247028
  51.6850700  32.8943253  14.3752356  77.1322098  71.0517578  35.3761063
  77.7039261  71.7640228  35.0896835  76.4233246  71.4886932  35.8481255
  61.4205399   4.1778607   2.3114114  61.3746529   5.1001530   2.5634096
  60.7328529   3.7546289   2.8254070  67.5255127  56.9866867   0.5581562
  67.9617157  56.4586411   1.2268332  67.5952988  56.4655876  -0.2417299
   0.8088284  21.9834232   2.8596311   0.3079902  22.4572067   2.1956110
   0.9952913  21.1345367   2.4585655  74.1356506  43.2779655  41.1974792
  73.4953613  43.1160889  41.8903427  74.3342743  44.2116508  41.2682838
  69.6205826  14.4622688  21.4213161  69.7978287  13.5321121  21.2812328
  69.8849487  14.6226940  22.3271904  78.3901443  57.5893631  52.3799591
  77.4559937  57.7293739  52.2250328  78.8067245  57.8092728  51.5466919
  11.8376598  54.9246712  79.2528763  12.3598757  54.1348114  79.1127014
  10.9423552  54.6037941  79.3610458  35.8016167  52.4497871  79.3079147
  35.6812973  53.3601189  79.5781937  36.7510719  52.3365211  79.2638321
  51.6651077  47.1100922  82.1497955  52.4073486  47.7035599  82.2642746
  52.0571671  46.2927132  81.8425217   9.2157869  64.7284012  13.2079144
   9.2234955  64.5908661  12.2606773   9.8484735  64.0952072  13.5470314
  11.5702839  46.6842384  86.9910507  10.8930807  46.3799019  86.3868942
  11.2378721  47.5182266  87.3230133  82.3593445  53.8089981  72.2707138
  83.1792526  54.2659798  72.0832214  82.4665680  52.9485741  71.8652496
  36.1265144  66.0157394  84.2660828  36.2701149  66.3442535  83.3785629
  35.7797127  65.1323395  84.1412964  14.2047901   4.0937276  74.0799942
  13.5438805   4.7094641  73.7632904  13.7173653   3.4820056  74.6317596
  52.4777527  29.0263844  66.7172318  52.8054314  28.1353531  66.5950699
  52.6324692  29.4559193  65.8759232  83.1239014   1.4567136   0.7681686
  83.6908875   1.6395634   1.5173872  82.8614655   2.3204873   0.4499643
  10.7325535  23.2243729  59.6384392  11.5387793  23.2648220  60.1528282
  10.0371895  23.4166927  60.2674980  57.4448509  11.6157484  70.6748123
  56.5132484  11.4450998  70.8134613  57.6646957  12.2853231  71.3225555
   4.6599665  14.5651178  73.2255249   5.4496660  14.1583195  72.8689804
   4.1771607  13.8414602  73.6248398   7.0208645  61.7390709  34.7953606
   6.8588519  61.0032768  35.3857765   7.6415119  61.3974762  34.1516647
  16.9107437  42.0204544   8.5547552  16.0834370  41.8076439   8.9866199
  17.0613461  41.2913589   7.9531150  65.2266464  69.9589691  26.5442524
  66.0019760  70.0692368  25.9938583  64.7833939  69.1915054  26.1826363
  84.7356644  15.1963711  55.9285469  84.9530563  15.5245981  55.0560532
  84.0902176  14.5072489  55.7712479  81.8139725   2.3388815  19.7304096
  82.6006622   2.0299897  20.1797867  81.8072510   1.8590575  18.9021854
  70.4489670   2.3568902  28.3081360  70.1353912   3.0975852  28.8270493
  71.0905838   1.9242957  28.8715363  15.2168570  57.7137833  54.0270996
  15.2498932  58.6406364  53.7902908  15.8970594  57.6122894  54.6928749
  80.6589203  30.6567402  16.7748013  81.0841675  30.6201744  17.6315727
  80.8169403  29.7937851  16.3919544  61.5198784  49.4166145  20.7185745
  61.2222481  48.8818436  19.9825954  61.0636177  50.2508354  20.6084385
  60.7211685   0.7699941  60.4207573  61.4710388   1.0229188  60.9592361
  60.0804977   0.4314604  61.0461922  83.8266678  37.6421623   7.3837786
  83.4547195  37.0277061   8.0164976  84.7731018  37.5690956   7.5068512
  81.9329605   3.1664345  25.3645248  81.2852097   3.2421174  26.0651836
  81.5349350   2.5660210  24.7341995  71.3177338  12.3241444  34.8584824
  70.4701920  11.9150095  34.6838264  71.7742615  11.6986141  35.4210930
  27.1432190   3.6013041  19.8839073  26.2036362   3.7629037  19.7984562
  27.4479294   3.4788358  18.9848061  73.9596329  38.2141037  85.4137878
  74.1109238  39.1074028  85.1049805  74.7225952  37.7229080  85.1090698
   5.3483133  54.6794205   1.4721466   5.0764327  54.3306084   2.3210540
   5.5480556  53.9041328   0.9474911  48.4330711  70.0102081  86.1129761
  49.2844658  70.3170090  86.4247894  48.2562141  69.2258682  86.6323776
   1.5852015   2.6936495  81.9361496   2.4640555   2.3264406  82.0310440
   1.2020741   2.6270552  82.8107986   0.5124151  49.9967918  87.6463699
   1.0027395  49.2053871  87.8688431  -0.1535397  50.0661697  88.3304214
  44.3434830  67.9522171  46.1999779  45.2884445  68.0226822  46.3353081
  44.1499138  67.0253372  46.3401680  31.0138264  36.3945961  66.0442200
  30.1752434  35.9664497  66.2165680  30.8886318  36.8374252  65.2049026
  24.3388615  22.3129406  75.7895737  24.7906189  23.1518326  75.8812714
  24.7288189  21.9147110  75.0113907  54.5638428  64.1501923  70.9824905
  53.6835022  63.7986259  70.8496780  54.8927612  63.6875267  71.7531967
  33.5022964   5.1913595  67.4684830  34.2397079   4.6229682  67.6907272
  33.0591164   4.7390785  66.7506638  17.0299854   6.4120793  56.2187004
  16.9235477   5.6306262  55.6762657  17.3785038   6.0828991  57.0471954
  84.5284042  67.4256134  86.6459198  84.3259659  68.0860367  85.9832764
  84.8915100  66.6919708  86.1497803  76.3354645  49.2564392  23.6541386
  77.1183929  48.7778397  23.9265461  76.3312988  50.0408592  24.2026787
  80.2191849  66.8497314  79.9993286  79.7539215  66.1926575  79.4816208
  79.5580597  67.5143661  80.1927643  51.8550873  61.9183121  61.7304344
  50.9743309  61.8783569  62.1031342  52.4009247  61.4390945  62.3538475
  67.0418396  64.9745102   3.2987349  66.4980545  64.2272415   3.0495062
  66.5267258  65.7405624   3.0456436  78.2292404  29.9126129  11.4381676
  78.9671783  29.3677845  11.7117233  78.5591812  30.4019032  10.6845350
  79.3428879  59.5337029  35.2985344  78.4667892  59.1481133  35.2976952
  79.4600677  59.8600883  36.1907082  66.1394119  10.9969492  35.7665024
  66.5497894  10.1452322  35.6168327  65.9915161  11.3490982  34.8888054
  67.3303833  28.8954144  62.9240685  67.2399597  29.8481503  62.9427834
  66.9378967  28.6013832  63.7460976  73.6838837  20.5068970  20.1691151
  73.1602631  20.1089268  19.4736462  73.8057709  21.4137516  19.8880615
  32.0354691  48.0492935  77.3245316  32.0258217  47.0921631  77.3183517
  32.8476791  48.2777176  77.7765961  47.2074966  46.3242111  74.5171814
  46.3042641  46.6380310  74.5609894  47.4542999  46.4322243  73.5986786
  33.8462296  43.2502060  26.0290184  33.8076630  43.7613373  26.8374062
  34.2075806  42.4052811  26.2968864  40.4018593  43.8129959   3.9398291
  40.4591789  43.2790031   4.7321649  39.6381111  44.3720703   4.0825191
  53.2344818  44.9980164  73.9093704  53.0017281  45.1093941  72.9876022
  52.4004059  44.8318787  74.3486252  39.1720695  28.1462708  59.6158333
  38.7426262  28.1911049  58.7615509  38.5374870  28.5266514  60.2231636
  72.8712234  62.0439148  75.5282669  72.4071121  61.4362144  74.9524765
  73.4650192  62.5187035  74.9467087  46.7617950   0.2728507  41.4587898
  46.4066582   0.7773679  40.7269630  46.2615051   0.5691881  42.2191353
  78.4264450  28.3423824  61.0234985  78.3527832  27.6836090  61.7140236
  78.1020813  29.1481781  61.4256325  59.7306328  18.1806030  21.0339127
  59.6655350  17.2261295  21.0026779  60.3872795  18.3539391  21.7084503
  19.5723114  65.4518204  21.8853378  19.1150646  66.2388611  21.5891438
  20.4663906  65.7456894  22.0599785   8.6090784   9.3521070   7.4335833
   7.8053184   9.4555693   6.9241748   8.8913546  10.2475166   7.6201110
  10.0298452  47.6233101  78.8034134  10.9847651  47.6681137  78.7549133
   9.8098783  48.0759850  79.6176224  85.4204178  68.4879303  47.0346794
  84.7068939  68.7925644  47.5953217  85.1892395  68.8023987  46.1606674
  86.0661697   3.3067126   5.7450781  86.0971680   2.4055815   6.0663781
  85.7765350   3.2271125   4.8362303  60.8344116   7.0005212  47.9320602
  61.5652161   6.3995051  47.7873650  61.1726532   7.8565326  47.6692505
  71.6880798  71.3648758  40.4062996  71.3855133  72.2403107  40.6477242
  70.8943787  70.9032898  40.1357193  82.1985321  27.8844128  15.6250992
  81.3901291  27.4366550  15.8745546  82.0145645  28.2454300  14.7578878
  69.0507126  31.7777882  73.4806366  68.4599380  31.7051907  72.7310104
  69.6182022  31.0098724  73.4136047  66.7969971  26.1460819   8.4244223
  66.7808456  27.0872917   8.2509403  65.9135437  25.8475437   8.2085209
  63.8266182  64.8309174  72.9825592  64.5500412  64.8246307  72.3557739
  63.7128296  65.7542648  73.2077484  79.8984451   3.8073337  31.5045757
  79.4070892   4.5416775  31.8727283  80.6007462   4.2179279  31.0001717
  42.1870155  64.0023041  50.7486801  42.7662888  63.5708809  51.3768158
  42.5621033  64.8759460  50.6378326  78.4187469  59.1532555  54.9596786
  78.5442657  58.6126328  54.1798058  79.2978516  59.4588928  55.1832657
  55.9365082  52.1279907  86.6863174  55.9308319  51.5991325  85.8885040
  56.2430038  51.5299301  87.3679504   5.7208133   2.9148262  52.7145615
   5.3068199   2.9862564  51.8544846   5.0159564   3.0983319  53.3356400
  11.5449009  31.0831699  63.7318916  10.8470173  30.6264629  64.2015839
  11.6379223  30.5991383  62.9113464  69.9628983  17.6041775  34.6985474
  69.7175446  17.8276920  35.5963631  70.3298569  16.7224617  34.7629776
  41.4656944  61.2401009  29.8491211  42.1081810  60.6837082  30.2894287
  41.0793457  60.6759338  29.1792831  64.3241653  31.2092400  66.7010956
  63.7732811  31.9722576  66.8759232  63.8859596  30.7576675  65.9797821
  82.2066116  26.3306084  78.1834259  82.6654739  25.6981144  78.7362671
  81.9049911  25.8184509  77.4331284  70.9848633  29.0085583   7.2498379
  71.3186340  29.2738400   8.1068411  70.3339005  28.3343468   7.4445510
  45.7460823  63.8270607  52.2462730  45.8016891  64.5013885  52.9233437
  45.1763611  63.1562119  52.6225853  12.6105728  35.4717865  56.5129738
  12.5908670  36.4268265  56.4517708  12.3254166  35.1705666  55.6503143
  43.3781967   1.2215301  62.8696747  43.9443588   1.4555382  62.1341934
  43.7381287   1.7060202  63.6126099  55.0488930  22.8330784  32.2104607
  54.3935890  23.3485126  32.6807098  55.3274689  23.3991852  31.4906330
  78.9532928   4.7282681  80.8615417  78.9993057   4.1637273  81.6331711
  78.2913742   4.3188386  80.3043518  40.9993515  46.6457481  23.2187462
  40.6375961  47.1140747  23.9710999  41.0538216  47.3068619  22.5286789
  27.6764317  61.4635963  25.8326893  28.0221157  60.8625908  25.1727448
  27.6463776  62.3124275  25.3913155  46.6864471  20.4504280  22.8906040
  46.5672112  19.5006886  22.8939037  47.2331581  20.6258450  23.6564808
  62.0533218  39.8085785  48.3128471  62.1581802  40.6002350  48.8405952
  62.3487549  40.0626869  47.4385605  59.7452583  39.3224182  35.9414558
  59.2142639  40.0938683  36.1393127  59.1154480  38.6029282  35.8978157
  35.0771446  15.1955662   5.8914132  34.9309845  14.2647543   6.0601034
  34.4262161  15.4238100   5.2277656  53.9625511  51.2303543  63.0072327
  53.0460625  51.1201019  62.7539978  54.2648315  50.3438301  63.2045364
   5.9485497  59.1095810  20.5689468   6.0457444  58.3978615  19.9363003
   6.4928594  59.8156967  20.2205791  82.4206696  26.8632126  60.3923531
  82.9489670  27.1467934  59.6462135  81.5467377  26.7234993  60.0277328
  73.8697968   1.3687172  50.1427841  73.4600677   0.5049614  50.0950508
  73.1449203   1.9840761  50.0327034   5.4722733  52.3421593  89.1825485
   6.2034626  51.7312660  89.0908585   4.8232322  52.0356407  88.5492859
  73.8098373  28.8274117  52.6012917  73.5361786  27.9193668  52.4716949
  74.5107727  28.7759018  53.2511177  56.6203728  27.5349712  84.3405457
  55.9152145  26.9407120  84.5971298  56.1712532  28.2872887  83.9551315
  52.9188652  65.1641159   3.5208020  53.5734215  65.7768631   3.1856513
  52.0853844  65.4999237   3.1909959  84.0994797  65.1709366  63.8397255
  84.7128372  65.1912766  63.1051483  83.6222076  65.9982300  63.7762260
  52.0731239  14.3857975  17.5695286  51.2529068  14.0400448  17.9215603
  51.8418274  14.7121773  16.6999245  30.4639015  40.7154274  -0.1089289
  31.3648834  41.0336990  -0.1652047  30.0052071  41.3836403   0.4003102
  69.4345398  38.2896919  16.4540806  70.1246719  38.8809586  16.7546749
  69.8469696  37.4259644  16.4434566  58.9630165  27.4932709  59.8466721
  58.1016312  27.2229633  59.5285912  58.7746582  28.1253853  60.5403481
  34.1958847  57.4253807  26.8068008  33.4425507  56.8468246  26.6885204
  34.8645134  57.0708389  26.2207375  49.8259697  42.9289398  57.7902451
  49.0635872  42.7168465  58.3287849  49.4567680  43.2858086  56.9824257
  22.0940094   2.8659480  16.4124870  23.0384789   2.9135442  16.5606136
  21.9442158   1.9711336  16.1073627  53.9437294  18.2636642  50.5959549
  54.6139259  18.2952900  49.9132652  53.5490799  19.1356487  50.5847397
  79.6824951  25.5727844  54.6850662  79.8982849  26.4420815  54.3474426
  79.1479797  25.1748581  53.9979172  73.0834732  44.7385826  88.6677780
  72.7905350  45.6125069  88.4095612  73.4206085  44.8518295  89.5564499
  57.5363045  67.8834229  86.5582657  57.5437927  67.0027161  86.1833801
  56.6742859  68.2326965  86.3320618  46.1565628  49.4911385  64.6729813
  46.1491737  49.5043068  63.7159004  45.2443314  49.3352127  64.9174194
  58.4998016  33.0708160  80.3346863  58.8176498  33.5180969  79.5503769
  57.7101021  32.6133194  80.0460663   2.6456511  65.6925964  47.3416939
   3.1724997  64.8980408  47.2559967   1.8039004  65.4656143  46.9465141
  57.5901527  52.6164856  20.0786304  57.1478233  52.8243484  19.2556076
  57.4237366  53.3750420  20.6382122  52.9405708  53.2782249  43.2018204
  52.7201233  53.2996140  42.2705956  52.5390587  52.4714584  43.5245323
  18.7865715  22.8428993   8.0581102  18.9806366  23.5733776   8.6454544
  18.7919960  22.0717163   8.6251020  78.4904099   7.3683381  24.6388035
  78.9577713   7.5757232  23.8296070  78.4104004   8.2081165  25.0911331
   1.0489877  14.8342581  47.6307755   0.4442597  14.2625589  47.1578102
   0.4941453  15.3122644  48.2471313  53.4356880  25.3809261  73.0683060
  54.1030960  25.3636017  72.3823776  52.6045456  25.3904266  72.5936050
   8.0836210   2.6173577  18.2283344   7.5243311   2.7812409  18.9876556
   7.8607688   1.7277184  17.9542694  78.2473602  66.8304672  88.3249512
  77.9227448  66.4859848  89.1569366  77.7932892  66.3146286  87.6586456
  35.1555099  16.1413898  70.4083557  35.2076530  17.0610161  70.1479645
  35.9246407  16.0051384  70.9616241  69.7439575  46.9165306  19.9025784
  70.5308990  46.3832245  20.0145550  69.0739441  46.2970543  19.6134987
  21.5771523  22.0158920  87.7875824  22.1061649  22.7192764  88.1639175
  20.9453983  21.7983646  88.4730072  12.2038107  23.6386414   8.4191523
  13.0060749  23.2471848   8.0736589  11.9411926  23.0566730   9.1322975
  42.3840904  60.1023941  57.7519073  41.9705696  60.8626671  57.3429832
  42.4185562  59.4455528  57.0564919  58.9086113   8.6694584  13.2738085
  58.6002312   8.2325974  12.4799042  59.0818710   7.9559484  13.8879070
  13.7816877  57.7475624  37.4925728  13.7571783  57.9101944  36.5496063
  13.0789061  57.1158257  37.6450119  19.2841377  66.4686890  53.8782883
  18.4905071  65.9792175  53.6619568  19.0345726  67.3870697  53.7756805
  76.4465179  41.0911179  48.4698181  76.0507812  41.0684547  49.3410873
  76.1494446  41.9194984  48.0933037  78.3577881  20.0572701  19.4750786
  79.1541290  20.3400288  19.9246540  77.8737030  20.8670368  19.3132935
  49.7223434  27.4756565  52.7054138  50.2268639  27.2046661  51.9384308
  49.7392654  26.7137890  53.2846375  73.7624130  53.1666603  58.8301697
  73.2786942  53.7718430  58.2680283  73.0838470  52.6822128  59.3003654
  14.5222845  49.2924118  35.7305717  13.7628098  48.9988136  36.2337914
  14.8935003  50.0049095  36.2509346  58.5143471   1.4323997  83.7614441
  58.1861992   1.4528993  84.6604080  59.0138855   2.2438061  83.6702652
  29.0089111  62.5595894  31.1352921  29.0729828  62.4257011  32.0809135
  29.8174267  63.0161438  30.9027100  63.7294388  47.0181198  87.2654953
  64.0841217  47.8939476  87.4183273  62.8026810  47.1647072  87.0761185
  62.1821899  63.4559669  74.6402740  61.4791489  63.9972382  74.2811203
  62.9843941  63.8384552  74.2847366  40.4113808  14.5477247  75.8461685
  39.6881714  14.9573441  76.3209381  41.0765495  15.2333212  75.7850113
  57.3125610  49.5680962  81.2641525  57.4980621  50.4843559  81.4697952
  57.3566322  49.1194458  82.1085510   6.4323769  65.0806656   5.9043798
   6.3641043  64.1301956   5.9947929   6.9266367  65.2093582   5.0948267
  80.6510391   3.4377508  41.0294495  80.3288498   2.6526673  41.4722443
  80.6624527   3.2019005  40.1018295  71.7327652  22.6835976  46.2082939
  72.4077988  23.3622169  46.2021255  72.1393127  21.9454918  46.6623306
  10.4951448  21.8671436  57.0085487  10.6017532  20.9566402  57.2839584
   9.8779984  22.2375431  57.6395531  61.8996277  19.5793247  84.8366013
  62.4603958  19.4493465  85.6013718  61.4000435  18.7659950  84.7649155
  48.9331474  10.7837257  18.2988892  48.1044350  10.7983122  18.7776947
  49.5858345  11.0623035  18.9412498  47.6012764  18.6463089  36.5893669
  48.0918732  19.0032024  35.8489799  47.4845772  19.3902340  37.1802902
  59.2775345  41.9466896  46.5613480  59.1170006  42.5775414  47.2631226
  60.1802254  42.1142082  46.2905693  71.1146851  66.8522720  50.9566231
  70.5632172  67.1220474  50.2222328  71.0617065  65.8965378  50.9574966
  30.5804520  25.0702953  70.6001816  30.1898956  25.9362221  70.7179413
  31.0506039  24.9064083  71.4176941  25.6367435   0.9981062  66.5292435
  26.2342091   1.7405907  66.4398956  25.7720757   0.4846033  65.7328568
  12.8266535   5.5892591  69.5570755  13.2348766   5.5668259  68.6915817
  13.1210804   4.7835159  69.9817200  22.0929756  29.6559086   6.9595919
  21.6042175  30.1404877   6.2943616  21.9792976  30.1676273   7.7605004
  24.1527405  25.6712379  68.3823395  23.3004246  26.0771751  68.5404739
  24.5009060  25.4968529  69.2567596  13.4285936  64.5580292   5.8662963
  14.3050776  64.4488373   6.2351928  12.8752279  64.7624664   6.6201048
  52.0777626  16.8058643  53.0869560  51.3433228  16.3164349  52.7164268
  52.7952385  16.1730881  53.1193848  53.9657974  32.4956627  62.2006187
  53.2123756  33.0659027  62.3536377  54.6044731  32.7597504  62.8628769
  33.3813820   7.8231645  64.4554062  32.5155067   8.0388613  64.8017807
  33.8631172   8.6498470  64.4829712  73.4936447  45.6073494  31.6314507
  73.3067627  46.4816017  31.9734936  73.3163452  45.0198174  32.3660278
  65.3852081  19.5694199   1.6115078  66.0833206  19.5857220   2.2661812
  65.6743088  18.9213047   0.9691695  20.9803391  52.3160858  49.5641212
  20.2133236  51.8214302  49.2756119  20.6955051  53.2298050  49.5494118
   3.7289000  13.5302420  27.3877106   4.1519065  12.7158394  27.6598244
   3.5620544  13.9984217  28.2057590  21.0703468  71.4273758  26.2547321
  21.2160339  71.2761459  25.3208504  20.2362385  70.9958878  26.4399776
  47.1441727  52.8655472  36.1717491  46.9484100  52.5570755  35.2870178
  46.3445473  52.6918221  36.6683884   4.7833819  27.0100842  58.9498825
   5.2744541  27.6679840  59.4420700   3.9873738  27.4634495  58.6722794
  10.9141197  63.3987312  17.4151154  11.8570118  63.5563354  17.3666821
  10.6066113  63.9938927  18.0988197  76.2968750  34.0700874  73.2465057
  76.9181747  33.4374237  73.6070023  75.9856949  34.5604286  74.0073929
  84.1667709  33.9781227  10.5626831  84.5783081  33.2032166  10.1800690
  84.1453476  33.7984962  11.5026331  82.0363159  28.0198956  65.9202576
  82.0046616  28.9409389  66.1789169  82.6016235  28.0073109  65.1479187
  10.5474548  39.6336288  64.1791611   9.9523706  40.0676842  63.5678444
  10.1037979  38.8162727  64.4057159  65.2502136  14.9990406  55.4128799
  65.3811798  15.7866602  54.8849258  64.6095505  14.4850292  54.9213829
  78.1962280  39.6082420  20.4701900  78.7333069  40.3482094  20.1869411
  78.8022156  39.0411148  20.9470329  31.2449646  37.7707405  81.5103683
  31.8645477  37.0700836  81.3068237  31.4598770  38.4679871  80.8907776
  26.9303627  16.5996017   8.1249237  27.3473530  17.0376358   8.8668652
  26.6402206  15.7577143   8.4760303  61.0413704  54.9270363  54.7262993
  60.3622818  54.8226891  55.3927727  61.5614357  55.6715279  55.0287819
   6.3760562   0.6993348  38.0837479   7.0631118   1.1899188  37.6326218
   5.9107976   0.2404407  37.3843346  28.4010010  24.6231556  72.7491379
  27.8725147  24.0178108  73.2692261  29.3048038  24.3544521  72.9139786
  67.4626465  65.3910141  28.7378712  67.4263229  65.3297653  27.7833233
  67.5176697  66.3299332  28.9157143  63.0296822  16.0461063  86.5432129
  63.3147850  16.9318829  86.3188324  62.0785065  16.0667782  86.4379883
  82.3991699   7.2987137  45.9082985  82.9100800   6.6491504  46.3912811
  81.9375763   7.7925210  46.5860329   1.2728207  63.1249771  14.3113585
   0.3758748  62.8148918  14.4361277   1.1816978  63.9114532  13.7734146
  43.3905678  26.9130344  84.7183990  42.5918617  26.3919697  84.6359787
  44.0744057  26.3659210  84.3320541  17.5578556  36.1810341  76.2972641
  17.2684307  37.0220528  75.9434967  18.1109619  36.4126282  77.0433731
  71.2389908  37.0788345  58.6510696  70.6805420  37.6732330  58.1500206
  72.1283875  37.3953094  58.4927750  29.5827808  40.0926743  77.7793427
  28.9237995  40.1727982  77.0897369  29.2635040  39.3810425  78.3342056
  49.7655334  63.3013077  32.7200050  50.3081894  64.0645294  32.9181175
  49.6401901  63.3361969  31.7716885  43.5395203   3.4567864  50.6099243
  43.0546608   4.2048831  50.9584885  42.9632378   2.7072365  50.7592850
  69.0219574  63.2691269  80.9514618  69.2866135  62.4975014  80.4506760
  68.3858032  63.7123528  80.3901291  66.0140228  69.1184387  30.8304043
  65.3057098  69.7030869  31.1000671  65.6403732  68.6034698  30.1152630
  53.5321693   3.2336478  81.6523132  54.2740517   3.7313960  81.9959564
  53.7550583   3.0739889  80.7352219  25.4832058  51.9377403  86.4092331
  26.0772648  52.6351280  86.6866837  24.6083260  52.2854042  86.5822830
   4.9827094   3.6615341  80.0391998   4.5809617   4.2163129  79.3705826
   4.5459671   2.8153017  79.9423523  73.9391327  37.1579704  76.0668335
  74.1561584  36.4149818  76.6299515  74.5885162  37.8250046  76.2895355
  66.4014053  47.7252541  58.1811066  66.8709335  48.5593491  58.1889153
  67.0836716  47.0675964  58.0460930   7.0247774  71.1771622  47.7907410
   6.4440446  70.8830261  47.0889816   7.7009206  70.5014954  47.8410950
  14.6474094  30.3073139  86.5466537  15.2041578  30.0239143  85.8214340
  14.6100845  29.5495186  87.1302567  71.3274231  27.1908436  53.8669662
  72.1764297  27.0061493  53.4653358  71.5395584  27.4715023  54.7571678
  69.0407104  35.0379791  38.6408424  68.2525787  34.4949646  38.6262627
  69.1632385  35.3067818  37.7303658  76.5656662  33.6631622  46.7647133
  76.9294281  33.5153275  47.6376724  76.0271225  34.4487877  46.8595428
  63.5421181  13.9790268  88.7334290  63.3076744  13.1068115  88.4163971
  63.1726379  14.5772629  88.0839462   3.0351028  41.0501938  64.5400009
   2.3476782  41.0985985  65.2043304   2.6015341  41.3104973  63.7272949
   1.0448865  45.4193726  81.6795883   1.0036004  45.1952477  80.7499161
   1.0639173  46.3762627  81.6946564  40.8226776  42.9059525  73.5823975
  41.7141113  42.5795135  73.7049255  40.8526344  43.8088417  73.8988190
  13.4204092   1.2823042  87.9932480  14.2934990   1.0331215  87.6901779
  12.8856096   0.5012454  87.8512344  57.0565033  21.4728794  62.0491791
  56.1367111  21.4306507  62.3107681  57.3145523  20.5585346  61.9324989
  75.7352905  65.4171982   7.9183688  76.1780930  65.4975128   7.0735574
  76.4435577  65.2838898   8.5483055  55.9462395  53.7602386   9.8762703
  55.9337997  54.6425171  10.2472944  55.0551910  53.6230850   9.5546236
  74.8693924  10.3247223  14.7540426  73.9797058  10.2716999  15.1031570
  75.2650833  11.0626755  15.2178144  18.1284771  17.7754860  76.1597977
  18.3508110  18.6774235  76.3906860  18.2515545  17.7337303  75.2114639
  47.9460602  54.3996429  31.6315193  48.6499634  54.6435890  31.0304832
  47.8975525  55.1273155  32.2514954  20.6213341  68.3244324  48.9009056
  20.3973408  68.9741287  48.2346039  21.4123821  67.9015732  48.5667343
  51.7170372  11.5184231  19.9166470  52.1951256  12.0493364  20.5536671
  51.2539978  10.8688288  20.4456577  71.7367249  63.7444572   4.8662653
  70.9251099  64.2382889   4.7494593  71.5339203  63.1093559   5.5531044
  81.2750854  16.8005409  17.1345940  80.9315338  16.1671658  16.5044804
  80.5703354  17.4395866  17.2403221  85.3714371   1.5321658  48.4037933
  85.6197662   2.2220037  49.0191689  85.8866959   0.7724307  48.6749725
  16.1697369  52.7962227  14.0795269  16.3036442  53.6039848  14.5753298
  16.4510860  53.0115585  13.1903114  38.5463371   6.6892552   0.5336657
  38.1665878   6.9146271  -0.3155863  39.0291977   7.4730959   0.7957194
  81.1815186  48.0064697  33.5048256  80.7725906  48.8718719  33.5143013
  81.7778549  48.0315247  32.7565041  53.0885048  56.5926743  63.5806122
  53.4252319  55.6996269  63.5077209  53.0816193  56.9202003  62.6812172
  18.1042881  18.3261337  57.4976082  18.6859283  17.9232540  56.8529282
  18.1908379  19.2668629  57.3434258  18.4003506  65.8522415  11.9330168
  17.9655266  65.0055542  12.0344133  17.7025967  66.4489212  11.6621904
  62.1744957  32.1668434  48.8720894  63.0062141  31.7029648  48.9684982
  61.9254799  32.0247803  47.9588318  14.7490864  71.6113892  84.7290497
  13.9118576  71.4079971  85.1460724  14.9149532  70.8677750  84.1496124
  26.2583885   4.9174519  83.7154160  26.6906052   5.7470489  83.5124664
  26.6343021   4.2933698  83.0945816  37.8414917  20.0653400  73.7187119
  37.4294968  20.5828552  74.4105759  38.7810440  20.1666126  73.8710861
  33.1014709  53.3119202  37.1791878  33.1904716  52.5282974  36.6367455
  33.9594574  53.7337952  37.1331596   6.1455235  21.7763290  10.3132086
   6.9649291  21.5818329   9.8582611   5.8576903  22.6104107   9.9421368
  50.8162498  70.6251907  24.3316040  51.4935417  70.9795761  23.7554855
  50.1663742  71.3250046  24.3960209  55.5439262  14.5369177  72.7002335
  55.9385300  15.3173494  73.0893936  55.7727203  13.8278332  73.3011398
  85.2753296   1.6070950  63.2153740  85.7974319   1.7092940  64.0111160
  84.4155350   1.9588004  63.4462242  26.5875931  30.2094746  73.0098343
  25.7822380  30.1191101  72.5004501  27.1870327  29.5696907  72.6256714
  69.3598328  64.8582001   4.8572602  68.6658859  65.3861923   4.4624276
  69.2569275  64.9931870   5.7992907  21.1862125  56.3871918  10.5126629
  21.6202908  56.3959389  11.3657351  20.4205666  55.8268394  10.6392536
  41.9591484  68.7554398  81.4110184  41.1187820  69.1127548  81.6979828
  42.4054375  68.5120773  82.2220917  50.3889160  59.8022270   5.7548642
  50.1124115  60.6742439   5.4731479  50.1596069  59.2300339   5.0225759
  80.5412903  62.6442490  48.6778259  81.4420853  62.9100189  48.8626633
  80.0101929  63.3928947  48.9493065  69.5686798  12.5591621  76.9857330
  70.1369019  11.9570818  77.4662094  70.0878296  12.8238955  76.2263641
   4.1311216  46.3762856  10.1977625   4.2656894  47.3175926  10.0879269
   3.8470509  46.2793961  11.1066895  35.7843704  47.9266434  50.3331985
  36.4971771  47.2920685  50.4070435  35.5995331  47.9711304  49.3950653
  31.8845901  28.7687950  84.0391312  32.0822639  27.9314823  83.6195297
  30.9545441  28.9112148  83.8631668  76.6003723  46.8156776  78.7648010
  77.3356628  47.1144600  79.2998734  76.7433090  45.8744316  78.6655045
  30.4570732  67.1524734  21.9250393  29.7857170  66.5844803  21.5470181
  31.0202675  66.5594254  22.4223709  48.8924026  42.7564201  67.7537766
  49.4367867  43.2186699  67.1164322  48.0328789  43.1711884  67.6801529
  26.7507229   8.8254013   6.2863836  27.2217407   8.7062120   5.4616604
  25.8835449   9.1346073   6.0244174  84.9207458  21.3797932  15.9101467
  85.0887299  20.8188114  15.1529722  84.8040924  22.2543945  15.5390701
   1.7946608  44.9345322  14.4432325   1.4962739  44.5825920  15.2818823
   1.9545642  44.1612358  13.9022388  80.4318085  70.3877411  13.3355179
  81.2793732  70.4685059  13.7729425  79.9080887  69.8463364  13.9261379
  27.3588867  69.1915970  52.3758507  27.7545166  69.3253021  51.5145531
  26.4182053  69.1506958  52.2035904  68.8419495  35.1390572  72.5678253
  69.0195923  34.2730560  72.2007904  68.9140701  35.7346878  71.8219986
  29.9151840  52.4188728  51.4547310  30.2802067  51.6601715  50.9993553
  29.6356945  52.0768852  52.3039398  57.5268021   6.3684263  22.9195118
  57.5960999   6.7642765  22.0507584  58.3819771   6.5214777  23.3213615
  37.6238823  65.4300766  30.6864948  38.2536354  65.1545715  30.0203552
  36.8246155  64.9479599  30.4744492  38.4209862  46.2052383   5.6113544
  37.9992828  46.7222900   6.2976913  37.7718849  45.5413589   5.3786297
  85.9945679  65.8499298   8.1718750  86.1577530  66.7661896   8.3956480
  85.3368530  65.8864670   7.4773927  40.8585472  16.7729378   0.9537555
  41.7354355  16.4863625   0.6984660  40.4816093  16.0175896   1.4049731
  64.9042664   2.7962329  15.9590254  64.6242294   3.7111654  15.9857082
  64.2335892   2.3259404  16.4542503  49.1833420  70.7901993  55.7273216
  50.1167412  70.9643021  55.8484879  48.8529358  70.6296005  56.6112175
  67.1108932  46.3677139  43.5179482  66.1683884  46.4606705  43.6567764
  67.2691727  46.7768326  42.6671829  44.6423073  13.7148314  66.7760773
  45.0164642  14.5949478  66.7356491  45.0615501  13.2430611  66.0564194
  10.0363474  32.8528709   4.2208600  10.5449572  33.6607361   4.2908897
  10.1070089  32.6044960   3.2991505   2.1295815  38.3601265  58.5349998
   2.7863190  37.6811066  58.3805428   2.1207290  38.4729958  59.4854813
  67.3487778  13.0074348  45.2705574  67.4822693  13.5325966  46.0596161
  66.9233017  12.2090769  45.5833397  46.6372452  41.3183212  14.5566149
  46.6912117  42.0473366  15.1745577  46.9118767  40.5540466  15.0632696
  59.8553429  18.9145908  18.3856773  60.7805634  18.8434792  18.1508484
  59.8080177  18.5735073  19.2787914  21.1601791   2.6841130  49.1485558
  21.5918446   2.1961737  48.4472618  21.3647785   2.1921062  49.9437294
  47.6305656  55.1068802  38.1512108  47.2662964  55.9736481  38.3307953
  46.9154816  54.6288795  37.7312050   3.1530674  61.3436012  64.9493866
   3.1244981  62.2917557  65.0775070   3.7232304  61.2215614  64.1902771
  85.4904633  17.2751484  40.9696999  85.9938507  16.5363979  40.6275291
  85.8167419  17.3947124  41.8615952  66.8711243  32.4813042  17.5785561
  66.4828339  32.6292000  18.4408722  66.1219101  32.4178848  16.9862041
  75.2668915  55.5717010  53.1061745  76.0010147  55.1546974  52.6551704
  75.5246048  56.4902039  53.1847458  86.2291489  69.1477051  65.0104446
  86.2531357  70.0878525  65.1887054  85.3010941  68.9183502  65.0588226
  60.5905952  41.7696648  83.0518494  60.2722588  41.9513550  82.1676102
  61.2528458  41.0888634  82.9328156  59.1587601  22.5343990  68.0456161
  58.8559799  22.7967873  67.1763000  58.3589745  22.4647942  68.5668945
   3.9136941  12.6686115  62.3216248   3.0265787  12.9564543  62.1062088
   4.3412685  12.5546761  61.4728432  80.6874847  49.0310020   4.0849042
  80.5104980  48.3485184   4.7323008  79.9880524  49.6714516   4.2147231
  17.4682560  14.0644608  67.7731323  18.1978321  13.8245735  68.3444443
  17.8232651  13.9901733  66.8873062   0.0939039   6.4724388  11.7508221
   0.2126798   5.5357170  11.5937357   0.9818586   6.8101239  11.8680277
  42.7594757  44.7026253  84.4503784  42.3645668  45.5721703  84.3858032
  42.4377365  44.3546066  85.2820053  41.8887100  26.2630482  36.6400299
  42.1074486  26.8547001  37.3599815  42.1714783  25.4006901  36.9443588
  51.8967628  65.9885254  83.0955963  52.4668007  65.2196274  83.1048203
  51.6597099  66.1219559  84.0133286  14.4294157  46.7511520  38.9664726
  14.7360954  47.0442924  38.1084251  15.2021265  46.3634720  39.3773956
  10.4200583   7.7637367  32.0506096  10.5756426   8.6216202  31.6555634
   9.7942858   7.3396053  31.4634552  77.7571487   9.6462460  28.7531261
  78.0465775   9.6324205  27.8408356  76.9226913   9.1773472  28.7468014
  69.9832153   4.9826050   5.7659650  69.2172089   4.4671774   6.0185347
  70.4841690   5.0797410   6.5758066  54.8270035  34.4608688  84.5689621
  55.5624275  35.0405884  84.3706970  54.9795914  34.1804543  85.4713593
  51.1696663  70.2831573  45.8132019  50.7586441  69.5629730  46.2913475
  50.6054420  71.0371933  45.9844322   2.0685410  24.8145866  48.5091553
   1.2180971  25.2050304  48.3078346   1.9727900  23.8936558  48.2663612
  44.4645462  62.6223640  63.3932457  45.0917053  62.1844673  62.8177948
  44.7674789  63.5295601  63.4314613  59.1682205  49.2078094  41.1683006
  58.4234734  48.9057426  41.6882401  59.9366951  48.9089966  41.6545029
  76.9575043  51.9650803   6.5032611  77.4533386  52.7267418   6.2028408
  76.3283691  52.3211136   7.1306844   5.3695240  19.0808525  54.7283821
   6.1260281  19.5169353  55.1205101   4.6720009  19.7355328  54.7613373
  19.5556793   6.9002647   2.8273675  20.1277962   6.1400733   2.9323606
  20.0172882   7.4634461   2.2060976  12.5593033  12.3988972  68.8508682
  12.0871191  13.2314215  68.8375931  13.2410421  12.4995842  68.1865463
  56.1624756  45.5612793  16.4105644  56.9011841  45.6918907  17.0051079
  55.7488556  46.4223557  16.3497086   5.6172347  49.1365471  84.1231995
   5.9499192  50.0339088  84.1403732   6.3853297  48.5929451  84.2985916
  81.2462997  18.3553448  59.9546661  81.4955215  17.4909801  59.6275673
  80.5656815  18.6528091  59.3509216  10.0245876  57.5223999  81.8382950
  10.4107323  57.9110146  81.0533752   9.8562746  56.6116257  81.5966492
  75.6974030  23.9854641  45.4347572  74.8876419  24.3250771  45.8157806
  76.3384018  24.6825771  45.5739784  29.2321739  61.2469521   0.5945278
  29.2036953  60.4546318   0.0581997  28.6805840  61.0446129   1.3501993
   2.8582444  22.4858665  32.0099144   2.4192154  23.3051186  31.7812004
   3.1329906  22.1186981  31.1697140  32.3896751  54.9603310   7.6635671
  32.7130051  55.4701118   6.9207234  32.9963036  54.2229042   7.7301693
  23.8662033  55.7383385  80.2897644  23.9691029  56.0314636  81.1951523
  24.5105915  55.0375633  80.1901932   9.3681355  13.9954872  26.6974087
   9.2385693  13.1492100  27.1254959   8.9408655  13.9011602  25.8460712
  84.9426270   6.3542018  81.7759247  84.1421509   6.8781242  81.8071442
  85.6352844   6.9590678  82.0416107  72.8332138  17.3994770  15.7207680
  73.7141418  17.0890198  15.9300795  72.9392319  17.8887234  14.9049063
  56.2907410  38.3641357  24.3501034  56.3654556  37.5420685  23.8654861
  56.1356506  38.0951538  25.2555466  21.2297878  33.0287781   7.2475414
  21.8225327  32.5807457   7.8509951  20.3595352  32.7081757   7.4844065
  68.8494720  71.4692688  34.7228127  68.5150604  71.3287430  35.6086159
  68.1068726  71.2712479  34.1522293  50.0049858   3.3526769  32.8035851
  49.1965370   3.6875494  33.1915283  50.5374680   4.1328931  32.6487961
  64.3372803  52.7393684  74.9855347  63.5306702  52.2873383  75.2330933
  64.5856857  53.2317581  75.7678909  75.2767334  21.9525032  56.5905724
  74.7996140  22.2648716  55.8217964  75.2545242  22.6888409  57.2017555
  37.3334465  58.3627663  26.5908699  38.1417656  58.4494019  26.0855484
  36.6667061  58.7870026  26.0507679  18.5052948  58.6161690  83.0833664
  17.9061813  59.0902596  82.5067062  18.3318558  58.9729805  83.9544754
  82.7693405  11.2945433  74.1929169  83.0105362  11.2115307  75.1155014
  83.2982559  12.0248842  73.8718567  86.0172653  43.1501236  11.6390076
  85.3322296  43.5949059  11.1398754  85.6010208  42.9283066  12.4719372
  74.1804047  62.9169922   7.4694252  74.2118149  62.6554489   6.5491858
  74.8876266  63.5554581   7.5612364  50.5657310  28.5706730   3.3917148
  49.7730560  28.2784996   3.8417568  51.2787361  28.3355446   3.9854877
  68.1242065  61.2158813  11.9582100  68.7507706  60.5323067  12.1956320
  67.2668152  60.8153305  12.1020041  34.9785614  16.4661446  88.4546738
  34.9538460  17.1774540  89.0947266  35.5957527  16.7658577  87.7872314
  23.5932426  68.8801117  61.2226334  22.6505127  68.7214661  61.1744537
  23.7299862  69.2474442  62.0959015  55.2726784  64.0120850  67.0340805
  54.4007416  63.7588539  67.3371201  55.6607628  64.4719620  67.7784805
  71.5433578  31.7217007  21.8658352  72.3483124  31.9444313  21.3982086
  71.1308899  32.5659943  22.0482407  63.5720177  21.9068756  83.1327438
  63.2540512  21.0543957  82.8354111  62.9015808  22.2128143  83.7436066
  60.8307838  37.1255531  85.4229355  60.5275574  36.2684402  85.1235275
  60.0440331  37.6707649  85.4246445  28.7438068   6.0257111  79.8391342
  28.4175224   6.8267722  79.4291687  29.3174438   6.3325200  80.5412979
  69.9554672   2.4376049  34.0444870  69.6911087   2.4377213  33.1245155
  69.4874268   1.6959732  34.4280891  52.6650391  46.6565666  54.1383209
  52.8095512  46.3931961  53.2294846  51.9610214  47.3033829  54.0911942
  54.1743279  20.0627480   3.6639092  54.8454933  19.4139900   3.4520578
  54.1179657  20.6129360   2.8826616   1.8635823   1.1055813  64.3995285
   1.2131183   1.5609853  64.9340744   2.3953276   0.6207613  65.0307388
   9.0931253  39.4842606   8.7784967   9.4425821  40.1994972   9.3100491
   8.6358986  39.9211349   8.0599451  74.9087067  69.1856842  20.3463688
  74.3153152  69.5336456  21.0119820  75.6488113  69.7927017  20.3444118
  32.8025398  68.6118164   4.2804585  33.4882812  69.2794266   4.2975078
  32.8540726  68.2379456   3.4008017  15.1346207  61.5834503  64.3412323
  14.2571259  61.6210251  64.7217865  15.1732283  60.7286491  63.9122124
   4.6151738  71.0644073  42.5929985   4.4943271  71.7888031  41.9790993
   5.3534331  71.3340759  43.1393318  73.3618088  39.6480026  53.9776573
  74.2901917  39.8732414  53.9176369  72.9283600  40.4739647  54.1924629
  65.6286697  23.2504196   5.2635150  65.5337601  22.9327145   6.1614504
  66.5497665  23.0987053   5.0518703  34.2871590  59.9529915  41.5532990
  34.4872818  59.3575706  40.8310394  34.9608383  59.7700233  42.2082138
  85.8875504  14.0678549  74.9222412  85.1071396  13.8988142  74.3944092
  86.5635071  14.2960711  74.2840881  48.0957413  19.6001892  56.4422569
  49.0399933  19.6377106  56.2898903  47.7211113  19.4181385  55.5804329
  21.4579754   8.8378572   7.8767452  21.0141983   8.3973761   8.6015005
  21.5078621   8.1749382   7.1880641  33.3877258   0.8204554  37.5363121
  33.4234543   1.7246035  37.8485184  32.4704247   0.5673627  37.6399155
  78.8064346  38.6173515  50.5276909  77.9056244  38.9376945  50.4813576
  79.2080994  38.9130058  49.7106934  20.3474293  58.9506264  55.1953621
  20.4234467  58.7494926  56.1281013  19.6306343  59.5829506  55.1443405
  78.4591446   5.3429575  70.2618942  78.5805969   4.7835927  69.4946976
  78.8149261   4.8324580  70.9892502  17.0480633   1.7630857  17.8210316
  16.7367821   0.8799519  18.0195560  16.3282070   2.1675742  17.3368549
  83.0876236  30.3799133  77.1568832  82.7215424  29.6014385  77.5766296
  83.2400436  30.1138229  76.2501297  51.2047348  43.0916557   1.6362334
  51.5778694  43.4799461   2.4275830  50.6026230  42.4213562   1.9593258
   0.7756613  30.2372017  26.8844776   0.2955312  29.8916454  27.6370068
   0.5478121  29.6491356  26.1644135  10.2299232  66.2608948  63.8474770
   9.6474447  65.5234909  63.6653175   9.6818523  66.8882599  64.3189240
  14.6674976  44.7829323   3.6372423  14.7136364  44.8433266   2.6830645
  13.8230925  45.1740189   3.8614364  66.1916962  55.2142868  79.2243805
  65.7632141  55.9773369  79.6121826  67.1052094  55.2861900  79.5010529
  16.0966396  34.1193199  15.5325117  16.7050171  34.5833359  16.1076603
  15.5381460  34.8069458  15.1698990   0.6955036  21.0216618  27.8450508
   1.1576066  21.2986755  27.0538769   1.2257210  20.3049831  28.1935768
  44.3035469  38.7521057  27.6499634  44.0140953  38.4547806  28.5125446
  43.5608559  39.2484512  27.3060417  63.3687019  50.5876122  71.5891266
  62.4304161  50.4602814  71.7292709  63.7359390  50.6522903  72.4707108
  50.1376152  14.9550257  61.7953949  50.8703613  15.5694914  61.8371964
  50.1375732  14.5238380  62.6499786  65.1734314   9.5661850  77.7068100
  64.6627121  10.2229919  77.2335281  64.7152176   9.4617043  78.5406876
  55.2212868  69.2179794  86.5207291  55.1120529  69.6071320  87.3884048
  54.3279533  69.0843887  86.2039566  83.2390213  43.1889534   3.0211840
  84.0571442  42.7213173   2.8532121  83.2364120  43.3348465   3.9671967
   1.2034750  71.4942017  32.1358910   1.2962779  72.1056137  31.4052734
   0.4091114  70.9994659  31.9347630  16.2680378  49.9895897  47.3352661
  16.0350990  50.0078926  48.2635117  15.4335289  50.0883102  46.8769226
  16.3730507  64.7890091  59.1534576  16.2072220  64.2233658  59.9076309
  17.3129997  64.9663620  59.1891594   7.1540604  37.4435120  52.0266037
   6.5445132  37.3811646  51.2912178   7.2011456  38.3797989  52.2199478
   9.3452101   1.5110458  69.9417801  10.2695580   1.7579699  69.9127655
   9.1127243   1.3455157  69.0281143  60.2332687  57.0844040  17.8094749
  60.7609024  56.7694321  18.5433884  60.3467484  56.4196129  17.1302052
   7.7830496  41.0217819  63.4313202   8.0285559  40.9688034  64.3549805
   7.6929631  40.1098442  63.1547546  70.8202438  30.2362919  16.7369957
  70.9310226  31.1246719  17.0757294  71.6825562  30.0013714  16.3942795
  36.1409531  55.4188042  29.6806183  36.7072449  55.1189461  28.9695454
  36.0894279  56.3672333  29.5620461  61.4752769  34.1644859   0.2864569
  61.1916656  33.2742462   0.4944704  60.7113266  34.5694427  -0.1241778
  21.0312424  58.5310249  47.6099586  21.3548470  57.6895714  47.2882957
  21.7331314  58.8583832  48.1724701  39.6650696  68.4225006   6.8237062
  39.9329376  68.9387817   6.0634875  38.9774323  68.9443054   7.2373552
  25.4475536   9.9933872   8.9837179  26.0062904   9.6294432   9.6704407
  25.5965881   9.4255619   8.2276793  63.9929123  52.0204430  42.1908073
  63.9173584  52.1353111  41.2435303  64.1897125  51.0906029  42.3043785
  59.3871078  22.3018837  72.4946823  60.1255264  21.7040291  72.6110458
  58.7259865  21.9889679  73.1121292  75.1495514  46.5550957  48.0404663
  75.1433640  45.6553459  48.3670235  75.7998199  46.5505028  47.3380699
  39.1317596  47.5675735  49.7655144  38.6169739  48.1315117  49.1882782
  39.8723068  47.2867851  49.2279434  81.1010666  60.1358490  12.2469454
  81.4534149  60.0859756  11.3583527  81.5700912  59.4548759  12.7291489
   5.8693299  36.6653328  73.9009094   5.2101979  36.1946411  74.4110336
   5.3960862  37.4075050  73.5248108   7.2942119  43.2495041  23.0315037
   7.5895438  44.1598396  23.0142403   6.7662854  43.1840248  23.8272667
  70.2423630  14.7437077  34.5463905  70.6010742  14.8905640  33.6711845
  70.5681458  13.8791885  34.7968025  62.5648613  10.6339922  73.6774368
  63.4846611  10.8352165  73.5050507  62.0959511  11.4336147  73.4387741
  59.5366859  65.7166367  48.6611786  59.8701744  66.3073120  47.9858170
  58.6493683  66.0299377  48.8365097  59.5841866  28.7121181  52.1293831
  60.2044067  29.2714653  51.6617393  58.7347221  28.9178848  51.7391243
  85.9786377  71.0314178  23.4928455  85.0522308  71.1755905  23.2999325
  86.3610382  70.7753677  22.6535358  57.1742401  11.1355829  25.1889992
  56.2715225  11.3746309  24.9787884  57.6758270  11.3893824  24.4142551
  30.2263603   8.6631393  79.2011719  29.7871265   8.8838139  80.0225143
  29.5207672   8.6224728  78.5556335  24.0118656  47.4592247  46.1511726
  23.4374866  48.1752396  45.8798027  24.8184700  47.8920937  46.4308891
   1.4247227  10.8914366   5.0905781   1.4872609  11.0860548   6.0256953
   1.9638989  10.1094627   4.9720974  10.4076118  50.6881218  39.1779175
  11.0169830  50.5383377  39.9007339   9.7326565  51.2572670  39.5477028
  44.9241562  41.8414726  27.4939060  44.0007362  42.0463104  27.3470554
  44.9582138  40.8849678  27.5067425  63.5113106  19.4202747  57.3033829
  62.9876938  18.7735958  56.8302383  63.6547050  19.0284023  58.1648407
  11.5224962  56.0194016  10.0983248  11.8934908  56.5851173   9.4211521
  11.6256609  55.1327629   9.7526970  38.9195671  29.6796932   8.8614597
  38.5935059  29.0323029   8.2363176  38.1755676  29.8510246   9.4388189
  14.1147356  22.7297840   6.2894750  13.1843243  22.7350044   6.0646629
  14.5551405  22.4692039   5.4805422  25.8660278   6.8076730  43.0646629
  26.3543358   7.1823792  43.7977257  26.3944721   7.0149813  42.2939491
  54.5808563  52.3879280  60.4942513  55.5094070  52.3586731  60.2636719
  54.5436897  52.0357704  61.3835411  79.6593933   3.4005148  72.8088989
  80.3432617   2.8703525  72.3996506  79.2185440   2.8001757  73.4101334
  15.9425716  57.3993683  27.6409283  15.6773739  56.5066032  27.8620033
  16.6267719  57.2894096  26.9806156  48.5877380  19.7644844  74.8746567
  48.2754135  18.9298210  74.5253372  48.6136208  20.3471260  74.1156464
  63.1262054  22.3343334  72.4317780  62.5824585  22.9158802  71.9003906
  64.0164948  22.6660423  72.3152313   8.4208364   9.1866932  19.1314011
   7.8074651   9.0146475  19.8458290   8.0170174   9.8987494  18.6352768
  12.6389303  44.6460648  36.5282364  12.4347467  45.4661980  36.9775925
  11.7883196  44.3085060  36.2476158   5.8917313  32.1721306  30.9934483
   5.3618731  31.6789055  31.6197166   5.3546114  32.2090416  30.2020111
  28.1733627  39.9681435  12.3599234  28.6239014  39.2627335  11.8955488
  27.5602360  39.5186691  12.9415407   3.4968939  59.9470253  44.8013954
   4.1073365  59.2448730  44.5765114   4.0318217  60.7407761  44.7945976
  45.3785400  23.8765793  74.3919601  45.3127060  23.9063587  75.3464279
  45.0513763  23.0084496  74.1562805  82.9489365  40.6533279  40.0620041
  82.3243408  41.3596764  39.8971443  83.3391953  40.4741745  39.2065277
  34.9033928  52.4132500  51.7551727  35.6905670  51.8698235  51.7908440
  34.3561935  51.9987030  51.0881233  74.9219360  35.5733604  47.5729103
  74.0983810  36.0398026  47.4300308  75.2950821  35.9802055  48.3548775
  44.0822258  64.5060425  10.0309334  43.1401291  64.6337738  10.1421490
  44.2838554  63.7357407  10.5621672  79.4147263  35.3808022  10.0122585
  79.2917786  35.1326141   9.0960064  79.7707214  34.5952568  10.4274902
  82.9342346  53.0538216  25.3872948  83.7581024  52.8174858  24.9611340
  82.9713135  52.6179314  26.2386780  39.2086716   5.3329253  55.8029900
  38.9549942   5.6258874  56.6782341  39.1042671   4.3817959  55.8291550
  78.3506317  43.0026245  71.1019974  78.2353592  43.0185623  72.0520935
  78.8598022  43.7899170  70.9092636  24.9259052  16.5180607  11.5669003
  25.5141354  15.9789677  11.0381308  25.0758820  16.2252903  12.4658022
   9.3931551  46.9070396   4.7174230   8.7787123  47.6225739   4.8808322
   9.8886480  46.8260117   5.5323787  34.3664246   6.0059633  80.9776764
  33.8072014   5.5151520  81.5798416  33.7631416   6.3564487  80.3223572
  37.7139473  56.2587891  23.5478058  37.1835823  56.9092255  23.0875111
  38.3876915  56.0083504  22.9156799  80.0913010  10.8829660   3.0624609
  80.9884491  10.7265167   2.7677231  80.1895447  11.2913485   3.9225791
  57.8361702  61.9190102  55.4823685  58.6068268  62.0436363  54.9284859
  57.5110817  61.0496483  55.2483559   4.6763921  39.9875069  81.9142990
   5.2248974  40.6356735  82.3561707   4.1215577  40.5026131  81.3285904
  71.2659912  69.1776886  87.9181747  71.1188431  68.3227768  88.3227844
  72.1479263  69.4254303  88.1957626  12.6149216  11.2702770  71.3896408
  11.8853359  11.7993221  71.7122040  12.7580862  11.5797024  70.4952164
  50.3004913  61.7236786  34.7547760  51.2536354  61.7757645  34.8257446
  50.0960884  62.1769524  33.9368553  34.2750816  66.3265305  74.0572205
  33.8927765  67.1998749  74.1429291  33.5670586  65.7301865  74.3007584
  32.1594925   4.0029302  22.9229450  31.3245201   4.4426079  22.7625179
  32.0685616   3.6285326  23.7991810  30.7666931  32.4038773   8.4581499
  31.3698196  32.0934525   9.1335068  30.9253731  33.3466225   8.4103022
  58.0036011  56.5749855  30.8288136  57.1056442  56.2435226  30.8349113
  58.4343185  56.1130333  31.5480614  24.8027668   2.3790236  68.7291183
  25.2727604   1.9170353  68.0349274  24.7117558   3.2740242  68.4021301
   2.3411696  -0.1640709  24.0001450   1.4648495  -0.2374842  24.3781738
   2.5091588   0.7776533  23.9659843  54.2071114   3.8279598  79.0410995
  54.1601524   4.7753716  79.1693039  53.6449738   3.6604736  78.2846680
  50.9870148   1.8965067  87.2718048  51.1246986   2.5612972  87.9465866
  51.8385162   1.8104172  86.8431244  70.0569534  33.1369553  19.3924484
  69.6944885  32.2785912  19.6116772  70.5472794  33.3962364  20.1725655
  71.8040314  54.7833748  49.7385674  72.7206116  54.6143608  49.5205078
  71.3869171  53.9225349  49.7038689  74.7541733   6.5641561   3.0244358
  75.1519470   6.0249410   3.7079959  75.4384537   7.1885738   2.7834113
  48.6570091  11.2813482  87.1724091  48.4680290  10.8619881  88.0118484
  48.0347404  12.0069113  87.1216812  54.2488403  22.8188839  52.3786316
  54.5218620  22.3687878  51.5791893  53.8579102  23.6368160  52.0713921
  17.2470493   3.4519248  25.6644363  16.9901428   4.2526650  26.1216526
  16.8723412   3.5454819  24.7886105  12.2172222  38.3704109  83.7910538
  11.8461723  38.8666611  83.0614700  12.8639078  38.9606628  84.1778717
  39.5173340  34.7553253  37.6298943  39.4817734  34.2377968  38.4343414
  40.3719406  34.5501709  37.2506981  57.9506874   5.4374309  45.3788795
  57.6789360   6.0400481  44.6866150  57.2213326   4.8230720  45.4615707
  43.4877777  28.8948975   4.0369539  43.4205894  28.0045452   3.6920042
  44.0065155  29.3659058   3.3848090  71.5953598   3.6688976  68.1055603
  71.5174942   4.5199232  68.5367508  72.4211273   3.7190189  67.6240692
  56.9279404  11.9515953  33.7485313  56.1510811  11.5030708  34.0825157
  57.2022934  11.4273052  32.9961472   7.8245101  35.6428032  11.6169939
   7.9636889  35.7318802  10.6741648   7.0583344  36.1871109  11.7984800
  37.9937744  62.0113335  59.4669952  37.0988998  61.7293243  59.6564751
  38.4609070  61.2021790  59.2589378  70.5726929  64.6050415  15.6560602
  69.8036270  64.4523849  16.2051220  70.3324585  65.3537369  15.1101875
  11.3293352  49.6453323  36.4078484  11.8039303  50.3948364  36.0483589
  11.1842422  49.8719215  37.3264542  85.4133453  57.0774612  52.3043938
  85.4769363  56.2196045  51.8845482  86.1314240  57.5837975  51.9246368
  20.1715736  65.5599594  84.7613297  21.0354462  65.2489471  85.0319366
  20.2461643  65.6806564  83.8147049   6.1803112  26.4206810  19.9443779
   6.4483948  26.5262184  20.8571892   6.7877693  25.7714043  19.5898819
  61.8757286   9.5279360  49.0916786  61.7247925   9.5124950  50.0367775
  62.1047974  10.4374561  48.9005394  38.0768509   9.0263815   9.7897120
  39.0111198   8.9439688   9.5984592  37.9780464   9.9188986  10.1211987
  85.2393875  41.5673447  62.4865150  85.2819977  40.6128578  62.4284058
  84.7813873  41.7369728  63.3097343  50.1845398  46.0183105  72.5908432
  49.3108444  45.7950478  72.2698441  50.4222908  45.2899170  73.1645584
  27.9308224  59.3964653  32.8461189  27.0290108  59.6655960  33.0208664
  27.8468781  58.6414299  32.2637939  15.7178698  47.6732941  65.9180069
  14.8299074  48.0288239  65.8812485  16.2753353  48.4364548  66.0698242
  40.9860115   5.8745499  14.6603422  41.5885277   5.1727328  14.4140549
  41.4202690   6.6762762  14.3689899  36.7837524  44.2848129  48.8369484
  36.5887108  43.5208359  48.2942429  37.7378273  44.2864609  48.9141884
  51.1186790  66.5326080  34.2509804  50.2389107  66.8924408  34.1380081
  51.4731560  66.4834366  33.3631973  44.0483093   4.0833316  72.5369034
  44.3608894   3.8425109  71.6648178  44.3317261   4.9904799  72.6508713
  41.9216270   4.5146151  54.5305099  42.4478569   3.9925945  55.1361580
  41.0758286   4.6093855  54.9685440  54.0776863  67.6189041  59.6372147
  53.4842453  67.0196609  59.1844788  53.9686317  67.4087830  60.5646744
  73.0696640  68.1840439  18.4675808  73.7032776  68.3240356  19.1712627
  72.2990494  68.6842957  18.7361412  80.7718277  15.9700928  10.8222609
  80.4458389  16.4561081  11.5797262  80.4008484  15.0934105  10.9224463
  60.0384293  25.9355679  26.7192135  59.6461868  26.8082485  26.6908417
  60.8512115  26.0541553  27.2106953  22.1846981  63.6865654  41.7346992
  22.6557102  62.8690910  41.5731125  21.9576073  63.6524887  42.6639481
   2.7860327  59.3969269  60.7563171   2.7858849  58.4414940  60.6981468
   3.6450207  59.6570091  60.4235611  84.5589371  58.1095543  78.1642303
  85.1180344  57.5209541  77.6570816  84.1707611  58.6925087  77.5117645
  53.0339890  61.7450714  55.7367859  53.6726227  62.4532318  55.8197594
  53.4957848  60.9679871  56.0516167  49.8728867  10.5091162  80.8473434
  49.4437370   9.8198709  80.3403854  49.8889580  11.2642365  80.2593231
  79.5366211  19.6002388  11.7167978  78.9884949  18.9950027  11.2173204
  80.0309296  20.0799065  11.0521107  39.1191826  31.9099827  71.7364502
  39.4113617  31.1255760  71.2721558  38.2390785  32.0747299  71.3980560
   9.1656570   8.0283375  23.7332211   9.4850817   8.4668484  22.9446106
   9.0572433   8.7330370  24.3718739  22.3815193  27.3666992  55.1088982
  23.1846828  27.8775654  55.2097740  22.4343739  27.0099106  54.2222519
  76.1786652  60.8050385  53.7659531  76.9488525  60.4545822  54.2134132
  76.5176926  61.1492157  52.9396133   0.5018500  70.8934402  83.7986526
   1.3266574  70.4659882  83.5679779   0.7642711  71.7356720  84.1701508
  21.3028221  44.5491829  10.5994463  20.7556152  45.1133766  11.1457844
  20.7426224  43.8016281  10.3907118  20.8647881   6.7173467  50.3614769
  20.9103394   7.6331468  50.0867653  21.7742901   6.4190884  50.3525352
  58.8358917  39.2658157  23.1531525  59.4808350  38.5649948  23.2487049
  58.1739426  39.0743599  23.8175297  52.1035728  37.4863548  31.3611526
  52.8068314  36.9591331  31.7402325  51.5597229  37.7335205  32.1090622
  25.7009659  11.2746487  29.3222713  25.3543987  10.4054546  29.1207199
  25.5912838  11.3625927  30.2690907   1.6970078  11.1862459  84.5570602
   2.0686474  10.4461288  84.0771255   1.1383108  10.7841473  85.2221985
   8.9056711  64.1500702  41.7267227   7.9877276  64.2229614  41.9880600
   9.0266323  64.8456268  41.0803413  55.5352364  47.5508423   7.5103731
  55.8367577  46.6554794   7.3566065  54.8600540  47.6934433   6.8470278
  52.3777771  34.0454483  75.8825989  51.5036507  34.0674629  75.4931717
  52.9218254  34.5509605  75.2786942  45.8548355  11.1125612  12.8402796
  45.5443039  11.5346680  13.6412964  45.3735771  11.5491619  12.1374254
  86.6274338   6.5778852  56.9274101  86.5689774   6.1765022  57.7944183
  87.1896133   7.3420777  57.0546722  52.6121521  71.2895813  70.8520889
  51.9212036  71.4777527  70.2169418  53.2905846  71.9390945  70.6674347
  75.8046188  17.9302654  37.0327377  75.0186462  17.6008644  36.5968857
  76.2817459  18.3962784  36.3461380  65.4328232  63.0913315   2.1808560
  66.1996765  63.2366905   1.6267452  64.7392502  62.8431664   1.5696323
  48.5246315  46.2643051  38.8188286  48.3485489  46.2937431  39.7592316
  48.1305962  45.4422340  38.5269966  33.1049652  18.0256596  62.2888794
  32.1825447  18.2771091  62.2425537  33.3925896  18.0008812  61.3762512
  70.5381012  29.8806496  45.2332878  71.4798279  29.7100735  45.2161636
  70.1367416  29.0123787  45.1979790  13.3268633  63.3354607  25.6133289
  13.0792866  62.4186935  25.4930267  14.0293322  63.4790497  24.9791756
  41.8594360  51.9522095  54.4366188  41.2719383  51.2104988  54.5813560
  42.6144257  51.7726364  54.9969559  13.3055754  25.4928951  14.2811337
  12.8837681  25.5942726  15.1343822  12.6594553  25.0296402  13.7480707
  84.3762589  34.6540527  47.3459702  85.1156387  34.0757561  47.1585541
  84.5109634  35.4085541  46.7725487  80.6999741   0.2453539  87.1414108
  80.5273819  -0.0942036  88.0195618  81.6521912   0.2058528  87.0522156
  12.7103720  58.3699150  65.3148270  12.1018190  57.6869011  65.5965881
  12.1506929  59.1172791  65.1040192  41.8745041  34.3847122  66.8199615
  41.1356697  34.9557495  66.6095505  42.2711449  34.7820778  67.5952072
  21.3467236  68.8669205  27.2211838  20.7193851  69.1960602  27.8648815
  21.4831619  69.6012344  26.6225185  52.4249954  15.4260941  67.9065704
  53.1547699  15.1885939  67.3345108  52.2634888  14.6396637  68.4277954
  63.3895988   3.6976371  54.4241066  63.9634399   2.9552996  54.6135101
  62.5200653   3.4035516  54.6955032  83.3536453   6.1063099  37.7898445
  82.9508896   6.2245588  38.6501007  82.9031525   6.7350879  37.2259979
  25.6185989   1.9022789  59.9100266  26.2448254   1.7839262  59.1958389
  25.0159874   2.5742154  59.5912933  31.2813034  42.2356300  65.5209351
  31.4261990  42.9454536  66.1465454  30.9406624  41.5150337  66.0509720
  10.2827282  32.6787224  15.2405252   9.7515526  31.9048672  15.4282284
   9.8715658  33.0702820  14.4699039  61.3023453   2.5177412  56.4022713
  61.3746872   1.5725046  56.2698860  60.6399040   2.7980354  55.7707367
  84.0456238  33.4299202  75.5635452  83.5757828  33.6256485  74.7528839
  83.3785019  33.0648727  76.1448593  84.4857407  13.7361946  63.3851662
  84.7389908  14.6580801  63.3380165  83.6487579  13.6937819  62.9226799
  63.4033852  51.9980240  83.8408279  63.9344673  52.6416779  83.3719025
  62.6393242  51.8637619  83.2801056  69.4701157  23.7293530  41.6729965
  69.8977814  23.9821262  42.4911919  70.1906509  23.5984478  41.0566177
  66.5044708  26.0871181  71.5456085  66.4782562  25.8139668  72.4626312
  65.7260742  25.6899090  71.1550293  16.9045525  16.3061295  85.7126999
  17.2644615  15.5850563  85.1962204  16.6141109  16.9452057  85.0619659
   1.4258195  15.9472837   4.8245311   1.2527101  16.8887005   4.8250961
   0.5914971  15.5501900   5.0744395  63.8573570  28.0516281  81.6932144
  63.9175682  28.9518185  82.0130005  63.0379524  27.7209969  82.0613022
  68.0020981   7.1242952  37.1311913  67.1197510   6.7671456  37.0305061
  68.0490952   7.3913107  38.0491905  18.1267910  53.0155640  20.5678158
  17.6045513  53.1959534  19.7861767  18.3796864  53.8800850  20.8916702
   3.8054397  36.9406090   9.1756954   3.4001737  37.0425491   8.3145342
   3.2246091  36.3412170   9.6443052  24.2209625  56.8769760  68.4982986
  24.5797653  57.7632370  68.4532013  24.5485363  56.5278473  69.3271713
  51.8296967  64.3728180  75.5404053  52.3986702  64.6707077  76.2501678
  51.8338814  63.4185028  75.6145706  -0.1860484  26.7726154  82.8304596
   0.2027521  27.6435890  82.7500229   0.4616186  26.1844158  82.4421539
  76.3404465  64.2166519  69.5701447  77.2773819  64.1648560  69.7590866
  76.2918777  64.6429367  68.7144852  53.9064064  60.2826691  34.7433662
  54.2179070  59.4028320  34.5310326  54.3414536  60.4981804  35.5683022
  79.5076370  15.8400202  57.5525894  78.6459579  16.1421375  57.8397675
  79.3284149  15.0407038  57.0574074  42.9834671  66.8244324   3.9972732
  43.3314285  66.2872162   3.2855501  42.0875053  67.0272369   3.7282808
  36.0938492  64.9942856  13.6117630  36.7228813  64.9874878  14.3332224
  36.6306343  65.1050339  12.8270159  62.1748276  39.2888184   4.1733575
  61.4012260  39.1566696   4.7213607  62.8634911  38.7834511   4.6053038
  32.6847916  69.7470703  28.8652153  32.9823036  69.4552536  28.0034943
  31.7453804  69.5634308  28.8691158  62.2254066   1.2506799  49.1978683
  61.5100594   1.3273835  48.5664978  61.8424873   1.5315720  50.0289536
  28.8085327  33.2117538  68.2786789  28.8634968  33.0261459  69.2161026
  27.9370632  33.5894966  68.1600037  -0.1302713  36.5835953  30.5689907
   0.8196191  36.5953712  30.6864681  -0.3104584  37.3315086  29.9994373
  55.9155121  53.1450424  32.4756584  56.0084419  53.1622810  33.4281807
  55.2450218  52.4817009  32.3123894  30.3829136  23.5953712   1.0493652
  30.9832001  23.9326553   0.3844385  29.9089775  24.3676128   1.3580122
  79.6577606  33.3851433  61.2294464  80.5955734  33.1935463  61.2242241
  79.3185654  32.9426384  60.4513931  10.9747524  57.1226387  16.1775494
  11.3501301  56.9659538  17.0440216  11.6724577  56.8834610  15.5674419
  16.8025341  47.1781235  59.7624321  17.0289726  47.9197273  60.3236656
  16.2477188  47.5551414  59.0795975  76.7271881  24.3839378   0.1002690
  77.1356888  24.6004906   0.9384033  77.3275833  23.7576160  -0.3040636
  59.6544571  15.3725491   6.9596648  59.0146408  15.8670292   6.4474607
  60.3657341  15.9932375   7.1179833  42.7989731  26.0923157  71.6124649
  43.7284889  26.1340523  71.8371658  42.7845650  25.7677746  70.7120743
  85.4164734  51.8849258   3.4555531  86.1475449  51.2720451   3.5339396
  84.6976013  51.3570404   3.1080158   6.7012091  61.9435425  57.9160843
   7.0783825  62.3847809  57.1549797   7.4379201  61.8300400  58.5165901
  30.7733288  64.6752701  16.6274757  31.1800060  65.3786316  16.1213856
  31.0832539  64.8140640  17.5224152   5.6720905   5.6879945  64.6257553
   5.5505114   5.9915466  65.5253677   6.6189346   5.7183080  64.4886475
  27.4621353  42.9183388  70.6076813  27.8959122  42.7292328  69.7756271
  28.1773758  43.1265144  71.2087784  66.0841675  55.0052567  84.9508133
  66.4826355  54.1670914  85.1851883  66.3181763  55.1329689  84.0314865
  73.5607681  71.0088882  16.1754284  73.8326645  70.6315079  15.3388357
  74.3812790  71.2189865  16.6213627  46.5535202  65.4520874  81.9139175
  46.9389458  64.8535461  82.5537796  45.7456932  65.0193939  81.6374664
  69.3327484  60.0568466  61.0466499  70.0193710  59.3925285  61.1055031
  68.6520233  59.7514915  61.6463165   5.9273992   5.9256625   1.1710229
   6.4467988   6.4540205   1.7770705   6.3295016   6.0774980   0.3157501
  49.3036575  48.8220673  35.2166405  48.6714325  48.2714386  34.7547531
  50.0908356  48.2812080  35.2802887  81.3237381  42.1161270  54.5077438
  82.1307449  42.6259842  54.4368324  80.7310104  42.6746140  55.0107307
  64.1648941  56.7497292  16.7823029  64.7310333  56.1602974  17.2805862
  64.7059631  57.5229034  16.6220570  58.3200188  11.4588356  60.5859642
  59.2126923  11.7735453  60.7285233  58.3874741  10.8845654  59.8231430
  27.8841839   8.1365356  17.6023083  27.9495049   8.8198652  18.2694111
  28.0816631   7.3252463  18.0703278  71.2591629  16.9359951  22.2217808
  71.0788498  16.2119026  22.8212891  70.4961853  16.9646454  21.6444893
  49.6941757   0.5618330  18.5236530  49.0649109  -0.1566254  18.4598083
  49.7503204   0.7484846  19.4607983  86.4293518  39.4420319   3.1550419
  87.3155365  39.1126022   3.3046300  86.4532242  39.7990456   2.2672338
  28.0274258  39.4953232  83.2341385  28.1798573  40.1516953  82.5543060
  28.8368454  39.4872093  83.7450256  57.6772842  27.7798767  11.8816156
  57.0249977  28.2944069  11.4062090  58.4976883  28.2560978  11.7536211
  72.1230392  24.8574944  50.3915138  71.6307983  24.3851471  51.0629463
  71.8631287  24.4437141  49.5684280  34.8610878  31.5172672  85.7232742
  34.7545395  32.0251808  86.5275726  35.6794319  31.0371323  85.8498459
  77.0090027   3.5413563  57.0984917  77.4013367   3.7431347  56.2490273
  77.7405853   3.5769751  57.7147293  53.9565010  33.5100975  68.1069183
  54.7482796  33.3575592  68.6227188  53.3725166  33.9840050  68.6990433
  51.0442619  12.8767033  85.6915359  51.7711182  12.4549646  85.2332230
  51.3387756  12.9406013  86.6000519  76.0386810   7.4875035  47.8614731
  75.8550491   8.4235296  47.7816849  76.6415863   7.2995386  47.1421585
  11.0374374  69.6659927  44.1489334  10.7085648  70.3816757  43.6049957
  10.5310278  68.9024200  43.8719254  61.2125740  48.0589142  70.5780945
  60.3361015  48.4434128  70.5644989  61.5526657  48.2066994  69.6956406
  84.7871399  38.0177536  35.0920029  83.8324203  38.0710411  35.1357155
  84.9727783  37.0798988  35.0451164  73.9906769  59.8923264   3.2160828
  73.2404633  60.0025749   3.8002501  74.3299026  60.7787552   3.0919800
  47.8794785  55.2415848  55.7909088  47.2944260  55.4184837  56.5275574
  48.2909966  56.0853348  55.6039009  59.2061729   6.2785292  64.7465744
  58.2810860   6.3180261  64.5039139  59.6644325   6.6836038  64.0102692
  83.3729401  62.7322998  21.5631161  83.8993073  63.4963570  21.7984600
  84.0115509  62.0831604  21.2681217  20.1656532  20.8442001  72.0848236
  20.9665051  21.3375778  72.2621613  19.4790478  21.3296413  72.5421524
  56.2420845  52.6328964  56.2760506  55.3585739  52.9834938  56.1632767
  56.3272972  51.9725189  55.5883904  50.7522659  59.6370811  83.3757324
  50.5313835  60.5684471  83.3741226  51.5109177  59.5698471  82.7959366
  67.4166107  43.6365738  27.3799496  66.7855148  42.9222260  27.4674568
  67.0997543  44.1460724  26.6341286  71.3068314  22.2912178  28.7637215
  71.0416870  22.0251064  29.6441269  70.5903473  22.8459282  28.4552059
  44.0761795  61.1745720  85.9366302  44.1642418  60.7008133  86.7636948
  43.4121475  60.6859703  85.4502563  51.2266045  53.1734657  66.2248688
  50.5874405  52.8519592  65.5889969  51.8586311  52.4597702  66.3109741
   5.3193040  32.8842163  73.6670609   5.5502281  33.2658501  74.5139771
   5.3524337  31.9388371  73.8133392  60.4267197   3.0203004  18.3377247
  60.9602318   3.3311005  19.0691605  59.5396042   2.9682698  18.6934605
  28.8215733  41.5739021  59.9501762  27.9373055  41.2252502  60.0630531
  29.1708717  41.1010056  59.1948013  83.3146362  17.6921444  15.4472494
  82.6656265  17.4194450  16.0958309  83.1519241  17.1258831  14.6928596
   6.1903343   2.0603616  20.5154858   6.1381989   1.1885529  20.9072304
   5.7042317   2.6231906  21.1181145  45.5902786  69.9247971  84.2442780
  45.6554413  69.8503876  85.1963501  46.1129150  69.1955414  83.9107132
  61.1562195  20.7586002  73.6319580  61.4354591  19.9119759  73.9805069
  61.9680328  21.1826134  73.3537445   1.5265733  21.5903702   5.5737305
   2.1168058  21.2941856   6.2666464   1.4981666  20.8605042   4.9550858
  36.8016434  62.8420334  34.7145882  36.6112671  62.8640785  33.7767677
  37.4925156  63.4936752  34.8341217  77.6397018  35.0941658  55.8626747
  78.4163055  35.4831352  55.4603920  77.6846466  35.3637695  56.7800217
  31.9102402  22.0053558  63.2884254  31.7040062  22.4994545  64.0818787
  32.4152184  22.6154480  62.7508240  28.0368538  10.8639050  41.4413910
  27.3432369  11.5114708  41.5670319  28.8270741  11.2924976  41.7701645
  83.7386169  69.5294571  36.8855896  82.9064255  69.8507538  36.5385246
  84.3974457  69.8665848  36.2785263   9.5251198  46.2985764  45.2461510
   9.5225077  45.7636948  46.0399551   9.6569805  47.1930275  45.5604744
  37.1586037  61.8595619   5.7824183  38.0981293  61.7251549   5.9067521
  37.0764427  62.1509323   4.8743529  24.4497013   7.3996854  26.7398148
  24.0921650   7.9656267  26.0556297  24.5034866   7.9624095  27.5122662
  55.6479187  30.5477676  68.7483139  54.6907425  30.5495472  68.7417831
  55.8939323  30.6842918  67.8334045   5.6431379  52.2573318  69.3347549
   6.3166313  51.6339874  69.6069336   4.8286371  51.8991966  69.6876831
  40.1201630  51.2014542  24.9420033  40.0539513  50.6938057  25.7507935
  39.3056183  51.0152855  24.4750061  51.4055901  52.8692932  40.8561783
  51.3628082  53.8160095  40.7215500  50.5999756  52.5346870  40.4621544
  13.8533268  62.1744614  31.6153240  13.3892632  62.7858276  31.0433903
  14.0371513  61.4179840  31.0583878  44.8978081  20.9309692  19.0249844
  44.9663925  20.0291252  19.3383598  45.5369034  21.4153862  19.5476036
  61.8531723  10.8516626  20.6121712  60.9088936  10.9855738  20.5307007
  62.0436745  11.0418062  21.5307484  23.4689617  63.2036095  82.9535370
  23.3546505  63.3480339  83.8928452  24.2136917  63.7557030  82.7152023
  46.3470268   1.1193360  64.7786865  46.7485847   0.2697838  64.5963669
  46.0475540   1.4309376  63.9246063  27.7309570  16.0951080  70.0553741
  28.4040585  15.4376850  69.8794174  26.9378681  15.7390442  69.6548004
  14.4969330  39.6019936  59.2390976  15.0299969  40.2427864  59.7096939
  14.4266768  38.8608246  59.8407288  30.5521698  12.7933655   6.8804841
  30.5681171  13.6986980   6.5700803  30.0945835  12.8360786   7.7201400
  70.0465698  59.5718155  13.2386723  70.3694382  60.4693451  13.3188696
  70.3819885  59.2711906  12.3940697  30.6066399  43.9848595  22.9214020
  29.8755054  44.3576202  23.4140759  30.8510876  43.2003708  23.4123764
  81.0341187   0.6060743  56.0205498  80.6836395  -0.2466641  56.2779121
  81.0465012   1.1145663  56.8314209  66.0205994  50.0325089  71.9244385
  65.1205902  50.1063347  71.6070175  66.5602722  50.2846184  71.1751556
  66.4996643  12.0816278  29.6227531  66.9809418  11.8921509  28.8173294
  66.2307510  12.9957495  29.5316639  65.9815140  12.3091640  23.4629345
  65.3707657  13.0450392  23.4216480  66.6593781  12.5945835  24.0755291
  13.8051691  61.6361732  81.9100571  13.7260389  61.1160812  82.7097244
  14.5388393  61.2411003  81.4390182  82.7947998  61.9578514  64.7224503
  83.1674347  61.1621780  64.3426056  81.9608459  61.6759720  65.0983429
  71.5660782  55.6538658  41.3234558  71.5571442  55.2457962  42.1892700
  72.2632904  56.3077545  41.3740540  65.9761200  66.8470078  86.6953964
  66.4667206  66.4992218  87.4401016  66.1159592  66.2076874  85.9968567
   4.1506891  45.7117271  81.6346359   3.4152045  45.4946136  81.0617828
   3.7416649  46.0313263  82.4388657  74.6187363   4.5757380   5.0922666
  74.1171341   5.0589881   5.7488489  74.5153122   3.6570256   5.3402653
  69.0374908  68.0259399  57.1322441  68.5400085  68.5395966  56.4959221
  69.8890839  67.8898697  56.7169075  25.2621269  12.2131510   5.7028656
  25.7863979  12.3041620   6.4985347  24.5127964  12.7922115   5.8422332
  17.0060749  61.1212006  43.4715309  16.7808342  61.1586914  44.4011002
  17.9627934  61.0941315  43.4578133  80.2152252  44.0431213  27.2002373
  79.8276672  43.3955803  26.6114082  80.6103439  43.5238495  27.9005756
  24.4470406  38.3507957  84.7092590  24.6082325  39.0033951  85.3907013
  25.3107662  37.9846230  84.5191879   2.4834383  27.8520374  33.5654068
   1.8075899  28.2442074  33.0125389   2.3947332  28.3003044  34.4064903
   8.9021139  60.8659630  48.1689453   8.2569799  61.5698891  48.2362022
   9.1729050  60.8761673  47.2509041  67.0861740   1.0421523  74.1394196
  67.1487961   1.9942616  74.0632706  66.3842239   0.7992471  73.5356750
  77.9654999  33.3671341  29.1169472  78.1054459  32.5140266  29.5278721
  78.8418198  33.7457428  29.0466099  21.9070339  29.1272049  14.1052265
  20.9843502  29.3002968  14.2921133  21.9244080  28.2180309  13.8063393
  23.2939873  36.2461777  77.3052216  23.3782558  36.2711525  76.3520660
  22.9424648  37.1057434  77.5371933  52.5324059  32.8072929  44.8298225
  52.3465195  32.0774612  44.2390404  53.0326233  33.4253807  44.2969246
  82.8142395  57.7698975   2.6401260  82.6222534  57.3630219   3.4850082
  81.9947586  58.1950722   2.3873141  33.4068489  63.3152618  55.1000633
  33.4854431  64.2610550  55.2246780  32.4794998  63.1303520  55.2486076
  34.4339409  71.4400482  59.3920250  33.4968414  71.6300964  59.4362831
  34.5532379  71.0203552  58.5400505  83.1436234  51.9332504  86.2927780
  82.9043427  51.2195435  85.7014999  82.9996490  51.5765839  87.1692963
  71.5809402  49.5874519  34.6952515  72.1367798  50.2481537  35.1084709
  71.4341660  48.9353905  35.3804588  84.4590759  69.5932083  81.1864471
  83.9463043  68.9277725  80.7276459  84.8128967  69.1381912  81.9506454
  24.1386967  30.7501259  17.2630672  24.5411072  29.9198914  17.5180378
  24.4459209  30.9006252  16.3690891  40.9592590   1.3058145  60.5881081
  41.2727203   1.1298382  61.4752388  40.0440331   1.5612025  60.7037277
  45.0511551  21.0601463  11.2661591  45.4729462  20.6204987  10.5278959
  45.6520042  20.9269753  11.9992886  66.5710602   1.1287760  25.0007381
  67.1811218   1.1915797  25.7356625  66.7904663   0.2986910  24.5775928
  15.3774862  39.6322441  20.7193813  16.2146568  40.0663986  20.8833504
  14.8627472  39.7984886  21.5090885  55.0489044   9.5507793  31.7965546
  54.5720749   9.4219952  32.6164818  55.7594414   8.9102497  31.8295479
  64.5196381   8.1826830  62.5928383  64.5996475   7.4906974  63.2493324
  63.7267494   7.9596634  62.1051750   2.5244792  69.8339233  58.0842743
   2.6376197  70.3211899  57.2681885   2.0466754  69.0450974  57.8279648
  30.7329159  59.3299713  59.4820671  31.3929386  59.3188477  60.1752319
  30.0386639  58.7545128  59.8031502  12.5397778  53.4846306  18.5343380
  12.6816835  52.9309692  17.7665138  12.5929012  52.8827591  19.2767391
  15.7560072  32.8013382   8.1262169  15.6490250  32.5729599   7.2028370
  14.9749727  32.4482651   8.5523148  60.1544342   4.0007687  69.1153564
  60.9646187   3.5190701  68.9486237  59.8372612   4.2442737  68.2456818
  62.6414986  66.6508255  34.0557022  61.7847824  66.2335892  33.9652023
  63.1869888  66.2234650  33.3953743  52.4119606  55.8454628  43.9568443
  51.5160179  55.9868698  43.6510353  52.5726929  54.9141541  43.8050003
  84.4679031  68.1810837  10.0972424  84.6771240  68.7719421   9.3738184
  83.9426575  67.4884262   9.6965179  25.3490963  27.0272408  56.1615944
  25.7070923  27.7019348  56.7385330  25.9710522  26.9781933  55.4356461
  31.3739204   7.4209709  15.1136427  30.6553249   6.7899017  15.1536913
  32.0288544   7.0030084  14.5545349  71.9337540  41.2318802  72.4768524
  71.2852554  41.2895737  71.7751770  71.5682297  41.7621193  73.1850052
  55.7270775  33.8286438  78.7887192  55.0811195  33.6421928  78.1073914
  56.5513344  33.9366150  78.3141937  38.4574089   4.6079745  79.9553070
  39.0334816   4.3485656  79.2362289  38.8947334   4.2822413  80.7419968
  15.5813484  63.4812241  24.1565475  15.7278833  62.8132057  23.4868355
  16.4040165  63.9692688  24.1920700  31.1899452  56.9325447  24.0088291
  31.8762531  56.5996590  23.4305553  30.7124748  56.1514130  24.2882748
  70.9239578  65.9825134  81.2550888  71.6612015  66.4235535  81.6772003
  70.1514435  66.4500351  81.5727158  74.5396423  11.9263783  77.6753769
  74.1615906  11.8083210  78.5467911  74.8626709  11.0580444  77.4347839
  52.9433861  27.8594112   5.0260649  52.6235504  28.3756428   5.7659578
  53.8810501  28.0483398   4.9897189  59.8472176  40.2573280  20.5552673
  59.4421425  39.9308815  21.3587456  60.6671677  40.6568298  20.8456287
   6.9084802  70.0148315  30.3651085   6.9240713  69.4021912  29.6298084
   7.6120486  69.7156754  30.9410686  15.9035521  26.7055283  85.2913208
  15.9664669  26.4728355  84.3649750  16.0092545  27.6567440  85.3070526
  56.9025574  61.2539253  14.0066824  56.0437202  60.9733849  14.3228045
  57.5074501  60.5882034  14.3340235  21.2311134  59.0443840  60.6566696
  22.0085125  58.7301254  61.1183205  21.1043854  59.9361725  60.9805222
  14.0852499  59.1116676  62.8823433  13.6896935  58.7087288  63.6552658
  14.2451458  58.3800697  62.2861633  38.5981827  41.7420578  18.4462986
  38.4087067  41.3554459  17.5913925  38.9380455  42.6139221  18.2448635
  26.2612209  57.2655029   6.0290356  25.8472519  57.9995270   6.4829879
  26.2290249  56.5454674   6.6589112  67.8659286  48.1797409  54.0388832
  68.1519623  48.7795181  53.3499146  68.3614731  48.4494247  54.8121490
   6.2268600  22.7819366  55.6046715   5.3110423  22.5139084  55.6799774
   6.2426891  23.3713531  54.8506355  37.3821297  55.7910881  76.3663406
  37.0469627  55.2656212  75.6398544  37.7686234  56.5600777  75.9473953
  45.9255371  50.0831566  16.8178215  46.0511169  51.0122871  17.0106411
  45.8164825  49.6730881  17.6758327  17.1078396  58.6296463  16.0423107
  16.6600590  57.8858871  15.6391401  17.8411160  58.8145218  15.4554892
   6.5496659  59.8103180  61.1044884   7.2998500  59.9439011  61.6838112
   6.9285913  59.4574165  60.2994385  75.0876083  36.6835098  80.2697449
  75.7691193  36.0689392  80.5419159  74.3590698  36.1268730  79.9947510
  16.2599583  34.3408890  10.2934608  17.1916237  34.4722061  10.4694939
  16.2392120  33.8056259   9.5001812  18.7425232  45.9048538  53.7179337
  19.4472237  45.2849312  53.9058762  18.3766003  45.6062927  52.8853493
  52.2294540  62.5403976  39.2749939  52.9693794  63.0121002  39.6574020
  52.2609215  62.7598991  38.3438339  20.5254612  54.6029510  19.0812283
  21.2278900  54.8433952  19.6853924  19.7235336  54.8822708  19.5229568
  67.7237015  70.5671616  17.1210442  67.5530319  71.4874039  16.9203930
  68.0573730  70.2013016  16.3018723   0.0859311  69.9769516   7.6955867
  -0.4774882  69.7069397   6.9704075   0.9761099  69.8536301   7.3660331
  71.7831802  25.1538315  83.6303711  71.1145248  24.5538998  83.9608383
  72.2852325  24.6317196  83.0046082  66.6105957  20.4856167   9.0835991
  67.2124863  20.3158836   8.3589306  66.9755630  21.2535725   9.5232296
   7.9033689  70.6415710  24.1506367   8.1701880  71.5595703  24.1024952
   6.9826350  70.6730728  24.4104233  51.5820351  17.3772411  56.3421555
  51.7180328  17.2385025  55.4048767  51.8454094  18.2854538  56.4905357
  68.6154022  23.3450794  83.3302231  69.3608704  23.2183380  83.9171219
  68.0768967  22.5635986  83.4548340  49.4094696  29.5689850  79.3362122
  50.1953659  29.1662903  78.9668350  49.6296005  29.7256165  80.2544937
  68.5151672  39.0527115  42.9237289  69.1141205  38.7011719  43.5824471
  67.9195633  38.3286438  42.7308388  64.6549759  41.1877823  34.1312561
  63.9241219  40.5727119  34.1926727  64.3961411  41.7992287  33.4417839
  30.1295033  42.8070221  85.2156143  30.0313644  41.9121590  84.8903198
  29.2329006  43.1325607  85.2953568  62.1054535  38.5229378  77.5681839
  62.9228706  38.1544800  77.9032974  61.8230209  39.1359138  78.2469482
  12.8898029  45.8304482  60.1665039  11.9823322  45.7579231  59.8707504
  12.8815193  46.5577545  60.7887459  39.2804108  -0.0011757  31.4099712
  39.0591698   0.8960896  31.1605778  39.1522751  -0.0247039  32.3582649
   6.1984286  32.9304504   0.6713184   5.4487514  32.4584084   1.0337986
   5.8120375  33.5721512   0.0753709  18.5958595  42.8859253  10.5506353
  18.3482456  42.3954620  11.3344507  18.1791439  42.4127655   9.8304253
  61.8218880  58.2249565  55.4619789  61.2163506  58.1794090  56.2019005
  62.3857307  57.4585304  55.5663872  28.1242161  55.3687057  43.1794128
  28.3024845  56.1849709  43.6464920  27.5016613  54.9038773  43.7385101
  70.8115845  53.8950500   3.5074830  71.3554916  54.6645584   3.3393934
  70.9760971  53.6814575   4.4259310  33.0546494  57.2577057  64.5910187
  32.4930954  57.0765343  65.3447189  32.6263771  57.9872169  64.1431046
   7.4049830   8.0487490  69.3301315   7.5018630   8.9052343  68.9138641
   7.8427267   8.1427469  70.1761627  55.7010422  36.8699341  50.6830482
  56.2063065  36.1828575  51.1176338  55.4716339  37.4789085  51.3850098
  72.5722885  24.0334797  70.1972351  71.7501984  24.3195133  70.5954590
  72.4943314  23.0809002  70.1448059   6.8592453  52.1418648  52.4994812
   7.5032649  52.0105286  53.1953430   6.1005769  51.6273651  52.7750587
   7.4919572  64.9699936  75.9662323   7.4085927  65.9234848  75.9544601
   6.5920343  64.6517487  76.0375824  70.2131271  33.0694160  27.8889122
  69.2903137  33.0253487  27.6384926  70.5358124  33.8696251  27.4744625
  78.1470337  51.0874329  56.0133858  78.4142914  51.7072029  55.3346481
  77.3921051  51.5012665  56.4317780  19.5027428  15.1445589  86.4692383
  18.7676468  14.5641098  86.6665802  19.7573357  15.5057859  87.3183136
  47.3837471  59.1859856  81.2227020  47.8280907  58.4074860  81.5584564
  47.6633301  59.8915977  81.8059464  81.0187836  10.9791327  21.4865723
  80.5103607  11.3514633  22.2070637  80.4219894  10.9962645  20.7383881
  42.7369728  48.1834488  50.0970116  43.1655655  48.5709534  49.3338776
  41.8359108  48.0293808  49.8131447  39.1781158  35.6345634  67.0002747
  38.5652733  35.1464996  66.4503174  39.2045174  36.5089607  66.6117325
  75.3658829  65.4766235  61.1212997  74.5614166  65.8740158  60.7879257
  75.3281555  64.5693436  60.8185425  16.4143181   6.8921819  78.8656616
  17.1941643   6.9757199  78.3169479  16.2666855   5.9486265  78.9300079
   7.3177691  29.7401810   6.6608596   7.4191670  29.8849602   5.7201209
   6.6775074  30.3961639   6.9365082  22.0850906   1.1695380  40.5265350
  22.3102646   0.2482689  40.3969536  21.4450436   1.1618487  41.2382317
  73.5405731  45.0964165  63.4787979  73.4820023  46.0333900  63.2920380
  72.7842941  44.7155037  63.0324898  27.9085655  63.3982658  64.4207153
  28.4402809  64.1157913  64.7651978  28.0410023  63.4353828  63.4734497
  51.7586250  12.6577873  36.4251785  51.1022682  12.1291637  35.9713211
  52.1228333  13.2236853  35.7444839  41.9570656  35.3165855  19.9211254
  42.6834908  35.6428909  19.3900261  42.3640976  35.0489922  20.7451096
  31.9973373  38.0808334  68.2708511  31.7515450  37.3144341  67.7527237
  31.6286125  37.9120522  69.1379013  61.3474808   0.7975299  29.7652054
  60.6255150   0.2084539  29.5461502  60.9631691   1.4332523  30.3688545
  78.5446701  36.0088234  88.3799820  78.5191193  35.5872040  89.2389450
  77.6250229  36.1011963  88.1310654  27.3793945  46.6863594  42.7971802
  27.6615391  46.1465263  43.5355606  26.7708931  47.3178215  43.1808662
  75.5365295  60.9302330  43.5773849  75.3561783  61.3422279  44.4223518
  76.4504242  61.1485329  43.3946838  67.8363266  11.3793840  27.2528572
  68.3409882  10.5981970  27.0263596  68.1270752  12.0422802  26.6265450
  -0.0181921  61.0965118  64.6837921  -0.6213744  60.7331314  65.3321381
   0.6995586  60.4644852  64.6436996  77.8736267  18.0151863  85.0547943
  77.5713730  17.4136982  84.3742905  77.6196365  17.5945835  85.8762665
  60.1351242  26.9521027  17.5222511  60.5656013  27.7100143  17.9178371
  59.8847885  27.2485218  16.6472092  30.3547726  62.0543365  47.8928375
  30.2491226  62.7038727  47.1977310  31.2428818  61.7178841  47.7732773
  38.5522003  67.2178345  78.1867371  37.7934494  66.6364136  78.1369019
  38.6732712  67.5309830  77.2903519  18.3004780  47.9963226   5.8481855
  19.1570873  47.5725670   5.9018979  17.7427979  47.3543167   5.4088101
  63.9968414  55.8623810  38.1201515  64.2996826  55.7826309  37.2156296
  64.1813583  56.7717361  38.3552170  83.2795181   9.7681704  28.9897785
  84.1030045  10.2503262  28.9148178  83.3216171   9.1125412  28.2936382
  59.2088203  68.2683411   3.7228930  58.4339142  67.7072220   3.7528110
  59.2491989  68.6674957   4.5919600   4.7828422  63.1947594  67.0600967
   4.7958755  63.4066811  67.9934540   3.9577177  63.5616951  66.7426758
  80.3788071  36.5353508  37.9485817  79.5789795  36.6088486  38.4692688
  80.9783783  37.1708641  38.3395691  66.6967697  69.7736435  81.6320648
  66.6859512  69.2427673  82.4284897  66.6277313  70.6757507  81.9445877
  56.8206596  53.0997505  78.6639023  56.9694824  52.2917328  78.1727905
  55.9289436  53.0142403  79.0011902  76.9705124  34.0186272  25.9813957
  76.2515411  33.7090607  26.5322819  76.5437317  34.3299828  25.1831837
  66.5977402  66.0217743  17.1515999  66.9706802  66.7864532  16.7129536
  66.3685837  65.4250259  16.4391308  35.1408119   0.4466199  12.4083891
  35.4711342  -0.4029253  12.7006111  34.5979500   0.2433920  11.6466599
   1.4516922  16.5478516  26.0048752   2.3630412  16.5819511  25.7141666
   1.0958176  15.7642164  25.5859451  48.4251747  23.3535080  77.8862534
  49.0002823  23.2205658  78.6397858  49.0205193  23.5428104  77.1610260
  27.2676620   4.1975737  61.9834557  27.9520035   4.1540136  61.3156166
  27.6920300   3.8839061  62.7820549  85.3586578  29.3900986  66.1962433
  84.7856750  29.4322605  65.4306488  85.2630615  28.4936333  66.5178757
  49.9489250  46.2835464  12.3401699  49.8488846  47.1061745  11.8610983
  49.7213554  46.5032997  13.2435818  47.5057030  22.2174244  26.9110336
  47.8161354  22.8518372  26.2649803  46.6077194  22.4889755  27.1010666
  55.1173210  54.8414001  21.2365761  54.3156815  55.3535728  21.3428249
  55.3660507  54.9728813  20.3216572  71.8965759  36.9864998   3.3620920
  72.1276321  37.1730614   2.4521253  72.7064514  37.1352158   3.8501673
  51.5981331  35.3372726  22.5953808  50.8045349  34.8026199  22.5713139
  52.2986221  34.7171974  22.7979908  64.3322372  70.0914230  11.3828630
  64.2846146  71.0262985  11.5827913  64.9620972  69.7433014  12.0139933
  76.0673447  36.1363182   2.2053907  76.8458252  35.9074860   2.7131648
  75.8240738  37.0072289   2.5193398  12.4103851  64.3529739  65.1041183
  13.1549044  64.7277603  65.5747147  12.1384563  65.0422821  64.4981918
  81.9565201  62.8186722   4.3028593  82.4944458  63.3311157   3.6993113
  81.1556091  62.6341438   3.8122182  61.7790680  46.4962082  59.5737762
  61.1866417  47.2446098  59.6455994  61.2980614  45.8598976  59.0446472
   3.2919149  40.0256729  86.4300995   3.7429762  39.4042816  85.8585739
   3.9446063  40.7020798  86.6109314  20.4320469  55.8586960  53.7983131
  20.1263294  56.2033615  52.9592781  19.6617699  55.8913155  54.3656197
  60.4816322  13.3866272  27.7141209  61.2442780  13.5253906  27.1525631
  59.7560196  13.7882175  27.2361660  45.5240555  66.2002258  24.2073498
  46.2617950  65.8975372  23.6778698  45.8905830  66.3179779  25.0837193
  19.2060528  69.5717010  77.4330597  18.4234314  69.9073334  77.8701935
  19.7376366  70.3493958  77.2632141  40.4359474  47.9493866  66.6377563
  41.0430565  47.3349304  67.0501785  40.6281281  47.8844986  65.7022934
  73.9167709  62.8762932  57.3800163  74.7204666  63.3421898  57.6107597
  73.4291687  63.4947815  56.8360062  10.4259968   5.4304476  38.5241737
   9.5900078   4.9720330  38.4392624  10.9743519   5.0585084  37.8333740
  61.2687454  49.2908783  42.9630165  61.0078392  48.6024513  43.5747604
  62.2256851  49.2756844  42.9792862  52.6490631   0.3180800   1.0412554
  52.9832840  -0.1235206   1.8219711  51.7189026   0.4532548   1.2222580
  69.2258835  64.3516617  83.9716721  69.4091568  63.5585899  84.4753265
  69.2762299  64.0719070  83.0576477  52.3945312  70.7130966  33.1260300
  52.7429352  71.4075546  32.5669403  51.8164444  71.1667938  33.7393913
  30.6608448  59.9347153  54.1340561  31.5571537  59.6653633  53.9332809
  30.2688351  59.1687775  54.5534592   5.0020442  49.4332771  70.6274185
   4.8508649  48.4898300  70.5700760   5.8837662  49.5563622  70.2757797
  46.2835922  38.9625244  62.8180771  46.2329674  38.1239395  62.3593369
  45.4165955  39.0750580  63.2078056  86.9102783   8.0708704  32.5276756
  86.1712723   7.6953321  33.0062828  86.5087585   8.6725149  31.9007511
  72.3496246   7.3606167  78.8888321  72.2497177   6.6605926  78.2436905
  73.1468506   7.1333184  79.3673706  71.6440659   8.0344810  24.4324875
  72.0491714   7.1674361  24.4136353  72.3330460   8.6273298  24.1323719
  59.4127731  32.7586708  86.9052658  58.5839844  32.3147125  87.0848312
  59.5369110  33.3451500  87.6515045  76.3125458  55.9829674  76.8226776
  75.9019394  55.1183701  76.8329773  76.8853149  55.9669838  76.0559235
  32.2926331  31.3966541  84.1092911  33.0690804  31.6749840  84.5949860
  32.3621445  30.4426785  84.0728226  73.3544464  48.6631584  30.9314613
  72.6752930  48.1806335  31.4027920  73.3171387  49.5472717  31.2964039
  86.0604324   3.3744285  15.6915836  85.4937515   3.7597828  15.0232964
  86.5531082   4.1154876  16.0441837   0.3843072  21.6659775  77.7531509
   1.2920009  21.7122765  78.0534515   0.4489869  21.4053135  76.8344040
  62.9570084  21.8812504  24.2815571  62.2309265  21.6297550  24.8523331
  63.6663284  22.1090126  24.8825741  11.5611258   1.3075938  17.6793709
  10.8030758   0.9458915  17.2202816  12.1757040   1.5378122  16.9825745
   1.8911333   3.4679258  34.7665329   1.4871130   2.6001713  34.7652512
   2.8245645   3.2977135  34.6401749  79.0115509  33.8883438  86.2327042
  79.2830963  34.4107742  85.4780121  78.7486343  34.5338783  86.8887482
  64.7773743  27.7185326  10.4364710  64.0858459  27.5568371   9.7946978
  64.9633865  26.8571987  10.8102865  49.7211494  36.0129852   7.4123063
  49.4397354  35.1427269   7.6945982  49.3519020  36.1111412   6.5346646
  53.8265648  23.7552891  63.4849014  53.3372879  24.4763985  63.0888672
  53.3791237  23.5894852  64.3146820  83.7984924  41.3535652  64.9772644
  82.8653793  41.3018417  65.1842651  84.1871948  41.7952728  65.7322693
  30.5666523  49.7421227  30.0186863  31.4172153  49.5814514  29.6100807
  30.2377281  50.5297012  29.5853748  81.0096970  32.5786247   2.0297582
  81.1751099  31.9444046   1.3321649  81.7289810  32.4480553   2.6476674
  16.8187294  17.4707661  61.6661339  15.9524860  17.7294903  61.3516273
  16.9757633  16.6178837  61.2609634  86.4425354  52.1614189  41.3281441
  85.8567810  52.3132935  40.5864830  86.2334900  51.2743225  41.6207008
  60.8200989  69.4115829  17.2073498  61.0280914  69.8456268  18.0347443
  61.2057610  69.9759369  16.5372677  77.7771149  36.2399483   4.6533952
  78.2939148  36.0528908   5.4370799  78.0248032  37.1320610   4.4104528
  25.9563026  60.1368408  10.0738258  25.6039467  60.1661491  10.9633303
  26.1283493  61.0524521   9.8540716  68.1982651  50.9202728  22.8489914
  68.1664810  51.5207214  23.5937653  67.4001923  50.3977585  22.9283714
  73.0264282  65.5598755  56.4234734  72.6475449  66.3641586  56.0687790
  73.8427734  65.8414917  56.8363953  82.1347961   3.7293720   3.3579535
  82.8105240   4.3515496   3.0886538  81.8419647   4.0484071   4.2115927
  51.2630615  41.9598656  35.2435570  51.3150330  41.4010277  36.0189476
  50.3627701  42.2849846  35.2425499  60.1653862  52.4277458  29.2620010
  60.0915108  53.1403580  28.6272125  59.4185867  51.8597679  29.0724602
  31.8128376  63.7697372  21.8708382  31.1860847  63.3976479  21.2503872
  31.9957199  63.0569992  22.4830399  69.7884674  35.4239006  84.4127274
  69.0303345  35.1345253  83.9050522  70.0296555  34.6614342  84.9387512
  71.6509247   2.4722562  40.7193222  71.2741089   3.1819954  41.2394295
  72.5915146   2.5241880  40.8891144  46.9988556  55.5052719  79.5625153
  46.2608528  56.1132736  79.6063385  46.9547958  55.1383629  78.6795273
  58.9255829  61.7760773  19.9485264  59.6260071  62.0667496  19.3644485
  58.1972122  61.5672264  19.3636436  52.7704163  63.2164803   5.9347429
  52.2081985  62.5915184   5.4769578  52.7954178  63.9816742   5.3602123
   6.5720415  14.2193956  49.1624489   6.7738581  14.3546648  48.2365990
   5.9360552  14.9035702  49.3713989   5.0404930  49.9428482  52.2541504
   5.5915613  49.3438644  52.7579117   5.2388558  49.7393570  51.3401070
  23.4149952  34.4465942   6.4445615  22.6719379  35.0409203   6.3402772
  23.0179234  33.6010590   6.6534495  33.3415070  38.3251915  77.3284683
  32.9953842  38.7504463  78.1130676  32.5667763  38.1240273  76.8035278
  13.9945507  12.5890560  25.3899555  14.2902603  12.9130888  24.5391960
  13.1129169  12.2544966  25.2255650   6.1902699  35.9963531  17.8947582
   6.7516880  36.3129463  18.6024380   5.5027485  35.4996605  18.3384266
   2.0189719  46.7553635  73.0109940   1.1389457  46.8660889  72.6510925
   2.5755284  47.3004723  72.4548111  67.2923203   1.6091393  16.1989574
  68.0005188   2.0798347  15.7594957  66.5194626   2.1570008  16.0619602
  65.7577438  53.1511650  77.7409515  66.1202316  53.8511581  78.2839508
  66.1146240  53.3158722  76.8681793  60.2663803  61.2582741  47.7989426
  59.4504929  61.5701904  47.4074516  60.0706291  61.1834984  48.7329254
  62.4455414  65.8584595  16.4677410  62.6014671  66.3320847  15.6506758
  61.4986038  65.9102020  16.5976143  38.5779305  47.0795097  14.2573214
  38.8562622  47.3103714  13.3710556  37.6556854  47.3333969  14.2925053
  65.8577347  56.8195648  10.1509008  65.5441132  56.7988396   9.2467747
  66.6615143  57.3380127  10.1137753  43.9746017  21.0534744   0.9393479
  43.5117226  20.2562351   1.1970028  43.3335457  21.5483189   0.4290470
  73.4381561   0.9787102  22.5146294  73.0085983   1.8331381  22.4738827
  74.1215668   1.0855246  23.1762791  76.4381943  55.4127121  66.7823563
  75.5813751  55.0949287  67.0671539  76.3229370  55.6123085  65.8533249
  18.2305260  38.5479774  56.4680901  18.2208614  38.5957947  55.5121346
  19.1140652  38.2497406  56.6840630  79.1344757   1.7003082   9.3998718
  78.3621674   2.0368106   8.9454031  78.7862778   1.0656446  10.0261230
  16.9933929  63.2976151  83.9418411  17.0909462  62.4941292  84.4528503
  16.0903530  63.2720871  83.6254501  31.9746552  48.2745056  14.6458597
  31.0208511  48.3007126  14.5696955  32.1742897  48.8762627  15.3629827
  35.7807961   3.0339363  30.8528309  35.6346893   2.0992033  30.9982910
  35.1706314   3.4674306  31.4495029  27.6295509  66.6854858  27.6724339
  27.4294643  66.1838608  28.4627304  27.4878197  66.0682526  26.9546795
  65.1197128  41.1541214  82.3568573  64.4758530  40.8030205  82.9720001
  65.9237213  41.2323456  82.8703537   7.3004198  33.4140053   3.5501416
   7.0955887  33.2721214   2.6259418   8.1406107  32.9740410   3.6795366
  76.3400345  66.0761032   1.4811592  75.4608078  66.0187149   1.8551892
  76.6089706  65.1653976   1.3606671   4.3862209   3.3488944  50.4096146
   3.4500544   3.3936727  50.2151451   4.7485952   2.7965791  49.7168922
   0.5099170  55.2938995  59.0660019   1.1658448  55.1628532  59.7507057
  -0.2413595  55.6717758  59.5231934   1.7227515  70.7790451  79.1535110
   1.1678898  70.0067291  79.0444794   1.3647981  71.4197998  78.5390778
  15.2366800   0.7941782  81.2350006  15.1057787   0.6062950  82.1644058
  14.4757509   1.3194193  80.9873352  42.0354538  58.1179085  39.7642784
  42.2844963  58.8578491  40.3180847  42.7704544  58.0128441  39.1601562
  33.6860695  64.4970169   7.2328296  33.7618599  65.4466400   7.3261733
  33.1040115  64.3757858   6.4826684  20.4701862  62.3213844  59.0955009
  20.5034962  62.8245430  59.9091110  21.3874207  62.1497154  58.8823318
  15.4843102  64.9390640  18.4837093  16.3381786  65.3273163  18.2929287
  14.8898897  65.6866989  18.5464821  79.3919067  12.0419626  75.3738251
  80.1783066  12.0885086  75.9175568  78.9438019  11.2489948  75.6681595
   1.0428976  67.9266891  21.7049179   1.4035296  67.3028641  21.0748272
   0.4030040  67.4196167  22.2045631  16.5025959  68.6678772  89.0923996
  15.9183435  68.9251022  88.3791504  17.3719330  68.6425858  88.6925964
   7.3788724  52.4951363  64.2150345   6.7814264  51.9468307  64.7236176
   7.6758347  51.9289322  63.5026741  27.3666534  33.7770424   3.2966151
  27.8713913  33.8557396   2.4871221  26.8002644  33.0188866   3.1529663
  40.1897316  10.5467463  11.8412886  39.4595947  11.1513548  11.7086916
  40.0266304  10.1591787  12.7011843  56.2119904  32.4843292  31.6741600
  55.4792328  32.1296196  31.1706905  56.6841202  31.7123699  31.9862518
  15.6837349  57.9542427  85.7036057  15.3056946  58.3728638  86.4769592
  16.6273708  57.9625015  85.8639679  80.8494644  26.0203438  84.3031082
  81.5065765  25.3247738  84.3277893  80.0957413  25.6224327  83.8674545
  26.4600029  51.5035248  29.7875252  26.0340786  52.3325233  29.5693836
  25.8192749  51.0396004  30.3264790  61.8554153  15.6044703  23.3591118
  61.6981163  15.2144156  24.2189636  62.1424561  16.4974289  23.5500660
  58.2364616  62.2497101   9.1256170  58.4956512  62.1552315   8.2090330
  57.8647346  63.1301117   9.1798754  62.4020615  38.7415657  62.4204063
  62.0158882  38.2771530  63.1629829  62.2572060  38.1610222  61.6732635
  14.5941572  33.1836548  76.2798996  13.9852648  32.5380592  75.9211731
  15.3678656  33.1202087  75.7199173  49.3219833  54.7295532  40.2702484
  49.5206299  55.5782661  39.8747063  48.6409073  54.3576546  39.7098351
  66.3508148  63.8474922   6.6526971  66.5532837  63.9698715   7.5801992
  65.9608688  64.6783752   6.3810110  63.5792122  68.6153030  28.6518002
  64.2365570  69.2235336  28.3138885  63.8196335  67.7690125  28.2746754
  18.2139282  61.9709206  81.8474121  18.9025555  62.0674210  82.5052185
  17.7722111  62.8200417  81.8367386  64.1419754  20.0134735  31.4159737
  64.0541306  19.1877098  31.8920307  65.0845413  20.1142883  31.2831841
  57.2870598  27.9718380  20.6992493  57.8736343  27.7911739  19.9647293
  56.5371933  27.3948021  20.5544720  57.8395500  57.4234695  56.4475861
  58.6927452  57.6477051  56.0760880  57.2637634  58.1371727  56.1731186
  60.4619217  49.5991554  65.9598694  60.4526901  49.5029373  65.0075684
  60.4546509  48.7012367  66.2914047  86.3245773  65.3725662  20.0402508
  86.9219131  64.7347717  19.6495590  86.2112274  66.0402451  19.3637943
  71.1369324  49.1562691  50.5888252  71.0309296  49.4285736  49.6773186
  71.9274597  48.6165504  50.5871735  38.8053932  68.4085007  75.5430145
  39.2533417  68.6864777  74.7440796  37.8784180  68.5684204  75.3658829
  18.2792149  59.2950172  86.1537170  18.3708344  58.7422829  86.9298172
  18.8711529  60.0303650  86.3121567  22.5930653  49.3252907  63.8563156
  23.3166237  49.3705025  64.4813385  22.9675503  49.6392822  63.0332718
  26.7310505  54.5043182   7.5034604  26.8238869  54.4016418   8.4505987
  27.6145573  54.7085114   7.1969419  62.4078751  71.1650848  15.6611032
  61.8480034  70.7669525  14.9945707  63.1296616  71.5535202  15.1667595
  62.8875809  59.2546844  79.4046021  62.7786140  60.1713867  79.1515961
  62.1581535  58.8012581  78.9820251  62.1848221  15.6970930  76.8421707
  62.3735962  16.5003681  77.3273010  61.5192947  15.9536133  76.2038116
  65.8177567  42.1951141  65.2391891  66.7487030  42.2518082  65.4544983
  65.7170029  41.3322754  64.8372116  83.0593262  32.6170959  79.1927185
  83.9588470  32.9443283  79.1892090  83.1052399  31.7852135  78.7214432
  71.3306046  32.2486839  37.3166084  70.4277039  31.9356956  37.3717728
  71.4372025  32.5125732  36.4027023  20.0486126  11.9347239  79.3930283
  20.4808197  11.4353266  78.7001877  19.1797714  11.5398359  79.4665604
  34.0504074  40.5265388   8.6895847  33.6925735  40.1238556   7.8983626
  33.2804565  40.7741280   9.2015476  21.3280563  24.9099369   1.3603297
  21.7940922  24.8297005   0.5281011  21.9602776  24.6197128   2.0178235
  10.8124523  58.0109825  55.9970284  10.2512579  58.7275505  55.7006836
  11.1251335  57.6021576  55.1899834  49.2183533   1.6437088  28.2916603
  49.9083939   1.4038488  28.9101601  49.6627312   1.6959438  27.4454727
  16.1405716  44.0278435  13.1492796  16.9244022  43.5041618  13.3154049
  15.4329090  43.3863907  13.0861387  44.7088928  57.1960983  48.8122826
  44.7427216  56.6113625  48.0552025  45.1041374  58.0112495  48.5031815
  55.9263077  18.5670643  43.8343048  56.2402420  19.4358501  43.5835266
  55.4036331  18.7193069  44.6216202  56.2683830  46.0807762  85.2394409
  55.8122787  46.7095909  85.7987213  56.5970383  45.4161415  85.8448105
  13.7344007  42.8646927  55.6978455  14.4535694  42.5431252  55.1541328
  14.1416922  43.5083351  56.2775612  84.7706604  50.1178436  77.2147980
  85.6493835  50.3448143  77.5190430  84.1884308  50.6865234  77.7186203
  48.3792725  61.0808029  72.3537140  47.8940620  60.5948029  73.0205002
  48.3516388  60.5182571  71.5797577  22.6443272  66.1396179  60.8080902
  23.4666348  66.5458755  60.5342369  22.0389080  66.8731995  60.9156113
  40.0854836  56.2844849   4.3122692  40.1585541  56.7079163   5.1676044
  40.9772758  56.0037537   4.1070218  61.4151421  28.4457760  48.5158691
  61.4831123  27.6727791  47.9554367  61.9974899  29.0878887  48.1099243
  11.0806923  14.3795261  54.8324814  10.3602505  15.0074711  54.7788048
  10.8851032  13.8564835  55.6099129  16.0616169  61.4624786  85.7715988
  16.0531445  60.6872482  86.3330078  16.4880676  62.1366539  86.3006210
   7.6717730  65.9589386  57.7958984   8.4243793  66.0551987  57.2123337
   6.9359379  66.3161011  57.2986984   8.9604521  58.5859566  50.9760475
   9.1164551  59.2858620  50.3419914   9.1616354  57.7810669  50.4986420
   0.3128898  55.9823647  81.6473618   0.8990980  56.0505486  80.8937454
   0.5366482  56.7357483  82.1937866  12.0087032  18.2837334  73.5772247
  12.5859556  19.0328827  73.7248306  12.5347042  17.5234985  73.8254166
  35.8330383   2.4599748  42.3952827  34.9646606   2.1062684  42.2028122
  36.3212776   1.7167381  42.7494774  24.4027081  47.9931450  57.1174965
  24.3725033  48.8954086  56.7993126  23.4841213  47.7343597  57.1913910
   9.0967607   9.2865343  80.3787689   8.9644527   9.9388285  81.0666962
   9.4589653   9.7826996  79.6446991  65.7292328  45.3039627  46.7428169
  65.5972672  46.0197029  47.3645325  66.2652054  45.6861153  46.0478859
  60.3851357  10.9686613  43.1230278  60.4335899  10.0377798  42.9054413
  61.2686310  11.1925745  43.4154816  29.9557705  54.2177429  24.7099342
  29.2833176  53.7706261  25.2238655  30.4864597  53.5106392  24.3430481
  13.8079071  71.7234497  63.9947090  14.5707006  71.2622986  63.6458282
  13.0744972  71.4060745  63.4678154  74.1617050  12.9434099  86.7215881
  73.7050171  12.1030254  86.7592697  73.5297089  13.5750542  87.0648575
  62.1245422  24.1673527  18.4746685  61.4346733  24.5386143  19.0246468
  61.7714996  24.2102852  17.5859909  32.9421921   5.8476510   2.3799851
  33.8969460   5.8091841   2.4365137  32.6861458   4.9825382   2.0602176
  36.8747826  67.5163193  60.8465576  36.2483101  66.9129257  60.4469528
  36.3325005  68.2069778  61.2275543  56.8112602  31.6450386  61.2118607
  57.3268394  32.2460670  61.7496109  56.3093681  32.2152328  60.6294365
  45.2790337  37.7000618   7.4563193  45.0832825  37.6603546   8.3924484
  45.6516800  36.8421516   7.2529516  14.1832008  41.7015648   0.1087444
  13.7275677  42.5369186   0.2127397  14.7662411  41.6508331   0.8661892
  22.5461674  65.7319412   8.9529753  22.3760471  66.6321182   9.2304211
  22.2548466  65.7030869   8.0416403  55.2842293  67.9477768  40.4911270
  55.3985672  67.5580444  39.6243706  54.6682129  67.3657379  40.9360809
  72.4296951   7.6231818  55.5866203  72.7438202   8.3120136  56.1723404
  72.1596680   8.0872917  54.7942047  43.2927818   6.6838493  27.1783943
  44.0620651   7.1101894  27.5561123  43.4892921   6.6195507  26.2437916
  47.3244209  64.5652237  41.5403099  47.1663818  65.3580627  42.0528145
  47.3812180  64.8722839  40.6354752  79.3388519  29.3283787  21.2823792
  79.9030685  29.7788982  21.9108105  79.9455490  28.8637600  20.7059441
  78.7250977  34.3776665  15.5550127  78.4109116  33.9822235  16.3681221
  78.0389023  34.9983368  15.3097696  31.7381802  17.3717842  84.4532166
  32.0557175  17.2992382  85.3532867  32.0976334  18.2012482  84.1385422
  49.2180824  37.4377785  78.6437988  48.7975883  36.6276283  78.3555756
  49.9827881  37.5262489  78.0749054  47.3883629  12.8779430  84.9993744
  46.7870293  12.2534389  84.5936356  48.2559471  12.6012678  84.7044601
  65.6952820  59.9326553  54.7071342  64.8894958  59.8981895  55.2226372
  66.3917007  59.7539139  55.3390274  77.2750320   7.1166658  51.5144730
  77.3776321   6.8187146  52.4183121  77.4336014   6.3350511  50.9851608
  57.1171837  41.6538620  44.6727562  56.5391579  41.0666695  45.1599121
  57.9840431  41.5039482  45.0500031  39.0264130  21.5719986   1.9264981
  38.4732590  22.3388653   2.0753973  38.6414986  20.8888130   2.4754338
  69.7915344   0.7117442  79.5444336  69.7760391  -0.0148474  80.1673813
  69.6692886   0.2975134  78.6902084  77.5255051  17.6295967  81.8625183
  77.2534027  16.8376503  82.3262100  77.2912903  17.4647789  80.9491653
  69.1073303  66.6912384  60.2844086  68.7803040  66.9225235  59.4150429
  68.3188782  66.5159607  60.7980728  79.5088348   1.1422484  62.8184433
  79.7403488   0.3991801  63.3756523  78.9307404   1.6779774  63.3616104
  39.2038879  68.2818604  59.7787018  38.9712830  69.1826630  59.5535812
  38.4979057  67.9890671  60.3549767   9.2314110  61.4247894  79.8462372
   8.4249706  61.9175491  79.9981384   9.4164610  61.0036201  80.6856461
  71.9407043  69.0434952  58.2493248  71.7576981  69.9821243  58.2078857
  71.6284943  68.7013931  57.4116325  72.6829681  20.9283810  47.8400955
  73.6029282  20.6928520  47.9602432  72.2369537  20.5448608  48.5952225
  69.6272125  17.9802666  76.5676575  68.9845276  18.5716553  76.9593735
  70.0410004  17.5475845  77.3145218  41.4752197  64.5070877  10.6153021
  41.3973312  63.6934280  11.1134233  40.9934921  65.1520233  11.1332045
  43.2672806  18.9736061  62.4162407  42.8667297  18.6838703  63.2359009
  42.9535789  19.8704739  62.3002663   5.7804246  36.8310738  63.2310829
   5.0938492  36.4091759  63.7476578   5.5435462  37.7584991  63.2298927
  22.3051567  39.1146049  78.1461868  21.9867878  39.2913704  79.0314178
  23.0174084  39.7411537  78.0182571  34.5905762  50.6134148  -0.1926064
  35.3908043  51.0353622   0.1201692  34.3177299  50.0504837   0.5318903
  75.6985550  49.1456642  77.9242630  75.6336517  48.2002487  78.0592117
  76.0491638  49.4818268  78.7490692  19.0102539   2.4026432  78.2896652
  18.1814747   1.9875907  78.5285950  19.6583691   1.9891125  78.8599014
  51.1811066   1.7421563  26.3131084  51.2136307   2.4008448  27.0068684
  51.6415749   0.9866526  26.6783733   0.8005034  41.2639160  40.7255096
   1.0962942  41.2665901  39.8151627  -0.1044347  40.9549484  40.6824074
  44.2726860  29.4387760  62.4191475  43.8844910  28.9714661  63.1588478
  43.6073227  30.0777359  62.1636963  13.8416128   9.7752419  73.7042084
  14.7618217   9.8085918  73.9656143  13.8629169   9.8092756  72.7478485
   0.0268821  13.0026131  17.9739380   0.3794190  13.7224541  17.4506989
   0.6312698  12.9246826  18.7120953  43.5996971  19.7128506  67.2368469
  43.8907204  20.4298420  66.6734085  43.8352394  19.9926281  68.1214218
  19.2007370  49.7878494  17.2671165  19.6841145  50.2994423  16.6183872
  19.5977516  50.0267143  18.1047058  23.9895630  34.1556473   3.5892675
  23.4011765  33.4298172   3.7971230  24.3680191  34.4060669   4.4320569
  68.3569183  57.4458427  86.0268326  67.4370880  57.5152359  86.2824402
  68.6513367  56.6211052  86.4132996  54.1663551  59.6484566   6.7711043
  54.5848999  58.7985573   6.9079375  53.4941101  59.4808159   6.1106400
  27.6382828  29.1012726   7.5129609  28.2583733  28.9511642   6.7993875
  26.7999496  29.2479649   7.0748825  54.2859764  24.6000786  46.8237572
  54.4944267  24.6060944  47.7579651  55.1126823  24.8164101  46.3924942
  50.8534164   7.9783411  17.4448071  51.2452583   8.6874132  17.9546204
  51.5992203   7.4592977  17.1438007  79.9781723   1.0625674  68.3014374
  79.0837097   1.2117593  67.9950027  80.2745056   1.9214162  68.6027756
  73.7790604  14.7713976  81.4483261  74.6971588  14.5790215  81.6388855
  73.4172821  15.0648861  82.2845154  46.0853195   8.3270035  28.0758324
  46.9534454   7.9241834  28.0937958  46.1582413   9.0794821  28.6629353
  71.3215561  13.9656172  16.5768547  70.6412277  13.6519938  15.9810171
  71.2136765  14.9166899  16.5842018  64.2172852  10.5025129  37.8485184
  63.5367126  10.8816776  37.2923813  64.9871674  10.4491730  37.2822456
   6.2567234  54.5982780  86.5801086   6.2036176  55.4131355  87.0795288
   5.7976527  53.9555779  87.1208725  24.2913551  61.8936272  75.1209335
  25.0737305  62.4332657  75.2345657  24.1708698  61.8431435  74.1726837
  37.2564011  31.9917374  61.7048874  37.2939415  32.7250481  62.3189545
  36.9109383  32.3727875  60.8976135  81.3299866  31.6127090  28.7879734
  80.7278366  32.0847168  28.2127724  81.9398270  31.1782837  28.1916485
  47.6476746  50.2959251   4.4822164  47.8635864  51.2009888   4.2575617
  47.0829887  50.3683319   5.2517085   8.8546152  69.1686630  21.6928940
   9.5415955  69.7252731  21.3261948   8.4491301  69.7056961  22.3736305
   2.1282837  38.6340446   3.5351076   2.4207280  38.1893616   4.3306980
   2.9296439  38.7742004   3.0307169  65.3147583  35.7115021  23.2439766
  64.4703674  35.3544922  23.5192776  65.4363632  35.3799820  22.3542938
  58.5194168  10.1500463   4.0730357  57.9310684  10.3779907   4.7928381
  59.2806282  10.7169428   4.1972060  11.0999975  37.5511932  23.9578114
  11.1651011  36.7971382  23.3718147  10.9322596  38.2927132  23.3762245
  50.1228065  52.5775642  82.1234589  50.3106346  52.7232208  83.0506821
  50.3995399  51.6756058  81.9618378  36.3565865  17.7245770  13.2968512
  35.8637047  17.0631409  12.8112555  37.1796532  17.2915745  13.5233536
  16.7807541  15.3908634   9.2725601  16.1954956  14.6539078   9.0976257
  16.7313786  15.9287491   8.4823246  54.8456764  10.0337534  45.6429749
  55.0162506  10.8203611  46.1610298  55.5577164   9.4366713  45.8725891
  53.0183716  17.4472237  65.0243301  53.5331879  16.6508751  64.8938217
  53.0699692  17.9058895  64.1857605  58.1828575  51.1493683  26.5144196
  58.1752205  50.6643181  27.3395863  57.2817001  51.4537430  26.4071617
  65.7183990  25.8123779  11.9467316  66.6341476  25.9182682  11.6890192
  65.7588120  25.4164352  12.8172646  48.6962509  61.1436996  21.3506908
  49.4372063  61.6236382  20.9807243  48.8799744  61.1059341  22.2893353
  70.6423492   3.3429360  47.1856842  70.9592667   3.9879825  47.8179092
  70.8642502   3.7150640  46.3321533  56.8859482  30.7743282  78.4209671
  57.3128395  29.9497795  78.6536026  57.3564186  31.0767899  77.6441803
  12.5012789  45.4514847  27.6090412  12.7298889  44.6749344  28.1198616
  13.0714979  45.4095993  26.8413639  33.9677773  63.3888206  28.5266323
  34.3333778  64.1091766  29.0401039  34.5370560  62.6439476  28.7198048
  50.1966782   9.9559736  38.2329140  50.9300957  10.3811035  38.6774292
  49.5772820  10.6651793  38.0608406  44.5131416   2.1221893  35.4032860
  44.1061668   2.0608208  34.5390892  45.4470062   1.9925426  35.2379951
   3.7901051  60.7150459  37.2153206   3.1274767  60.3988800  37.8294830
   3.3498852  60.7117233  36.3653641  33.7374916  43.1844254  14.9040136
  34.5412483  42.7223930  15.1422024  33.7130890  43.1452866  13.9479256
  52.7681274  68.1896744  52.4452744  52.7511482  69.1466064  52.4605751
  51.8460960  67.9334106  52.4657249  70.8314438   1.5953666   1.8355911
  70.1184235   1.3717439   1.2374024  71.2779083   2.3287780   1.4125013
  20.5581150  16.4752121  88.5682144  20.3415661  17.3111019  88.1551437
  21.2342339  16.6931400  89.2097778  73.8341064  22.9176197  13.5027409
  74.6725082  23.3549747  13.6512003  73.9285507  22.0669174  13.9312487
  26.6004620   2.8721766  49.3024330  27.4337521   3.2731471  49.5495796
  26.0233021   3.6132903  49.1183968  59.7043571   3.7535281  41.3350143
  60.0043716   3.3296881  40.5309105  60.3741989   4.4107776  41.5236130
  50.2069969  53.9027748  18.1788025  49.3224144  53.5461006  18.0980072
  50.4991455  54.0255928  17.2755871  68.8157043   4.1256323   9.4420614
  68.2141266   4.8631492   9.5440865  68.2540054   3.3906527   9.1960220
  42.7592239  49.0316887  14.4189625  42.9419594  48.6834641  15.2916479
  41.9049263  49.4549751  14.5040426  71.0165558  22.7135773  74.3123245
  71.1283188  22.8011551  75.2589340  70.9318237  23.6133308  73.9968948
  41.4502602  14.1093016  40.0245857  40.6626320  13.8047466  39.5738907
  41.8530655  13.3118629  40.3681984  10.8760557  62.9819336   9.7832994
  10.0808764  63.5147743   9.7854557  10.9112844  62.6078072   8.9029474
   4.3586087   3.8920927  55.4412956   5.0964317   4.2540746  55.9320297
   4.3475347   2.9640150  55.6753502   7.4091854  25.4621124  65.1155853
   6.5926127  25.5461960  65.6078949   7.1303568  25.2709408  64.2200775
  36.8204536  52.3224373  26.0473938  37.5452576  51.9292068  26.5334568
  36.7762222  51.8190613  25.2344437  16.8632717  60.3759232   0.8058100
  16.7156677  60.2489929   1.7430048  17.7746830  60.1170311   0.6696666
  79.8178024  50.8984795  80.6532593  80.2617950  50.4023628  79.9655304
  79.8290558  51.8032990  80.3411560  60.9625435  66.7186203  75.7007446
  60.1785431  67.1264572  76.0685043  60.6292496  66.1119766  75.0395889
  39.8354340  51.5415840  85.2305298  39.9033012  50.6569405  84.8713150
  39.5057755  52.0704613  84.5039978  74.2479019  12.8967638   6.9561892
  73.3498688  12.6507940   6.7342253  74.4677124  12.3473625   7.7085671
  47.5771942  51.8849792   7.5715346  48.4918327  51.8866501   7.2892885
  47.4633026  52.7230797   8.0196962  75.2408447  23.0826015  68.9336319
  74.8592911  22.2521210  69.2181473  74.5884552  23.7406292  69.1736679
  85.9187927  12.7952080  46.6365318  85.1348343  13.2893467  46.8762512
  85.6229782  11.8862438  46.5864258  82.5192108  51.4697227  21.1278667
  82.5051575  50.8026466  20.4415398  82.2085648  52.2650642  20.6952381
  31.2432499  17.2136536   0.0016705  30.4724483  17.7771816  -0.0656491
  31.4138794  17.1524925   0.9415515   1.1893997  29.5256863  73.1219330
   1.8902810  28.9281979  73.3827133   0.5109771  29.4034233  73.7860336
  67.5589294  71.0932236  37.3984299  66.8982849  70.7762604  38.0143127
  67.8435440  71.9313507  37.7628212  83.3227234  20.3712082  49.5067368
  83.1605759  21.0731430  48.8764801  82.9194794  19.5976601  49.1127205
  75.4828262  31.1673679  22.9712982  76.1040115  30.4405212  22.9259186
  75.0476837  31.0581131  23.8168449   3.5453408  62.1049271  18.4055614
   3.7044356  61.9349899  17.4770985   3.5865355  61.2418900  18.8175087
  77.1869888  49.8941040  66.6978531  76.4696274  50.4779510  66.4513931
  77.7341461  50.4199715  67.2812195  52.3535538   3.4384043  13.5758629
  51.6115952   3.6752174  14.1323242  52.4072762   2.4849527  13.6412544
  64.2434769   9.3891010  20.6391258  64.4180984  10.2117939  20.1820545
  63.9877930   9.6553631  21.5222797   8.3232994  50.5807610  24.0064030
   8.3871336  50.3433609  24.9314976   8.6907187  51.4634018  23.9597321
  64.2716217  65.8742065  51.1691399  64.2558289  66.7626877  50.8133545
  63.9678879  65.3222122  50.4485321  65.5068817  44.5495110  60.7498398
  65.5428009  44.4686661  59.7967377  65.2829514  45.4672737  60.9040985
  84.5861588  51.8629837  73.6398697  84.4486923  52.5860062  74.2518921
  85.1712570  52.2218666  72.9727173  83.9861221  39.2890549  47.2197647
  84.4505615  39.4759750  48.0356026  83.0597305  39.3611526  47.4496078
  55.3849106   7.0148401  37.2865105  54.5341492   6.8218374  37.6804504
  55.3301353   6.6453242  36.4052124   9.1131916  17.9838448  58.7140465
   9.8528872  18.5740356  58.5699730   8.3484840  18.5591488  58.7359123
  27.2085972   5.9145584  26.5166645  27.3687878   5.2878518  27.2222195
  26.5529919   6.5140476  26.8730717  75.8552094   5.7946510  82.3515244
  75.6257706   6.4640145  82.9961548  76.7743607   5.9652429  82.1458893
  10.8536129  70.0411911  59.7239265  11.0195894  69.2108002  59.2776909
  11.6346827  70.5666199  59.5504532  15.0585833  65.7599030  63.0196762
  15.1537399  64.8674240  63.3523140  15.2091398  66.3173676  63.7830849
  67.3294983  59.1098747  45.4554214  67.8807220  58.3294067  45.5124779
  67.0036011  59.1076546  44.5554123  67.8432312  58.1329002  16.6294956
  67.1948318  58.4514999  17.2574368  67.6192627  58.5733185  15.8096771
  76.4369965  20.3499432  64.1393661  76.3537521  21.2985954  64.2361145
  77.0631256  20.0941448  64.8166885  70.7611160   0.0568607  58.0453987
  70.8987885   0.7264491  57.3753777  70.1717529   0.4682402  58.6775780
  12.5291929  68.9837112  46.2952003  11.8479242  69.2150879  45.6638756
  12.5715370  68.0280151  46.2623863  43.4186325  63.2103004  28.7057228
  43.2110710  62.8554382  27.8413010  42.8905716  62.6900558  29.3113041
  14.0278063  32.7153473  16.8736000  14.8121538  33.1559982  16.5467072
  13.7529526  32.1492424  16.1523438   9.9140005  29.9323864  68.7235336
   9.0645037  30.3735027  68.7252960  10.5193443  30.5769577  69.0900269
   7.3023033  56.6016960   8.6493673   7.3630562  55.8457947   9.2334528
   6.3794193  56.6363869   8.3977461  84.8980484  22.2196445  19.9178333
  84.5107346  22.9977684  20.3187599  84.9845810  21.5964127  20.6391697
  73.2118225  39.9225883  82.9171295  73.7335510  39.8028183  82.1235962
  73.1940231  39.0568237  83.3250122  75.2954559  24.3511848  58.0199585
  74.5555878  24.9346504  58.1884422  75.9707642  24.6369286  58.6352158
  57.7830505  40.7957840  86.9586105  58.0775795  41.3746452  87.6617508
  58.0052795  41.2641029  86.1539230  78.5168533  39.7669449  77.6579666
  79.0003738  39.0403252  78.0509796  78.2853241  40.3285179  78.3977356
  81.9121857  11.6287003  25.7779789  82.2916260  11.3444614  24.9464378
  82.5414429  12.2612448  26.1246090  21.5182571  29.2893581  49.3932419
  20.6234627  29.5005379  49.1268234  21.7904434  30.0338707  49.9297562
  80.7220001  51.8121758  46.6097984  80.7968292  52.4111366  47.3526878
  79.8646774  52.0063782  46.2309685  55.1851463  68.4252472  43.6596489
  55.0994034  68.3743210  42.7076569  55.2878761  69.3594284  43.8412476
  64.0548859  26.4692039  19.3433762  64.9998093  26.5621796  19.2220860
  63.8668098  25.5688992  19.0782089  41.8261757   1.2867117  21.9207687
  42.1707497   1.2933427  22.8137722  41.7157631   0.3587599  21.7135334
  75.2348175  31.0731258  74.1391144  74.5163574  31.3357563  73.5637283
  75.0123062  31.4532909  74.9889297  32.2079735  70.9279709  66.1737213
  33.0805931  70.5493317  66.0669556  32.3564796  71.7382736  66.6611481
  53.4529495  15.5958529  22.9694214  53.4187508  15.2764578  23.8711128
  54.3765793  15.5300932  22.7269039  81.7961655  36.1244240  47.4473953
  82.5415115  35.5255623  47.4020538  82.1910095  36.9922676  47.5321159
  25.6016960   6.6881990  30.6275959  25.2987137   6.4929457  31.5143375
  26.2517147   6.0105286  30.4419346  21.9739685  57.8280983  70.2201691
  22.8213997  57.4185982  70.0457916  21.9852428  58.0112572  71.1596069
   6.0264449  47.1497917  66.6675262   6.8028612  47.6824951  66.4953766
   6.2406282  46.2901268  66.3051224  79.4689255  64.2912903  43.5139389
  79.8786545  64.2124405  44.3754082  80.1895370  64.5170822  42.9257469
  58.5088844  27.0504227   7.1802630  58.7734680  26.9837379   6.2627769
  58.3145866  27.9791412   7.3066101  60.0321426  33.5434418  67.4087601
  60.0428047  34.2529945  68.0511398  59.2227097  33.0665283  67.5920792
  15.9516745   2.5301783  72.6048508  15.6182470   3.2133574  73.1865082
  15.6530161   1.7115730  73.0009842  48.1156540  48.3473511  11.8079138
  47.7176208  49.1091385  12.2291985  48.2240829  48.6087456  10.8935022
   7.5620704  19.2944012   5.9570160   7.1433568  18.4604015   5.7440476
   8.2543793  19.0635490   6.5764093  74.7282639  51.5838089  38.7936554
  75.3202820  52.0463562  38.2005348  75.1827011  50.7660370  38.9960442
  46.7895126  21.4853058  57.7020493  47.3194122  20.8867149  57.1756210
  45.9026756  21.1288528  57.6501808  74.8915100   8.1521740  83.6329880
  75.3815002   8.9033356  83.9674988  74.0880432   8.1394587  84.1530914
  39.0298653  51.5401154  63.4646912  39.2032204  52.4803772  63.4189301
  38.7182655  51.3111229  62.5890808  21.6796150   6.3775969  12.9020720
  20.8972359   5.9288054  12.5816002  22.0415173   5.7862563  13.5620527
  37.2710266   9.4903431  70.8741608  37.7828484   9.3644085  70.0751495
  37.9000130   9.8307409  71.5103531  39.9998093  43.4785995  55.0687866
  39.4454689  42.7561111  54.7739143  40.8897476  43.1280212  55.0322342
  13.4627037  53.8928833  60.4938240  12.6821222  54.2778778  60.0954475
  13.2697630  53.8761864  61.4312286  50.5762024  57.0928879  12.0719652
  50.8337135  57.7097740  12.7570724  50.9199219  57.4747238  11.2643213
  83.3250122  24.0812664  27.1974163  84.0653152  24.5812340  27.5412350
  83.4946594  23.1809158  27.4745846  29.2526531  42.4557915  17.7549591
  29.7699146  43.0462227  17.2071800  28.3602219  42.7973404  17.6989212
  67.6238861  31.6886024  71.0887375  67.9616928  31.1613522  70.3647690
  66.8185577  31.2440472  71.3534012   7.3161912  40.9198952  26.7168694
   6.6730852  40.5282021  26.1259174   7.1404939  40.5133858  27.5654640
  40.9141388  47.2502708  61.5530930  40.4315796  47.9797440  61.1642036
  41.6144409  47.0655937  60.9272270  26.8212528  43.5418549   6.1825924
  25.9409809  43.6715355   5.8296976  26.9049358  44.2054253   6.8673558
  16.3997154  53.4933014  66.4335632  16.0746021  53.3163719  65.5508194
  16.4949608  54.4451485  66.4674149  22.7742157  19.5396404  79.0726776
  22.1094151  19.0520954  78.5862885  22.2803917  20.0209618  79.7365341
  10.9882889  43.2928467  21.7549000  11.5556774  42.7927094  22.3415527
  10.2020397  42.7542992  21.6654053  29.6754856  35.5176964  12.6536055
  29.2868977  35.5362625  11.7790279  29.5074768  34.6306152  12.9715595
  47.6885452  57.8874855   9.3202562  47.0912666  58.0589333   8.5921793
  48.1561165  58.7131958   9.4460087   1.8547903  63.9700890  83.4691696
   1.5884233  63.6189003  84.3188400   2.8011496  63.8298454  83.4380569
  20.8808422   4.6200829  68.9324493  20.1074352   4.9841909  69.3631439
  21.6173592   4.9350777  69.4564209  48.3067551  63.1632652  25.4692898
  47.9556084  63.7958298  26.0960197  48.3079224  63.6296616  24.6334038
   9.4809237  40.5669250  50.7894745  10.4256182  40.4238434  50.8470039
   9.2909536  40.5379219  49.8517647  77.1736755  29.6435242  35.8361626
  77.2145844  30.5976830  35.7718201  77.6885300  29.4337215  36.6153564
  58.0113144  34.9690895  71.5691757  57.8990021  34.0212326  71.6412125
  57.4454346  35.3298912  72.2516937  63.9622421  31.7628860  21.6449547
  63.0609512  31.5812721  21.3786411  64.3591080  30.8984623  21.7522106
  47.4921646   4.1459804  34.4679947  46.7429123   4.6020412  34.0847740
  47.2949982   3.2172267  34.3464508  75.2216568  20.2788677  29.9607925
  75.1477432  20.9635410  29.2959690  74.6791763  20.5893688  30.6857262
  47.3379059  33.5347633  63.1638565  46.8330727  33.1718140  63.8916206
  46.7300262  33.5293732  62.4244728  17.7175465  42.8133202  70.3684006
  17.4115086  43.6971664  70.5718460  17.1622734  42.5287476  69.6425095
  23.7288570  34.4135857  63.6332741  23.8664169  33.6868820  63.0256500
  22.8730545  34.7683716  63.3925247  49.9843178  67.4594574  27.6042538
  49.3232422  67.7145538  26.9607182  50.4318542  68.2763977  27.8246078
  24.8914528   6.6679335  59.7592468  25.6797161   6.2184267  59.4545860
  24.8178215   7.4343147  59.1905022  21.1476212   9.9438267  10.8069067
  20.6931572  10.4445057  10.1293993  20.4461594   9.5821409  11.3485394
  22.3794937   9.8339806  59.8012695  22.5479069   9.3583593  60.6146889
  22.8231316   9.3196430  59.1268234   6.3901587  45.6164513  16.2734051
   6.4109797  45.7423019  17.2220688   5.5023828  45.8671265  16.0179691
  62.3223152  43.8444672  19.5315151  63.2716560  43.8952408  19.6429119
  62.1127472  42.9223289  19.6797562  11.4654961   9.2807055  88.7866821
  12.2333212   8.7127743  88.8509521  11.4076900   9.5010118  87.8569717
  18.0230103  17.4625530  73.1796799  17.3603134  16.9653912  72.7002029
  18.8453083  17.2561455  72.7353210  29.4539146  51.9063873   3.4011087
  29.4605083  51.7997513   4.3523278  28.9283962  52.6923790   3.2518466
  80.6779633  61.1679649  82.5165787  80.4357147  60.8868332  83.3989105
  80.1377258  61.9414101  82.3548584  23.0796871  60.0795059  49.4397850
  23.8774433  60.3830528  49.8729973  22.7381649  59.3970985  50.0176392
   6.3104043  47.5065079  63.4221764   6.8922043  47.8653679  64.0922165
   5.4714947  47.3934021  63.8690224  43.6161575  48.6112938  42.6999893
  43.9102592  48.3467941  43.5716400  44.3364792  49.1380882  42.3537827
  40.6245918  54.3841629  85.1167984  41.2959938  55.0356979  85.3191681
  40.8366051  53.6391411  85.6791382  13.8652210  18.0406628   1.9499800
  14.7539043  18.1964092   2.2696941  13.9473381  17.2794781   1.3754500
  46.4500656   4.1125822  29.0064793  46.9793091   3.3155854  29.0369816
  46.5538521   4.5023775  29.8745346  86.0819397  60.9622498  56.2699585
  85.4684906  60.9578438  57.0047302  86.1162109  60.0503235  55.9810867
  53.6873779   9.1390839  56.9558754  52.9957581   8.7004337  57.4513359
  53.7490692  10.0093193  57.3497200  85.8648987   3.8113663  50.0403214
  86.5668030   4.4285889  49.8339119  85.8255615   3.8044851  50.9966888
  36.3445435  47.4687958  71.6894531  36.3206635  46.6889305  71.1349564
  36.6911697  48.1564140  71.1208878   8.0900736  40.0744743  60.0940895
   8.0520267  39.6990662  60.9737778   7.8270249  39.3580513  59.5163612
  62.4477081  58.9641151  75.2796783  62.9485931  59.6095276  74.7808838
  62.9306831  58.8684578  76.1005402  39.5372200  70.1999969  81.5626450
  39.3618050  70.2520599  80.6230927  39.6675758  71.1090088  81.8326874
  41.4981461  55.3829765  82.4658966  41.2387505  55.7457047  83.3128738
  41.7881660  54.4928207  82.6652603  63.8275337  18.6676979  65.9199905
  64.3209076  17.9506054  66.3182220  64.2399673  18.7968693  65.0659180
  67.1777649  32.1660728  66.9674759  67.6216202  32.3552895  66.1407852
  66.3655701  31.7304459  66.7090225  32.8162804  37.5232506  58.4001999
  33.0806313  37.6675835  59.3087807  32.8528862  36.5733376  58.2881203
  64.4358597  14.8099661  30.6518993  64.2648621  13.9344091  30.3049221
  63.5704727  15.2129507  30.7222195  77.5089722   9.7421474  22.9530697
  76.9600830  10.5256262  22.9865017  78.3492508  10.0227365  23.3156109
  73.8968353  69.6710510  46.4532089  74.7396851  69.3747559  46.1096420
  73.2826996  69.5342560  45.7318573  56.0378265  20.2872086   6.5320721
  56.0006142  20.6881847   5.6637034  55.6972885  20.9601974   7.1214375
  12.3572674  41.7018852  78.3753204  12.0209837  42.2776756  77.6885757
  13.1879673  42.0996971  78.6359177  36.8779564  70.0741653  51.6267738
  37.4839134  69.4387360  52.0079155  37.0838280  70.8971786  52.0700607
  85.6644135   5.4559016  88.0252914  86.4837494   5.9497037  87.9923859
  85.0225525   6.0286489  87.6055222  47.8624763  62.6838570  57.1765823
  48.6648178  62.3262253  57.5568237  48.1185951  63.5430679  56.8413353
  12.3915167  57.3342972  41.7545967  12.2801399  58.1915932  41.3436584
  12.5826921  56.7428055  41.0267105  76.3409729  52.0842056  23.7098427
  77.1462250  52.1655006  23.1987801  75.6385422  52.1688118  23.0651169
  29.8378162  46.1117058  48.1465454  30.3807201  46.7367287  47.6660919
  29.7177868  45.3819923  47.5388069  29.9441528  56.3106194   4.2996755
  30.6056519  56.9369202   4.5936131  29.6267471  56.6688538   3.4707279
  30.6271648  38.7682114  71.4517899  30.3595848  39.3309326  72.1784134
  29.8694344  38.7555351  70.8670578   3.8499215  34.4816055   2.3606815
   3.6844482  33.7147789   1.8122063   3.9375706  35.2053337   1.7403847
  78.1517410  57.0792999  56.8193436  77.6674118  57.9049225  56.8188210
  78.5976562  57.0637398  57.6661873  39.3613434  58.8757973  49.5791206
  38.5749931  59.2617149  49.9650650  40.0424614  59.0106506  50.2379990
  23.7917500   3.9966240  32.0229454  22.9974537   4.0095477  32.5569458
  24.1995945   4.8482909  32.1796532  47.3178596   7.0886412  43.3593330
  47.0267487   7.4659152  42.5291824  47.2537575   7.8096471  43.9856491
   4.9890327  70.9595490   7.7740145   4.0390363  71.0212326   7.6743493
   5.3364100  71.2093582   6.9177690  65.0021133  38.4432335  38.6631432
  65.2380905  37.6176529  38.2401085  64.0563583  38.3818398  38.7973328
   1.3746287  10.4058590  33.2853050   1.0130197   9.5244789  33.1923485
   2.3120365  10.2983656  33.1242332  56.8172035  30.4310474  54.8809433
  56.9335403  31.3712406  55.0178185  57.6998863  30.0676441  54.9519310
  14.8213987  55.3703842  42.1558990  13.8675785  55.3424416  42.2312431
  14.9936094  56.1035194  41.5650597  24.3126812  66.7559204   6.3588567
  24.9667168  67.2468567   5.8614149  24.7691936  66.4892883   7.1568146
   1.4706664   9.5432901  66.4501190   1.4619884   9.7190790  67.3909988
   1.3496698  10.4020033  66.0448990  51.5873337  37.0500107  70.7321930
  51.3677673  37.9569321  70.9455414  51.0126839  36.5266685  71.2908707
  17.8428993  17.7773209  16.4645081  18.4062004  17.5996037  15.7112885
  17.1624527  17.1056767  16.4184723  66.6132431  27.7866631  15.5905495
  67.4589767  27.9793034  15.9953423  66.5425873  26.8327255  15.6257954
  68.7454681  30.1965141  69.1443481  68.8122711  30.8417664  68.4404831
  68.3568268  29.4272251  68.7279510  49.5454216  64.8872070  43.8626366
  49.7089424  65.6399231  43.2943878  48.9501877  65.2192917  44.5346870
  50.0545616  42.2007370  23.7880764  49.6711807  42.9726868  23.3717289
  49.3309822  41.8075485  24.2760010  16.5846138  40.6951447  83.2066879
  16.8223953  40.2640381  84.0275650  17.2292595  40.3780556  82.5741348
  16.3416023  48.4893074   2.1511166  17.1435490  48.9288597   1.8684404
  16.6455841  47.6916618   2.5842316  72.4930191  26.0883293  35.9692612
  72.6852341  27.0233650  35.8985977  73.2706985  25.6565495  35.6156845
  75.2218323  11.6643391  12.4671326  75.2987518  10.9002151  13.0384731
  74.3655243  12.0362129  12.6785097  57.4117126  12.5151415  88.5953064
  57.6804810  13.2250595  89.1784134  58.1728401  12.3644543  88.0347672
  81.9357300  13.6349125  87.3405228  82.3733368  14.2533865  87.9255219
  82.3893585  13.7348919  86.5035934  57.6374054  51.4973946  48.2141876
  56.8370514  52.0213585  48.2477570  57.7122765  51.2329521  47.2972908
  67.3684006  20.8465958  16.9325657  67.5505829  21.0639095  17.8467960
  66.6629105  21.4424915  16.6807384  25.4228420   2.9617186  85.1844635
  25.7962036   3.6957352  84.6965637  25.7731133   3.0597470  86.0698700
  42.1287422  43.8286896  33.1164589  42.8376427  44.4350243  32.9018745
  41.3318596  44.2892113  32.8535347  77.3460236  26.6090984  87.0249710
  76.5064468  26.1689625  87.1577530  77.1261444  27.5402050  86.9944763
  30.4031963  44.5024643  52.5262642  30.5523872  44.3816376  51.5885124
  30.8106709  45.3450165  52.7270088   5.4202313  26.1280804  72.8136902
   5.0182695  25.3522854  73.2045898   5.1684794  26.0891285  71.8910141
  48.2941856   3.2294178  87.5873108  47.6987343   3.1354933  86.8437729
  48.6721115   2.3576417  87.7031174  72.6729660  54.7071915  34.9344177
  72.3319473  54.5662651  34.0511971  73.4536438  55.2461014  34.8065758
  58.1042595  13.9351749  85.7035141  58.7198715  14.1743507  86.3963699
  57.3412285  14.4919872  85.8583755  40.7483902  25.2204895  87.9314957
  40.5284500  24.5720692  87.2626114  40.1416321  25.9435978  87.7727737
  60.6207848  53.9448128  31.4125805  59.7647285  53.9514961  31.8407841
  60.5537033  53.2535667  30.7538605  54.9019127  43.7510338  48.1788101
  54.1615219  44.3460846  48.2970047  54.5554352  43.0423508  47.6366348
  33.5807838  52.8826218  55.5443001  33.5053635  53.4436188  54.7724037
  34.5219383  52.7411766  55.6465492   8.9722137  49.5338974  41.7008247
   9.0995522  48.6616364  41.3277588   9.8393793  49.9377747  41.6670494
   9.5976181  36.9067039  82.4730988   8.7790575  36.7824974  82.9534760
   9.7201595  36.0877800  81.9929123   5.9187016  58.4963226  11.1153584
   5.0887356  58.9707794  11.0676174   5.7386560  57.7565346  11.6954699
  62.3758659  22.5919495  39.8666801  62.9647675  22.2201099  39.2100525
  62.4645882  22.0126114  40.6234703  40.9462852  34.0955009  56.8651390
  41.0887794  33.2596817  57.3093605  41.6605988  34.1543770  56.2306900
  76.0743484  32.1584206  67.6222763  75.2467422  32.6317329  67.7075577
  76.7296600  32.7545624  67.9847870  19.2223129  60.8108749  64.0233765
  20.0415707  61.2852173  63.8817863  18.8524647  60.7047081  63.1469231
  23.9369278  56.6927872  65.1340256  24.5271702  56.1926384  65.6976700
  23.5879192  56.0469971  64.5197144  58.2474594   8.7724543  66.5095062
  57.7699776   8.2318592  65.8802185  59.1660500   8.5370808  66.3790283
  79.7767868  37.6842499  30.1765556  79.2823792  38.1220970  30.8694324
  80.0937729  36.8771248  30.5819016  19.4474030  71.5291290  68.7548599
  20.1090565  71.2860641  69.4024429  19.6036911  70.9372559  68.0189972
   4.9893732  42.8405190  58.1675224   5.1589417  41.9010391  58.2372017
   5.7797575  43.2530403  58.5158730  44.3405151   9.4571753   6.6168728
  44.4315681   8.6202488   7.0723901  44.4730797  10.1163397   7.2981663
  70.3788986  52.0427704  84.4078522  69.4659500  51.7595558  84.4583130
  70.8796387  51.2287064  84.3550262  41.5722618   5.9739938  74.2708817
  42.0777855   5.2768641  74.6888351  42.0692444   6.1902280  73.4819107
   4.7790270  24.1506901  82.7890167   5.2430787  24.0865917  81.9542847
   4.5522809  23.2466507  83.0070343  24.3773632  18.4180450  48.0664749
  24.3432369  18.2321320  47.1281242  24.7421818  17.6229706  48.4550591
   3.5955195  24.7675838  18.4551659   4.2249660  24.9757614  19.1455936
   3.5143204  23.8142891  18.4845753  62.9527702  48.8132591  56.2159233
  62.7748528  47.8727570  56.2102966  62.9818344  49.0459747  57.1439476
  23.8989182  55.4767799  36.8354683  24.1466274  55.0621338  37.6618729
  24.6782036  55.3984909  36.2851830  41.1964035   2.7062745  76.3103485
  41.3928185   1.9803646  76.9025497  41.9955521   2.8183370  75.7955322
  42.2143936  58.5095100  16.3216381  42.3093185  57.9441147  15.5551186
  41.5706596  59.1664124  16.0564690   0.7895592  34.1686134  32.3130264
   0.6006597  34.8875580  31.7099781   0.2550825  33.4415245  31.9937954
  46.5666122  45.5564194  25.4025555  47.2221451  45.5558205  24.7050533
  46.9201317  44.9616585  26.0640049  36.3654671  29.8223667  79.3262787
  37.3175163  29.7722969  79.4118729  36.1816101  29.4391384  78.4686279
  43.4650803  47.1652222  60.2754784  43.4345856  48.0807838  59.9979057
  44.2353058  47.1120110  60.8412933  73.6101685  35.0447693   1.4600155
  74.3179398  35.5351448   1.8781410  73.7071381  35.2332077   0.5265704
  62.1699638  22.1929188  15.8745203  62.0821114  22.1246700  14.9238062
  61.3558235  22.6067142  16.1611919  27.7542362   6.6975818   7.8938012
  26.9781609   6.1789179   8.1057596  27.4579620   7.3064251   7.2172194
  17.1175137  36.0627327  53.1598740  17.6302853  36.8414650  53.3763809
  17.3245258  35.8872223  52.2419548  84.7137146  53.3211823  47.2470665
  84.0357437  52.6586456  47.3798294  84.9627075  53.2281609  46.3275108
  14.1855011  69.3022385  69.5674057  13.9947472  69.0074997  70.4578934
  15.1360569  69.2230682  69.4873657  17.4664326  47.6413918  75.6488876
  16.5324020  47.4412422  75.5876083  17.8749371  47.0830269  74.9873886
  15.9341860  19.8987541  84.4670105  15.9095526  20.5473671  83.7635040
  16.1370125  19.0740623  84.0254517  42.0304527   1.6469319   6.9412432
  42.5871468   2.2578747   7.4240193  41.9316406   0.8975940   7.5285764
  37.8491325  65.4656448  11.6671305  37.5802040  65.2176208  10.7825994
  38.6841812  65.9175186  11.5457315  85.8713226  30.5837059   6.1652946
  85.4751205  29.8519154   5.6922889  86.7441406  30.2707863   6.4029980
  23.3538685   9.0668879  20.9236412  22.5524254   9.4390154  21.2916641
  23.3595486   8.1600571  21.2300034  85.6498489  21.8458652  40.6187286
  85.1683807  22.5723286  40.2229118  86.5623016  22.1351109  40.6189003
  20.5017262  30.3307934   4.8295970  19.6309834  30.4829426   5.1968670
  20.3381882  30.0877743   3.9183183  11.9824762  58.4782906  26.8728504
  12.6426344  58.0351410  26.3398914  11.4818916  57.7677269  27.2737827
  13.1190081   0.7199318  43.4875793  13.2204933   0.8852236  42.5502396
  13.3687172  -0.1975732  43.5974083  21.1223316  41.6720238  32.4301338
  20.9047470  40.8657990  31.9622746  22.0739594  41.6422539  32.5288849
   7.6046782  50.7711754  12.5013256   7.7007866  51.6424675  12.1168165
   7.0876307  50.9148750  13.2939453  86.8799744  20.4047394  84.5869446
  86.3594742  21.2019711  84.4882660  87.1380005  20.1751308  83.6942368
  38.9235725   3.2648053  72.8770905  38.3898048   3.9503455  73.2787857
  39.1736298   2.6976705  73.6065216  30.9290333  41.3983269  13.7089357
  30.0479469  41.2906036  13.3507271  31.1382294  42.3199844  13.5572195
  85.9631653  35.6173668   9.1634769  85.2147675  35.3596458   9.7017221
  85.7755508  35.2488556   8.3002100  58.2895966  27.3129139   4.0205607
  57.8217239  27.4240799   3.1929331  59.1539383  26.9902077   3.7655950
  67.5972748  27.9176178  42.2755318  67.3821564  27.1871414  41.6955681
  67.0355606  27.7899361  43.0399971  28.6605301  52.3635788  85.3428497
  28.3811455  51.5124741  85.0055084  29.4711456  52.5539742  84.8707428
  30.7295761  21.8742332  83.1474380  30.6182899  22.0939407  84.0724106
  30.1678677  22.4957523  82.6843719  83.9686966   4.8288121  25.1028633
  83.1869049   4.2952518  25.2455139  84.3910217   4.4355164  24.3391933
  58.6158371  61.1241455  29.6060734  58.2529297  60.3579788  30.0505085
  59.5354500  61.1415253  29.8710995  32.5903473  64.1048889  75.2588425
  32.0279694  63.4377136  74.8653412  33.2760124  63.6075974  75.7046967
  24.5964870  59.0130577   7.2677073  24.5465546  59.9027328   7.6172967
  23.9472237  58.5213242   7.7705884   3.8114953  16.2044106  33.9720116
   3.3136597  15.3935118  33.8679161   4.2537651  16.1073532  34.8153458
  44.4394417  40.9861565   4.4368563  43.9687195  40.4053001   5.0345678
  45.1744080  41.3167343   4.9533625  33.1039925  34.5520172   2.3739872
  33.1593170  33.6521759   2.6956427  33.4959564  34.5189629   1.5013459
  60.2160225  13.6117821  17.7876740  60.6484184  13.1120033  17.0952244
  59.3134537  13.7098436  17.4843826  79.8132629  69.3513412  45.4713097
  79.8208771  70.3084717  45.4800110  79.5829086  69.1218262  44.5710373
  82.9057159  66.9911270  24.9411411  83.7767792  67.3476410  25.1154232
  82.7736130  67.1293259  24.0032272  47.1752167  68.6220398  26.7989635
  47.5800934  68.7059174  27.6622543  46.2492065  68.4643555  26.9830074
  78.1389542  43.3190842   5.0094719  78.9686050  42.9657173   4.6884618
  78.2336655  44.2677574   4.9241385  29.7013454  49.4334908  -0.0963675
  29.5271301  50.3652687  -0.2292836  30.3882160  49.4109116   0.5699129
  18.4997787  14.2473555  21.8045082  18.4371796  14.7310534  22.6281281
  18.1547832  14.8502054  21.1458855  59.1791344  50.8836517  11.5763636
  59.5755501  51.0339127  12.4345646  59.2669182  51.7215424  11.1219721
  55.1542244   5.4634161  67.4709930  54.5283203   5.9989524  67.9585190
  55.3175621   5.9575510  66.6676407   6.3968740  45.1105003  75.0882492
   5.6950278  44.4931793  75.2945404   6.9218130  45.1521797  75.8875809
  14.1117868   8.8300772   3.2460372  13.9688711   9.1185236   2.3445909
  14.0112171   9.6244688   3.7704978  71.0534363  56.2372322  26.3401165
  70.9275284  57.0803795  25.9048195  70.9337158  56.4277725  27.2704887
  10.3655291  22.5079060  20.7463856   9.9157934  22.0206585  21.4367180
  11.2948818  22.4212646  20.9585819  56.7172318  27.1982422  57.7003746
  56.8600311  28.0662212  58.0778084  56.3720284  27.3717232  56.8246078
  78.0241318   0.8306333  38.5705147  77.8890839   0.6521993  39.5011902
  78.8026047   0.3236401  38.3399353  13.5779905   7.3024631  27.7919121
  13.6254768   8.1555576  27.3603954  13.4903851   6.6754546  27.0739861
  84.0304565   9.9890079  72.0709991  83.4261932  10.4988928  72.6105499
  84.8105698  10.5391045  71.9999084  50.7931671   7.2723279  87.6736145
  50.7185593   7.5829864  88.5759277  50.7700386   8.0689020  87.1433640
   5.9665823  17.6018581  51.1918831   6.0140276  17.3777046  52.1212578
   6.1202712  18.5462589  51.1651344  20.4614372  70.7475357  32.5459824
  20.3164139  70.2883759  33.3732491  19.5854378  70.8569031  32.1759872
  81.0351486  22.6136360  73.0743027  80.4176254  23.0221691  72.4676743
  81.8120422  23.1715641  73.0371094  63.5184212  49.9464264  79.8779373
  63.4029274  49.8449097  78.9331665  64.1532593  49.2706146  80.1156082
  54.9668159  38.9262505  48.7848396  54.2612000  39.2162209  49.3629875
  55.1321449  38.0199394  49.0446396  50.9935570   4.4042768  27.4131393
  50.4338989   4.4853716  28.1854324  51.5829124   5.1567841  27.4643555
  39.4250336  15.9856701  16.8306503  39.3535271  16.0192184  17.7845860
  39.7575378  15.1072464  16.6461372   4.4408207  13.7597246  21.5723839
   5.3353705  13.6012335  21.2708988   4.2652841  13.0469494  22.1866875
  43.1076622   3.0293345  67.1905212  42.3031960   3.4737082  67.4580994
  42.9222183   2.0993321  67.3206635  55.6317139  63.9662399  76.0105743
  56.5332451  63.6449203  76.0256882  55.6890144  64.8567963  76.3567886
  67.5464935  62.2736320   5.0116334  68.3145065  62.8069496   4.8067851
  66.9847565  62.8512039   5.5284491  16.1709213   3.5066266  81.9515228
  16.5966377   3.4164538  81.0989609  16.5930862   2.8463178  82.5010681
  59.0171204  28.0396481  15.1217060  58.0714645  28.1874046  15.1100531
  59.3906441  28.8515930  14.7789879  65.5045700  60.3111305  23.2347183
  65.8761368  59.7946510  22.5195827  65.6406174  61.2206306  22.9691296
  27.7661648   5.8401370  33.4853859  26.8747864   6.1887555  33.4735031
  27.6878395   4.9689851  33.0965538  42.3311958  14.2311420  14.0494585
  42.1054535  13.5465050  14.6791754  42.2998161  15.0425358  14.5562992
  46.9768944  38.8166237  16.0140858  46.0431137  38.8758392  16.2160206
  47.0418091  38.0927010  15.3912239  67.1864090  54.1853065  10.7002296
  67.3405609  53.6928253  11.5064096  66.2876587  54.5042229  10.7825317
  83.0070419  21.0631237  67.6464615  82.8081589  20.5448322  68.4262390
  82.6037292  21.9145851  67.8155289  40.0750771  48.9689293  36.0885925
  40.8231697  48.4515190  35.7904739  40.2444496  49.8496437  35.7540894
  21.8125172  60.3945236  86.8990707  22.1068707  59.5411682  86.5806808
  21.4706631  60.2182274  87.7755966  31.9081059  24.6049938  67.9236450
  31.9346333  25.4173489  67.4180679  31.4302521  24.8344193  68.7206726
  52.5355759  31.0750008  35.9748230  53.4903908  31.1181583  36.0267525
  52.3394775  30.1386185  35.9437675  84.5240021  24.1417618  40.0149384
  84.0946274  24.4620361  39.2216568  84.5967255  24.9137001  40.5762367
  50.9423218  59.7621880  22.7260647  50.9913445  59.5831261  23.6650867
  50.3317223  59.1067085  22.3887997   7.0502534   2.6399829  61.5071564
   6.4346900   2.9276452  62.1813698   6.8035860   1.7324063  61.3291359
  50.6834297  60.5514374  69.8959503  49.9571571  60.6419296  69.2790451
  51.1752205  59.7944679  69.5775604   6.2917924  67.6157837   1.0078590
   5.9745779  68.2085800   0.3265322   6.0393143  66.7440948   0.7034832
  37.8340225  64.3817749  78.9411469  38.2971458  63.6021118  79.2475433
  38.5052910  65.0635681  78.9131775  18.5532188  49.4805489  57.5783958
  17.8022881  49.4694290  58.1718674  18.6342449  48.5754356  57.2776566
  10.6100283  20.4552956  79.8914642   9.7091913  20.3356400  80.1921463
  11.0963955  19.7400875  80.3015366  68.4765244   1.8795476  38.7610054
  69.0096664   2.4177072  38.1758766  68.6159058   2.2588918  39.6287079
  10.9255915  53.9734039  47.7214622  11.6403532  54.0933037  47.0961838
  11.3268766  53.5130997  48.4585648  32.2662849  46.1081467  18.5264359
  32.4551888  45.9581451  17.6001282  32.3126335  45.2387314  18.9241772
  38.8634834  12.3235664   3.5617754  38.0058022  12.6201458   3.8661630
  38.6692047  11.7476072   2.8223445  21.2190781  35.6293106  63.2321815
  20.3699226  35.1875839  63.2254753  21.1376190  36.2945366  63.9156113
   8.3189936  15.2790794  17.3803310   7.4422603  15.3560810  17.0039768
   8.5918398  16.1827831  17.5387802  62.6178169  60.0677834   2.1217160
  62.7771873  59.4780083   1.3848320  63.3856773  59.9622269   2.6833916
  58.5144196   3.5408776  48.8915520  58.8126411   2.6347101  48.8130875
  57.9277229   3.5353079  49.6478500   0.8268762  34.6870079  53.7907524
   1.5774431  35.0045586  54.2927933   0.9565674  33.7400398  53.7391777
  21.6446037  34.9053383   1.5276765  21.6963596  35.6962433   0.9909960
  22.0336647  34.2207260   0.9834658  55.5089760  57.9126587  14.9318037
  55.2910347  58.0742836  14.0138664  56.4116020  58.2184830  15.0210991
  68.9298782  13.3107128  79.8708344  68.8008728  12.3625507  79.8948593
  69.2616882  13.4850445  78.9900665  26.0576687   0.6116700  77.3802567
  25.5591393   1.1478757  77.9968491  26.8950863   0.4591928  77.8181076
   5.4329200  70.8727646  21.2470245   4.9306140  70.2399979  21.7603741
   6.0116396  70.3362122  20.7053337  79.3455734  66.0046463  85.1162415
  79.9849777  66.7090302  85.0102386  78.5071106  66.4058990  84.8877563
  53.5887260   6.9823565  25.4255257  53.1455078   6.8107252  26.2563896
  54.4503365   6.5775852  25.5255985  12.2948341  62.7454147  51.4652367
  12.1352997  62.7563972  52.4089813  13.2435246  62.8414230  51.3815613
  80.0522537   0.2734945   1.5003935  80.1612091   1.1914583   1.2519934
  80.8681870  -0.1466780   1.2284924  54.0582657   9.3444347  41.6505318
  53.2364655   8.8552122  41.6113625  54.7296524   8.6747971  41.7811317
  56.7683525  49.6307182  10.6823177  56.6681786  49.3778381  11.6000595
  57.5575447  50.1721954  10.6678524  59.2528343  12.1422138  20.5746460
  58.4062119  12.3398476  20.9751453  59.5653267  12.9854364  20.2466850
  20.1180534  57.7527313  18.6509266  20.1732712  57.0904884  17.9620018
  20.3810539  58.5670395  18.2220154  40.7490578  52.9996986  87.8452759
  40.2141800  53.3951416  88.5335770  40.1192322  52.7349739  87.1748505
  53.7638016  30.2574120  78.9441833  53.8190231  31.2128830  78.9602432
  54.6721115  29.9663239  78.8637619  52.2728691  54.1321297  49.6249924
  52.4956093  53.7604523  50.4784966  51.5797920  54.7650452  49.8128700
  40.9961929  69.2733459   9.4231749  41.3887482  70.1329346   9.2707329
  40.9345474  68.8803864   8.5525341  18.3119850  66.4695587  80.3909454
  18.2227516  67.4048462  80.5739899  17.4334774  66.1912842  80.1320572
  83.0920563  50.4070015  56.7322960  83.9438400  50.7348328  56.4438171
  82.7194519  49.9914932  55.9546394  86.8737869  32.6091232  49.8605614
  86.6651001  32.6716881  48.9284859  86.4259186  33.3564529  50.2569695
  58.2381744  59.0617867  59.3002625  58.6426888  59.9278259  59.3509712
  58.8603783  58.5358658  58.7977676   4.7711263  71.0037155  17.0064030
   4.3547440  71.7893448  17.3608742   5.1218510  71.2798309  16.1596546
  27.2943745   5.1842585  -0.1095928  27.1608238   6.1211214   0.0342247
  28.1441002   4.9992762   0.2903787  39.0738449   7.7183785  75.7580414
  39.8050423   7.1879063  75.4415207  39.4559059   8.5811319  75.9190292
  53.0698318  49.6137085  15.8285160  52.1333313  49.4175072  15.8020325
  53.1819839  50.1400375  16.6201172  20.2369061  63.8990517  77.4201889
  20.5078278  64.7550507  77.7520142  19.4820957  63.6613693  77.9587097
  46.6933403  21.6761875  76.0519943  47.1647263  22.3433437  76.5509262
  47.3795471  21.1878643  75.5971451  86.8569336  48.5813942  72.1089554
  87.2524872  49.2616081  71.5639038  86.0941238  48.2884636  71.6104126
  62.8953705  45.1125755  51.7834778  63.6770935  44.5817795  51.6305199
  62.4703484  44.7016182  52.5362740  73.1533737  50.3320618   5.5039668
  74.0152283  50.4246292   5.0979223  73.2272110  49.5467720   6.0462790
   1.9789147   7.0262880  40.2905426   2.7541466   7.3862472  40.7214432
   1.2804227   7.1179547  40.9385681   5.5680380  55.6217346  78.2610168
   5.1082420  54.8554344  78.6039505   5.5628552  56.2479744  78.9849167
  80.8817139   6.3852444  15.7170496  81.7935486   6.4429464  15.4316254
  80.4615860   7.1551895  15.3337650   5.6274004  52.3852844  50.0473747
   6.1127505  52.4291916  50.8712311   5.8902345  51.5509567  49.6587219
  20.3771191  15.8152351  52.7578735  19.8661022  15.2684164  53.3546028
  21.1183414  16.1156864  53.2837563  69.7046814  44.5435982  71.0647964
  69.9663849  44.8475914  71.9338989  68.7496948  44.4934349  71.1061172
  27.4059830  69.4268417  18.9304237  27.6029930  69.5943604  19.8520279
  26.9076653  68.6096039  18.9367313  11.3358622   8.1568995  18.2435284
  10.6732655   8.8251610  18.4185295  12.1452141   8.6507540  18.1120415
  70.4504395   7.0834513  30.1349335  69.6812439   7.4126968  30.5998669
  70.5238342   7.6466341  29.3644333  24.0307808   3.9683063  72.8552475
  24.8424206   3.6605225  72.4518356  24.1422424   3.7845426  73.7880096
  58.4326782  31.3904114  38.4077835  58.8862038  32.1191101  38.8315163
  57.5052757  31.6208649  38.4630280   3.4165332  15.2948694  29.4243622
   3.8346694  14.8564243  30.1654148   2.8149271  15.9220619  29.8255234
  33.6414452  59.4347267  70.3176956  33.3364410  58.7065277  69.7764664
  34.5531693  59.2206192  70.5155716  84.9053268  13.1145115  21.8772945
  85.8519516  13.1403818  22.0167751  84.5702744  13.8647108  22.3683910
  82.7571335  70.4157486  76.7158661  82.3802643  71.1740952  76.2696457
  82.7598114  70.6594315  77.6415253  74.8257446  39.3417778  31.0027924
  74.0962296  38.7314491  31.1102257  74.5801849  39.8782463  30.2490463
  50.2181435  48.7454033  40.6044540  50.1559334  49.0764656  39.7084885
  50.9963493  49.1714745  40.9637413   1.8292052  28.5445595  84.6402130
   1.1553888  29.0508556  85.0939407   2.2850599  29.1863918  84.0957108
  64.5738983   6.7881432  44.0077095  64.7311630   6.4746108  44.8983269
  63.6216240   6.7707448  43.9123116  19.9722424   3.1027055  51.8687668
  20.1380482   3.0561492  52.8103485  20.6910591   3.6330922  51.5249290
   8.3821011  23.9951000  84.1337814   8.9759684  23.8705482  83.3934860
   8.2602243  23.1164837  84.4935226  55.3531837  62.7027245  61.8768539
  55.3670692  62.1196976  62.6358795  55.9244995  63.4301682  62.1231270
  25.2392597  61.5376892   3.3653307  24.6335754  61.6288300   4.1009059
  24.8280945  62.0290909   2.6542068  26.4916077  51.2991295  40.8556976
  25.6639805  51.7615585  40.7237015  27.1324902  51.8088951  40.3600807
  20.1160793  48.9209023  61.1122093  19.7619381  49.0240059  61.9954910
  20.8872986  48.3656120  61.2266846  82.8407059  48.8012161  80.1217117
  82.3467941  49.0050278  79.3275223  82.6586914  49.5329361  80.7113647
  53.7171974  63.3269043  43.3585320  53.6434174  62.6310120  44.0116196
  53.7960548  64.1304703  43.8726311  64.0138931  39.4319267  26.6374855
  63.3729668  39.0791321  26.0202522  64.5462036  38.6767921  26.8877907
  40.3551216  65.8684845  79.8692245  39.7712898  65.6515503  80.5960770
  39.8332253  66.4388351  79.3048248  24.0092602  41.2335587  84.0558624
  24.6310730  41.0632820  84.7633896  23.2103729  40.7800255  84.3247910
  86.5260162   1.5477762  21.2996655  87.4613876   1.5210717  21.5011292
  86.2768402   0.6293159  21.1968250  22.5427628   7.7449260  75.3599930
  21.5887051   7.7548771  75.4368439  22.7201347   8.1744747  74.5231781
  37.4645424  34.9042091  75.9883804  37.8115311  35.7952805  75.9456482
  36.5424385  34.9944649  75.7479324  78.7338486  23.2202835  20.3197708
  78.8796616  23.3110371  19.3781052  77.7894974  23.0888176  20.4043369
  21.9198055  66.9988174  22.0673294  22.8092842  67.2021332  21.7779808
  21.8703289  67.3518906  22.9556561  35.2840462  50.1069527  80.2328568
  34.9181442  50.1891556  81.1135330  35.3138847  51.0043488  79.9011688
   1.4488430   8.7136250  57.6495934   1.3878878   8.3981915  58.5512695
   2.1185625   9.3968573  57.6796227  47.6791458  24.8781357   8.3289862
  47.6494942  25.7795639   8.6495781  46.7616043  24.6422825   8.1921635
  86.0395966  61.8986549  62.1272087  86.6785812  62.5025826  61.7487869
  86.3855057  61.6979713  62.9968643   3.8474555  56.4629631  10.1161757
   4.6682582  56.3773880  10.6011410   3.2692683  55.8074493  10.5063524
   6.5522599  10.6402006  88.2470703   7.1240382  11.1767893  87.6980972
   5.6662807  10.8729258  87.9693832  11.2024612  67.9898605  33.9395905
  11.5651217  68.0360184  34.8242226  11.0628109  67.0553665  33.7864456
   3.2155981  51.4881516  59.0671654   3.3653467  50.7268257  58.5066414
   4.0411100  51.9718933  59.0396805  56.2786369  57.5163498  87.1516647
  55.9933281  56.6393280  86.8954239  57.1902924  57.5652237  86.8640366
  76.4298553  27.8170013  54.2938499  76.4730301  27.8266869  55.2500229
  76.8742752  27.0074329  54.0422096  44.2276955  48.0249252  70.4509811
  43.7308807  47.2755623  70.7794037  44.6968346  47.6857338  69.6886826
  64.7343750  67.6060944   2.1264217  64.6865005  67.2740250   1.2299469
  64.4227448  68.5090179   2.0643387  18.0118999   8.7113199  52.2497063
  18.4875050   9.5419483  52.2590332  17.3490334   8.8071814  52.9335556
  57.2210960  58.6359596  28.5068493  57.9430161  58.1049576  28.8431549
  56.6023140  58.6878052  29.2353058  14.4757996  11.9544849  62.0555725
  14.2238283  11.0555305  61.8443298  14.6824341  12.3505287  61.2089996
  22.9288750  64.4831314  73.4608765  22.1896400  64.4837112  74.0689621
  23.0550385  63.5607986  73.2381134   0.7560407  40.5668831  47.6063614
   0.4000552  41.1676140  46.9516678   0.8420207  39.7328835  47.1445312
  81.1199417  52.6870575  56.5245323  81.7821579  53.3731651  56.4411469
  81.2127914  52.1663399  55.7267456  23.4925518  70.3472672  19.6747398
  22.6706944  69.8909912  19.8552876  23.6796322  70.1496201  18.7570419
  40.9076538  26.0919018  12.3870573  40.3399239  25.7564392  11.6932411
  40.5022888  25.7844429  13.1978464  75.9834824  24.2260437  14.8439064
  76.4087448  25.0303726  14.5465240  76.6431046  23.5445251  14.7148132
  19.2448692  65.7292709  28.5911427  18.3198795  65.8510284  28.8051510
  19.7046623  65.8916016  29.4148369  77.0504608  18.1627274  52.0409508
  77.0656815  18.9631443  52.5656738  77.7861710  17.6464500  52.3702240
  30.4609032  65.0101166  64.1004562  30.7132759  65.8807526  63.7929916
  31.0657558  64.8251877  64.8189163   2.9893336  35.5170212  48.3610306
   2.2901945  35.0083580  47.9503021   2.6222835  35.7944717  49.2003937
  60.9567833  28.2954559  29.3819218  60.5584564  27.6790237  29.9963951
  60.3544350  28.3153095  28.6382713  78.2496796  45.6048203  83.4234467
  77.7008133  45.6314278  84.2072067  78.5119934  46.5147095  83.2837448
  51.2733421  41.5654869  68.2627792  51.2107277  40.7619629  68.7791672
  50.3874016  41.9276886  68.2749786  11.9517059  60.4536819  73.1772385
  12.3310051  60.1587753  72.3493500  11.1092587  60.8362198  72.9319229
  19.6519661   3.3038688   2.7177362  20.1205006   4.0478244   2.3392677
  18.9602318   3.1096060   2.0852840  74.4870911   8.2250919  31.0060005
  74.5826645   8.3783655  31.9460030  74.5176849   7.2727876  30.9142761
   5.4240603  12.4935093  53.8376732   5.0761003  11.6218948  53.6494064
   6.0101848  12.6809177  53.1044846  58.1344566  44.1357765  58.3287773
  58.1642647  43.2493286  57.9688416  57.7422981  44.0293159  59.1954460
   1.4876561  64.6662064  30.3476810   1.1112067  63.8553314  30.0056248
   2.3576469  64.4143906  30.6574154  49.9035492  36.4607697  60.6945381
  50.4916840  35.8149109  60.3031311  50.0721474  37.2658958  60.2050667
  16.9178944  12.3192587  83.4267349  17.1587086  13.2418699  83.5105667
  17.7540112  11.8533659  83.4175262  18.6506004  23.2372093   3.4194071
  19.6049538  23.3010960   3.3825381  18.3919334  22.9989109   2.5291617
  80.6353073  56.3226662  83.3567505  80.6103363  55.3679657  83.2922516
  81.5648880  56.5426140  83.2956314  50.4720383  10.3723669  29.8990231
  49.7374458  10.9829531  29.8374920  51.2095222  10.8452969  29.5134239
  39.5535049  27.5864906   0.9773116  39.6107788  26.8170414   1.5437890
  38.9874954  27.3113461   0.2560910  54.2316971  16.6701508  42.8563957
  54.7893448  17.4241676  43.0480156  53.4417648  16.8181801  43.3763275
  24.2073269  14.1732578  52.8330917  23.9420586  14.4371605  51.9520607
  23.5003281  13.6031876  53.1354218  77.1883850  30.3625126  53.8300476
  77.2041626  30.8403263  54.6593094  77.0587997  29.4484100  54.0827484
  10.4188023  42.7581100  30.3821068   9.5713377  42.7191467  30.8254108
  10.2343502  42.4727516  29.4872437  75.8435898  34.3705330  77.8133926
  75.6331024  34.7720757  78.6564102  76.7706909  34.5672913  77.6792068
  48.0790787  60.6482010  39.8793373  48.9460716  60.5182152  39.4950714
  48.1598969  61.4571152  40.3846664  76.0448227  69.2028427   4.2661328
  75.3481674  69.8506165   4.3724332  76.5894012  69.3065414   5.0464621
  32.0336075  67.4778671   6.6404719  31.1764679  67.1055298   6.4333348
  32.3919945  67.7402725   5.7925730  47.8873253  17.5104866  21.1505051
  48.5227509  17.8608913  21.7747498  48.3430405  16.7824154  20.7280502
  28.3594208  38.8673096  66.8356247  27.9713230  38.5536041  66.0187988
  29.1767654  39.2867699  66.5668564  14.2056189  55.2384796  10.9793110
  13.4790001  55.8219833  10.7607250  13.8612356  54.6768608  11.6737309
  72.1795959  60.4558640   5.1968946  71.5907593  59.7762566   5.5249720
  72.0408020  61.1976891   5.7856760  40.3468475  59.5386429  82.5616989
  40.1050606  60.4416084  82.3557281  40.3398399  59.0900002  81.7161789
   9.4583254  61.2192497  17.3348141  10.3120613  61.6515923  17.3560028
   9.5962877  60.4431534  16.7917919  67.3694229  69.0259933   6.6695814
  68.1001892  69.5727539   6.3810253  66.9256744  68.7726135   5.8601890
  63.0549850  11.7659025  64.7513504  62.9777641  11.7163382  65.7041397
  62.5416336  12.5366631  64.5092163  13.8448105   4.0211873  38.6735687
  14.7217884   4.2463412  38.3630104  13.2773037   4.1702566  37.9172974
  14.8876543  63.6219406  51.4116936  14.8442564  63.6447334  52.3676376
  15.7050295  63.1622009  51.2199364  68.0484924  27.4913673  30.9064274
  68.4455338  27.3349228  30.0496216  68.6233368  27.0381088  31.5231457
   8.9495363  60.3954964  86.2453461   8.7362394  59.4879074  86.0285034
   9.8876743  60.3823166  86.4349670  76.1427841  22.5362835  19.5646229
  76.4338760  22.9074345  18.7317123  75.4400101  23.1183605  19.8536415
   8.5397444  71.2713165  85.0959778   9.1888332  70.8302460  84.5479126
   8.7850266  72.1958771  85.0607224  60.6031418  31.5809059   0.7339676
  60.2996521  30.8643017   0.1766484  61.0974197  31.1494522   1.4309385
  58.2345467  71.1407318  60.8037262  57.9842300  70.6855927  59.9997215
  58.2810707  70.4504013  61.4651756  79.9628906  26.1382790  57.4538689
  80.5603790  25.4431934  57.7297249  79.8011017  25.9612675  56.5271950
  11.5155458  70.3316803  20.2274170  11.0457678  71.1221390  20.4933376
  12.2605257  70.2828674  20.8264618  20.2823296  70.2968445  50.6593590
  21.0987625  70.7894745  50.5758057  20.4026775  69.5357056  50.0915451
  29.0687294   8.0334034  69.9090118  29.4980183   7.1984730  69.7223740
  28.8225574   8.3736877  69.0488739  51.3337860  41.2488708  20.1937389
  50.6672287  41.9327621  20.1287422  51.5798492  41.0672607  19.2867088
  15.8216009  36.7348289  63.7739067  15.8884554  35.7807884  63.8134613
  16.3963490  37.0444336  64.4739380  84.2207947   5.0154047  47.8744583
  84.4375381   4.2580996  47.3306351  84.3756714   4.7185245  48.7711792
  84.4844208  10.7010164  46.7152710  83.6378555  10.8172083  46.2839279
  84.2722244  10.2866144  47.5516167  84.1527939  21.8153458   9.7290688
  84.1792908  22.4837418  10.4137421  84.6036224  22.2159004   8.9857397
  51.0945587   8.2810917  61.0795326  50.7857704   7.4473500  61.4341545
  51.6980400   8.6148949  61.7433243  83.2970276   1.4543549   8.8422861
  83.9761505   1.1793200   8.2263460  82.8833008   0.6380502   9.1228371
  52.5383148  56.1222305  30.4836922  51.9898720  55.5506516  31.0210342
  52.9933891  55.5268326  29.8881741  86.3056412  26.5575962  33.1805305
  85.5596924  26.0335636  33.4723854  87.0244598  26.2910805  33.7536812
  43.4587021  17.3805637   4.5441794  44.0289993  16.6138000   4.5995460
  44.0598793  18.1250896   4.5218358  78.0334320  69.9427490  30.9368362
  78.9671402  69.7957687  30.7857857  77.9961929  70.7666092  31.4227428
  11.3304195   9.6736946  68.7241058  10.6773119   9.6006556  68.0281525
  11.2112732  10.5571985  69.0726089  26.1085529  40.6432419  66.3491898
  26.9050064  40.2333260  66.6866302  25.4590549  39.9401169  66.3486328
  30.6867714  28.2296391  86.6469803  30.6893864  28.0253105  85.7118530
  30.2347622  29.0712566  86.7069855  21.4108429  67.1503067  56.0117378
  20.7631836  66.9226303  55.3447037  21.9462681  67.8305893  55.6033707
  48.8894882  29.2006588  24.0825233  48.6008987  28.8534584  23.2384853
  48.4630013  28.6399994  24.7306004  60.9634705  68.8819809  21.9508247
  60.1923676  68.3320312  22.0893707  61.2078896  69.1771240  22.8279667
  34.7953300   5.0285745  70.4035492  34.3405838   4.8617396  71.2291412
  35.0694504   5.9438314  70.4617996  59.2712593  69.8904114  33.6262398
  58.6415939  69.6136246  34.2919312  58.7896957  69.8299637  32.8012085
  64.7078400  42.9689293  72.5560455  63.7890472  42.7238770  72.4465179
  65.1542892  42.1444511  72.7488022  20.0404224  31.9099884  23.3585529
  19.8926182  32.3906975  22.5441189  20.4749432  32.5402412  23.9331894
  78.3434830  28.2135277  41.5480347  79.2893372  28.3584824  41.5237427
  78.1945419  27.4998379  40.9277954   0.6838828  66.7785492  84.7857742
   1.0289614  66.4809341  83.9440002   0.2395803  66.0115891  85.1471558
  44.4161835  69.0765762  87.0161743  44.3095970  69.9942932  86.7658386
  43.9638710  69.0034790  87.8565979  33.7867088  50.0245705  82.6544418
  34.4170952  49.5812073  83.2221298  32.9373817  49.8569984  83.0628510
  23.0896435  37.4169998   3.1899612  23.8122501  37.2299690   2.5907207
  22.7558880  36.5551529   3.4390740   8.9985285  11.7579298  74.1336670
   9.5871258  11.0049362  74.1864548   9.5797863  12.5079088  74.0075607
  67.0178909  65.1123810  62.4808121  66.1406403  65.4764633  62.5996094
  66.8914337  64.1644745  62.5222549  17.0193005  39.4074020  77.2819061
  17.4552879  40.2428627  77.1141281  17.3834343  39.1104355  78.1158447
  65.8702850  22.9147491  82.2087021  65.1243744  22.6701050  82.7564240
  65.9033813  22.2377510  81.5328217  63.7786827  30.3992500  82.9993057
  64.1325531  31.1663609  82.5492477  62.9297142  30.6883030  83.3338699
  76.8768463  21.8084641  22.5138493  77.4504547  22.1276016  21.8171768
  76.3625870  21.1143608  22.1015472  51.3912315  24.6389580  62.1410065
  50.4587936  24.7864189  62.2992668  51.4281693  24.2606602  61.2625084
  51.4897919  12.8133354  25.4655361  50.5659904  12.5629520  25.4771309
  51.6530113  13.0849409  24.5623093  56.4067688  49.0314445  72.9400940
  55.4900665  48.9922295  73.2127762  56.8850365  48.5936241  73.6442261
  58.3692970  69.7263870  58.4503975  59.3253174  69.7606201  58.4833603
  58.1739807  68.8894119  58.0290260  59.2951279  60.0635910  70.7249374
  58.4749336  59.6683464  70.4294815  59.0251083  60.7381859  71.3480301
  73.3649368   4.6544614   1.6731408  74.0190277   3.9852474   1.8744997
  73.6097946   5.4009209   2.2200167  35.1521988  48.7590866  77.5761414
  35.3895340  49.0517120  78.4560699  35.1779213  49.5544319  77.0441666
  40.3006516  55.7178802  80.0762177  39.9189072  56.5941772  80.1273041
  40.8525162  55.6512375  80.8554764  16.8104515  14.6891308  19.3630791
  16.8055286  14.8981342  18.4289894  16.6276760  15.5230093  19.7960606
  54.8566628  24.9114799  75.3069382  54.5560341  25.2645149  74.4695511
  55.8117409  24.9346886  75.2476273  20.9161224  34.2214317  21.5128174
  21.8260002  33.9899406  21.3263607  20.9749813  34.9081345  22.1770477
  64.1153183  33.1216393  54.8535385  64.9018173  33.0100098  55.3875732
  64.1844711  32.4442368  54.1808014   5.5787683  28.4405270  64.9317245
   6.0140595  29.2503529  65.1980667   4.6739054  28.7005959  64.7590485
   5.8728280  50.3234558  73.3311996   5.4655514  50.5135345  72.4860764
   5.7620168  49.3793526  73.4435349  22.5464649  46.4625320  77.7134933
  22.7774639  47.3491478  77.4364014  21.5906696  46.4690475  77.7649155
  27.0978909   4.0688968  65.2833710  26.1440430   4.0254264  65.3505783
  27.3405609   4.8310432  65.8091812  35.6545639  17.5562229   3.1569133
  34.8582573  17.0524406   3.3252406  35.6847191  17.6453609   2.2043500
  12.7495089  35.2670212  77.0334396  12.8222284  35.6462669  76.1575851
  13.3372612  34.5116997  77.0169373  82.2453003  38.4777794  36.7892609
  81.9183044  38.5455704  35.8922043  81.6369171  39.0055847  37.3064880
  46.5355339  55.6638145   6.4246478  47.1966820  56.2993431   6.1503873
  46.4081383  55.1048203   5.6581426   3.1838684  46.6894264   3.2025461
   3.1719639  45.7677574   2.9444404   3.3790419  47.1622276   2.3934724
   4.2432394  63.3007317   7.5293436   3.7167487  64.0898285   7.6572652
   3.7527924  62.7869911   6.8876543  46.5159035  70.1304092  48.7626495
  46.2796516  70.8959122  48.2387962  46.1023750  70.2845459  49.6120377
  59.4250565  51.3987312  59.6359367  59.1307755  51.3848228  60.5466690
  60.3186035  51.7393494  59.6781349  58.9995689   6.6241236  36.2171669
  59.4275055   6.0812035  36.8792381  59.5694847   7.3880973  36.1289978
  82.7980804  -0.0330580  79.4660187  83.0816116   0.8695368  79.3205338
  83.6065216  -0.5113344  79.6501465   6.4031868  68.3888397  78.9160080
   5.8532281  67.7477188  79.3662872   5.7929344  68.8899155  78.3749542
  60.4327507  63.4145470  56.2227592  60.0882988  63.9072723  55.4779053
  61.3323174  63.2020950  55.9740143  20.0371132  17.8698826  55.5874100
  19.6957188  17.9923115  54.7015800  20.8462048  17.3730946  55.4657402
  12.5934982   1.6226087  28.4211140  13.2499828   2.1470244  28.8796425
  12.1323557   1.1542697  29.1169872   8.8356142  57.6025696  66.7263412
   8.4385900  57.0998993  67.4376221   8.0967808  57.8657875  66.1776352
  39.3268166  51.2420692   6.0804877  40.2157478  51.1120605   6.4108334
  39.4377213  51.3699608   5.1383753  42.3702660  57.8677864  74.4834824
  42.6684456  58.7608948  74.6557617  42.9446907  57.5540352  73.7850342
  40.9131241  44.8077354  37.2091293  41.4365273  45.4408073  36.7176971
  41.1064034  44.9983330  38.1270332  75.8592758  52.5135727  79.2101517
  75.7201233  53.0745354  79.9731598  76.3986053  51.7936363  79.5373306
  58.1553726   6.3148608  48.1855087  58.0035591   5.3743548  48.0925903
  59.1067963   6.4095354  48.1401062  28.8243885  55.3497162  40.4340820
  28.3093472  55.5424232  41.2175522  29.7136459  55.2112694  40.7600975
  55.7300529  30.2894287  12.4599638  56.1017952  30.0031719  11.6256409
  54.8808365  30.6649742  12.2275190  50.8604012  62.7758446  20.7852840
  50.8104172  63.5048637  21.4035606  51.3797836  63.1151733  20.0563602
  54.3841324  11.3682032  58.2430840  53.7308807  12.0215025  57.9927025
  55.1629524  11.8798838  58.4618492  11.2755804  25.9297104   4.0869832
  11.3044348  25.5323734   4.9573412  10.8876934  26.7929440   4.2305169
  47.0853462  23.1409912  84.1565628  47.2134628  23.5416622  83.2967529
  47.1140442  22.1990891  83.9885559  85.0477142  44.4828377  29.5970383
  85.6813660  45.1891136  29.7231216  85.2716980  44.1094627  28.7445984
  11.3864956   3.7015502   1.3703088  12.1511097   3.2084079   1.6676440
  11.6530218   4.6186252   1.4348792  54.4054909  10.3185873  34.4367714
  53.4699707  10.4879103  34.5479584  54.7240257  10.1431112  35.3221931
   6.5135026  32.9483719  64.0644608   5.8645611  33.6519623  64.0562057
   7.2475123  33.3053970  64.5644608   8.9716959  45.4279556  24.5208244
   8.2885027  46.0834618  24.3801498   9.6014652  45.8586311  25.0988750
  66.6855927  38.3292847  47.5349083  66.2630768  37.9709625  48.3154945
  66.3427505  39.2202110  47.4645958  76.6064377  44.0302887  12.9470005
  76.5676956  44.2900352  13.8674688  75.7369614  44.2356567  12.6033840
  79.0686264  17.6786022  78.3432541  79.3605881  16.9035969  77.8632965
  78.1471710  17.5070229  78.5374451  14.9383078  42.7905884  49.5082893
  14.0925703  42.9602776  49.9232140  14.9658394  41.8398514  49.4006920
  33.0293999  60.8731575  61.4886208  32.9159966  59.9323845  61.3532753
  32.2820282  61.1291847  62.0291023  42.9457512  13.9981050  61.3224068
  42.6776695  13.2273111  60.8221664  43.5422401  14.4668837  60.7387314
  12.7671604  18.9029007  68.2441483  13.2144661  18.0840626  68.0304871
  12.4838648  18.7913342  69.1516342  73.2388000  19.9887753  35.8274956
  73.8502731  20.5486202  35.3490562  72.7875137  19.4900990  35.1463966
  15.1035299  13.1308823   8.0498524  14.5408516  12.5259504   8.5332603
  15.8567762  12.6008987   7.7891431  19.8593197  53.3796349  26.5719891
  19.3121929  53.8027039  27.2337265  19.8505592  53.9854698  25.8309650
  57.2235451   3.5492511  69.2262497  58.1168633   3.8810358  69.3164520
  57.2143097   3.1150155  68.3732681  77.0474014  20.0963898  72.8708038
  77.2584229  21.0148888  73.0383224  76.2408829  20.1259499  72.3561249
  24.8218479   9.4269562  65.8651581  24.5236244   8.5335655  66.0358887
  25.4847412   9.5904980  66.5360260  86.0166931  40.7665863  68.2827530
  85.2805176  40.1670876  68.1607895  85.6718063  41.6235504  68.0319748
   0.6096116  37.8565254  50.5094337   0.0382188  38.6178627  50.6099586
   0.3540502  37.2696266  51.2210999   4.4642963   8.2332144  78.5503082
   5.3848920   8.0753565  78.3409882   4.0513554   8.4006901  77.7031631
  75.3817596   5.0581474  30.3305244  74.9991684   4.5001307  31.0076332
  74.6430969   5.2948756  29.7696590  11.0752640  20.1025085  58.7525787
  11.9733229  19.8925953  59.0088158  10.8793955  20.9185905  59.2128792
  62.1056099  24.0256653  29.3243618  62.7286682  24.7475319  29.4076595
  61.9232826  23.7613869  30.2261066  11.9338350  22.7176743   4.5469179
  11.6739912  23.5477219   4.1472507  11.8243647  22.0713520   3.8494105
  51.7955627   7.5212340  42.3229446  51.0430107   8.1111479  42.3665428
  52.1834068   7.5627661  43.1970634  61.5809631  55.5843468  42.6623573
  62.4914551  55.5601616  42.3679848  61.5783844  56.2163239  43.3812637
  53.5088234  22.1569862  79.0157852  53.9099426  21.5851593  78.3613052
  53.3864479  22.9910450  78.5623550  39.5618210   3.9680853   0.9757102
  39.1360588   4.7391782   0.6010452  40.4847183   4.0666265   0.7416596
  62.6038513  34.3705444   4.6520905  63.4350815  34.0260773   4.9786410
  62.8457298  34.8982735   3.8910198   2.6724970  55.4748726  21.7307606
   2.4270501  54.7825851  22.3445377   3.5898490  55.2968979  21.5233421
   3.9366300  66.8220291  43.1406479   3.7506304  65.9332657  42.8377571
   3.1394072  67.0913467  43.5968666  55.2061462  28.6836376  73.8746719
  55.2345276  29.3462410  73.1844711  55.0786133  27.8574448  73.4084396
  76.2357788  36.0944824  84.7407684  76.6980820  36.9326057  84.7482071
  76.7419815  35.5470543  84.1405029  32.4756889  60.0555573  28.9171696
  32.3873863  59.1394272  29.1801090  31.5895081  60.3204956  28.6707439
  39.8259010  53.8347282  55.2224922  40.4110069  53.3924255  54.6074715
  40.0674553  53.4818382  56.0788536   7.7167482  42.0504761  31.3840580
   7.3176575  42.9100723  31.5184250   7.1158161  41.4383698  31.8088379
   1.8994271  23.5158215  21.1962223   2.5006022  24.2586937  21.1418095
   2.4357703  22.7564716  20.9682846  47.1675072  70.3980865  73.8819656
  47.6747856  70.7750244  73.1630707  47.8249931  70.1265793  74.5224609
   1.8497927  33.4516754  12.3659668   2.0199468  33.5435638  13.3034296
   2.7192028  33.4153671  11.9671688  32.8104668  55.7897377  35.0837975
  32.3719177  56.5765266  35.4076309  33.7395668  55.9470177  35.2519226
  22.6913643  59.7635155  12.4784613  22.1683331  60.4892540  12.8190107
  22.8729382  60.0047073  11.5701180  61.0121384  23.8749886  70.9746017
  60.2115936  23.5134430  71.3549271  60.8394470  23.9014702  70.0334778
  61.6838875  56.3537254  39.4655075  61.5551910  55.5768013  40.0096169
  62.2268944  56.0495605  38.7382812  50.7556534  53.9353905  12.0251865
  50.5490646  54.7806320  12.4240866  50.1136017  53.3312569  12.3980532
  72.1372070  70.0178528  53.5835915  73.0695419  70.0613327  53.3712502
  71.7036285  69.9087982  52.7372169  40.0064621  43.6894875  84.6809998
  40.1518021  44.6069679  84.4500580  39.3043365  43.7144775  85.3311005
  78.5261078  46.8360481  42.3878784  77.6321411  47.0668068  42.6404877
  78.9211426  46.4946632  43.1901474  67.1621628  42.0216751  84.1235352
  67.0756073  41.5467339  84.9500732  66.8470078  42.9038773  84.3200760
  62.3798828  61.1136475  10.4122362  63.1723595  60.6049881  10.2405453
  61.7763062  60.8596535   9.7140846  81.2104111  31.3784504  22.4591923
  81.5279541  31.6382179  23.3240166  81.3224640  32.1600952  21.9181690
  59.6868896   6.2934570  74.0349350  60.4605980   6.6302176  74.4868164
  59.3751450   5.5806475  74.5925674  76.8188934  65.4710999  79.8774109
  75.9037552  65.5478287  80.1473465  76.8104782  65.6737823  78.9419556
  81.5952835   6.4467177   1.1035058  82.1821213   6.8473144   1.7448905
  82.0805206   5.6899486   0.7747532  59.7706566   8.2885132  26.3617954
  59.2389984   8.8185616  25.7679787  59.6349983   8.6843691  27.2226830
  84.5246201  39.4820213   0.5735446  84.9214783  39.3717041  -0.2904944
  84.7098236  40.3914413   0.8078331  29.6334267   0.7123918  71.0419006
  28.9328346   0.2518129  71.5037155  30.3617077   0.0913302  71.0308990
  77.4811325  52.3976288  72.3785095  76.7111206  52.5293884  72.9316330
  77.9804459  51.7121544  72.8224106   7.5713220  66.8370590  18.9580975
   7.8396797  66.6135559  19.8493118   8.2858276  66.5193481  18.4060307
  79.0645676  68.3609467  42.9292030  79.2670135  67.4612808  42.6726036
  78.2274857  68.5485382  42.5045471  48.3173523  19.3716793  32.1850281
  48.4829025  18.6855316  32.8315773  49.1808586  19.7422123  32.0025597
  68.1631317  34.3235893  68.2982025  68.6972809  34.3817139  67.5060272
  67.6624298  33.5149078  68.1906662   9.3825197   9.5871019  71.1933289
   9.8480034   9.6581516  70.3599548   8.8056498  10.3507309  71.2113190
  78.3494568   3.4696441  34.3145409  79.0796814   4.0608258  34.4975929
  78.0004807   3.7724667  33.4762459  66.7685089  47.9836159   1.4469898
  65.9475021  47.6737061   1.8292717  67.0775299  48.6550102   2.0552375
  75.3256531   3.0733333  43.8762932  74.5922012   3.6043265  44.1866608
  75.4026260   2.3706539  44.5216980  72.3743820   9.0851660  75.9867325
  72.2845688   8.4585686  76.7047501  73.1564331   9.5912704  76.2069244
  50.5642433  19.3000584  28.1061859  50.9428444  18.5418911  28.5512447
  51.3201256  19.7886982  27.7804565  20.6391811  16.4729691  50.0863419
  20.3584728  16.3928413  50.9979439  21.1294155  15.6688614  49.9151306
  20.1392288   8.4396639  68.6738663  19.7162380   8.8066292  67.8975677
  20.9795952   8.8949070  68.7264938  39.3815880   6.3163590  85.8403931
  40.2391014   6.5195627  86.2140427  39.2837830   6.9337778  85.1155090
  43.7006416  13.0009289  11.9740772  43.2622795  13.5213776  12.6472816
  44.4580650  13.5278625  11.7193613  29.1707306  35.4591675   7.3613186
  28.8133202  34.7773743   6.7924204  29.8825474  35.8470268   6.8522840
   7.1063652  58.1776695  79.9991531   7.3717341  57.7326889  79.1942902
   6.2513866  57.8022614  80.2096558  37.5278015  64.4755020  87.2578049
  38.0328522  64.6598053  86.4658508  38.0953751  64.7579193  87.9749756
  42.9831047  67.3328018  12.9831228  43.3751526  66.7409058  13.6251469
  43.3580589  68.1895905  13.1869640  31.1577244  10.0754223   3.4455314
  31.9031544  10.6189098   3.7008474  31.0049286  10.2949181   2.5264518
  65.7636719   0.9284633   6.8107557  66.0811234   1.8232328   6.9325776
  66.4954834   0.4686023   6.3994098  85.3308716  26.6760159  85.0702209
  85.6646957  26.9274426  84.2090683  86.1084595  26.6394844  85.6272202
  47.0366173  55.4809494  58.4012604  46.7956543  54.9159622  59.1354027
  46.9292068  56.3704109  58.7382431  85.7877045  17.2348251  79.3178406
  86.7372437  17.1893578  79.4298019  85.5228043  16.3305321  79.1495743
  83.1377182  67.3243484  18.0059319  82.1832047  67.3918991  18.0298748
  83.4287491  67.7587433  18.8077011  11.1563101  67.7651596  53.9963837
  10.8273659  68.6084595  53.6851387  10.7879152  67.1249161  53.3876114
  44.2039375  65.2256088  85.1800003  44.8557281  65.9188156  85.2842255
  44.6708069  64.4216461  85.4078369  83.6689529  60.5323982   3.9148393
  83.0557175  61.2594566   4.0223470  83.2266846  59.9329109   3.3138037
  46.1377029  39.9067383   2.3003945  45.5925446  40.1087341   1.5399779
  45.5669937  40.0635185   3.0526867  41.5452919  43.6046486  70.4990845
  41.6049309  44.5437202  70.6746368  40.6362114  43.4681168  70.2323227
   2.0361078  57.3278160   8.3083591   2.7169542  57.1153259   8.9467392
   1.7719328  56.4808502   7.9490628  48.3279915   6.7470417  21.9354439
  49.0347328   6.3859024  22.4705372  48.6097946   6.5964403  21.0331478
   3.7247045  59.3709755  48.9509087   4.0866647  58.7394829  49.5725479
   4.3117495  60.1249962  49.0062637   8.7173014   3.8196998   2.8831739
   8.9288435   4.6537266   3.3025563   9.3556395   3.7392828   2.1744502
  21.4442406  50.5753403  56.7041206  21.2601280  51.0422096  57.5192108
  20.8154221  50.9318161  56.0766296  75.4966583  68.7610397  82.1967850
  75.6185684  69.6716995  82.4652405  75.5441589  68.7846680  81.2410583
  37.0493431  55.9104385   1.3379519  36.4913216  56.3413887   1.9853480
  36.7225990  56.2228432   0.4942270  72.1072617  50.5173836  24.1341496
  71.3840103  50.9439354  24.5937042  72.6020126  50.0754051  24.8241596
  72.4104004  66.3776398  33.0657539  72.6049042  67.3027878  33.2157516
  73.1445541  66.0607910  32.5395889  12.9336882  70.1200790  75.0856247
  12.7055731  69.2108231  75.2791672  12.1024199  70.5918121  75.1374817
  24.3722572  56.2584724  71.5573196  24.6279526  55.3491249  71.4025955
  23.7154503  56.2077370  72.2517700  11.8917656  11.7590179  54.2671585
  11.8549147  12.7120171  54.3488007  11.0180492  11.4628048  54.5223236
   5.6458144   8.6072121  72.0481949   6.2773895   8.0308161  72.4784393
   5.0171981   8.8289404  72.7351532  65.3858185  22.7623367  87.6970825
  65.4640961  23.7152977  87.6527252  64.8373718  22.6025581  88.4651337
  69.2466736  17.5972614  20.4159279  69.4476700  18.4363918  20.0015697
  69.5197906  16.9417171  19.7741337   8.0235348  18.4357567  79.4534607
   7.0933661  18.5903187  79.6181717   8.1501913  18.6890564  78.5391159
  53.6442833  44.7128448  60.7856865  53.4304428  45.0166473  59.9035225
  53.4322739  45.4545555  61.3523903  31.9811459   0.6332951  86.8604202
  31.4986610  -0.0877186  86.4559708  32.9012070   0.4303195  86.6915283
  10.3439550  62.8337326  25.2305222  10.6692019  63.6588020  25.5906696
  11.1144142  62.2667122  25.1971455  34.4882851  67.4990005  10.3171272
  34.6846848  66.6850967   9.8532162  33.7359619  67.8644638   9.8516331
  17.2081070  11.7965956  63.1045265  16.4229679  12.0067263  62.5989265
  17.7140484  11.2195282  62.5324707  78.4805069  69.2186890  87.3790817
  78.1492462  69.8400497  88.0274734  78.3655777  68.3611679  87.7885513
  66.5600357  55.5731964  64.2844772  67.1737747  55.9001350  63.6267090
  66.7853775  56.0527573  65.0816422  36.3029747  24.6967983  65.5063324
  35.5037575  24.5940495  64.9896851  36.9847183  24.8782330  64.8593903
   6.3435001  55.8341331  11.4254179   6.4367728  55.8617630  12.3776617
   7.1767778  56.1682129  11.0933466   3.0395401  44.6500282  41.1624107
   3.1040058  44.2968941  40.2750702   3.9308245  44.5955811  41.5071983
  82.3343124   2.2249966  14.1464043  82.8324432   1.4240941  13.9831324
  82.6673203   2.8497045  13.5021381  53.8381996  59.0182953  55.9031830
  53.8226051  58.5706749  56.7491264  53.7034798  58.3214340  55.2609482
  76.8611526  65.3693848  17.3906956  76.4625092  65.5194778  16.5334988
  76.2917862  65.8337250  18.0042439  10.3698435  52.2692032  33.0378075
  10.8215275  52.3167381  32.1952209  10.3541946  51.3356895  33.2488480
  48.9238167  21.2185688  24.5428276  49.8430367  21.3884163  24.3368626
  48.7804832  21.6597939  25.3800907  65.8147278  35.4388542  12.5767899
  66.4698868  35.8024216  11.9811172  66.0990448  34.5367470  12.7237711
  62.0565147  50.4434738  40.4015770  61.3431778  50.1552658  40.9710655
  61.6995354  51.1985626  39.9339905  45.9462166  63.9100723  30.1291733
  45.1461639  63.5457382  29.7504787  45.6754150  64.7509689  30.4976749
  70.4753494  57.4740829  28.7539196  70.2675705  56.9396667  29.5203819
  70.4329758  58.3758621  29.0720844   9.0951862  71.4900818  35.4144287
   8.7700996  70.6013641  35.5584145   8.3787222  71.9371185  34.9637985
  58.1123009  63.1246376  75.9735794  58.8506279  63.7076569  75.7969589
  58.2956123  62.7617874  76.8401642  39.0659447   4.5082521  25.7537899
  39.2529373   4.1253414  26.6109047  38.7015228   5.3710556  25.9512691
  50.9214668  39.4048309  60.1315155  51.5691147  38.9322433  60.6544304
  50.1127434  39.3442574  60.6399689   6.9949989  13.8407402   1.3880681
   7.4284177  13.1688881   0.8617659   7.6974401  14.4428930   1.6334664
   2.0334284  50.3595467  61.2713051   2.2768521  50.7732162  60.4431419
   1.7651126  51.0869827  61.8326225  56.6400414  31.2168884   5.8791652
  55.9472923  31.8770943   5.8577156  56.1780548  30.3823013   5.8000188
  19.1244221  44.0189438  80.9767075  18.7579765  44.8943214  80.8515396
  18.6689205  43.6763229  81.7457047  40.1044083  15.3547812   9.4830256
  39.2609177  15.2571325   9.9248676  39.9605942  16.0526276   8.8438377
  50.5447159  44.2903252  83.8477020  50.8507385  44.3794403  82.9451218
  51.1217766  43.6304932  84.2322159  34.2125206  35.9545631  86.1900024
  33.3537292  35.9763298  86.6121750  34.0459557  35.5737572  85.3277588
  79.7236252  48.8277550  55.5692940  79.9330521  48.7113762  56.4960251
  79.1133499  49.5649872  55.5524025  56.2543068  61.6355705  40.8168068
  55.5635071  60.9730186  40.8240776  57.0517311  61.1525497  41.0336876
  42.0027771  45.4250641  73.5467224  41.2343445  45.9957047  73.5361328
  42.5432930  45.7644043  74.2601089  23.9683495   3.1457298  38.8424835
  24.0331974   4.0954461  38.9428101  23.3113937   2.8811643  39.4864120
  34.1765442  28.7739391   3.0109344  33.6076431  29.0345860   3.7352595
  34.6188736  27.9855232   3.3255427  67.7445984  46.2594719  82.6980133
  68.3283920  45.9324684  83.3824768  67.7926712  47.2121773  82.7772293
  57.7646255  26.2820129  18.5993252  57.3566399  25.9813576  17.7872982
  58.6946678  26.3582363  18.3861580   7.1197987  67.6525497  28.5130939
   7.7198596  66.9103928  28.4398708   6.9778275  67.9357910  27.6098480
  64.3625565  48.6073494  39.5075150  64.1543655  49.4637909  39.8808708
  63.5940704  48.0695877  39.6984940  63.1556740  40.8464432  75.5268555
  62.7668533  40.6264114  76.3733978  64.0582047  40.5337601  75.5893021
  17.2556629  59.0057106  34.4794273  16.5406628  59.5567360  34.1610336
  17.8328934  59.6090622  34.9474106  56.0253220  45.2894592  37.9916229
  56.6858635  45.5108910  38.6480408  55.6412659  44.4706230  38.3050537
  79.9675903  39.6418419  38.3162270  79.1225891  39.3216133  38.6319160
  80.1813583  40.3694649  38.9002609  32.7408752  44.6469612  46.2464790
  32.4658394  43.8291435  46.6609268  33.6762390  44.5288773  46.0810165
  11.8707724   1.0655787  47.7043800  12.2783957   1.6249379  48.3655853
  11.1613092   0.6225542  48.1698074  47.6199570  33.0255470  83.7503967
  47.3161888  33.1560402  84.6486893  48.5578308  33.2137642  83.7849808
  10.6186810  51.2779121  61.4630966  11.1849508  51.3431854  60.6941299
   9.8383026  51.7804489  61.2292213  60.6375084  58.3744965  57.8407516
  61.0304108  57.8068161  58.5037727  60.9470787  59.2524986  58.0632744
  35.8749352  18.4022770  72.6863861  36.5305061  19.0572529  72.9261017
  36.1547508  17.6065598  73.1389008  36.6097755  30.6873531   9.5521851
  35.7923813  30.3921413   9.1509981  36.5369301  30.4203777  10.4685087
   6.6838794  30.7220020  58.4417572   5.7465944  30.7199554  58.6359863
   7.0404963  31.4211655  58.9896889  27.8398495  63.5991020  61.5984573
  27.7544174  64.5312424  61.3983192  28.6468430  63.3325577  61.1580620
  57.9419670  36.9747009  29.9112072  57.0433273  37.0696526  30.2268963
  58.1858025  36.0799370  30.1482124  65.5305176   4.5713744  89.1997147
  65.0514679   4.1901469  88.4639130  64.8481293   4.8916693  89.7896271
  20.6411648  51.0496979  37.2167320  20.8086815  50.1715698  36.8745842
  20.0108528  50.9148140  37.9243660   2.5278375  40.0914917  52.6950645
   1.9423844  39.7177887  53.3537178   2.1144071  40.9189949  52.4490089
  21.9995670   0.9348951  74.8251038  21.6039333   1.7359605  74.4815979
  22.7861652   0.8095580  74.2942734  22.3069477  26.2592297  77.6545486
  21.6401787  26.6157894  77.0675964  23.1387081  26.5038490  77.2488785
  41.4584236  16.5108986  60.2576447  40.6041870  16.4843864  59.8265877
  41.3309975  16.0241966  61.0719643  23.3628941   5.9111085  50.5996017
  23.1442204   5.1836390  51.1820107  23.7407761   5.4931674  49.8258057
  59.4519997  36.2360306   3.3852820  60.3478699  36.2462578   3.0483136
  58.9570503  35.7380981   2.7346520  76.2599030  65.7521210  85.8966599
  75.3049622  65.7288666  85.8351440  76.5322189  66.3249130  85.1797333
  66.5533600  31.2829723  39.2208862  66.9797974  31.2326603  40.0763702
  65.6785202  31.6228371  39.4089699  27.2729855  62.3715134  23.1226864
  27.7340546  61.5326843  23.1191444  27.6560364  62.8584518  22.3930321
  66.9865952  50.0749168  30.5415688  66.8730011  49.5894203  29.7244892
  67.5229340  49.5010300  31.0885849  70.8635101  41.3856392  63.4317398
  70.1014328  41.1602440  62.8981895  70.5354080  41.3835144  64.3309479
  10.9734764  67.5734558  30.0607738  10.1324825  67.1328125  30.1823845
  11.6264915  66.8986893  30.2464771  51.6443214  32.5743942  49.4629478
  51.4472847  31.7277069  49.8636093  50.8228111  32.8411102  49.0503807
  27.9547081  34.8487129  82.0631332  27.2923374  35.5395546  82.0785446
  28.4575634  34.9810600  82.8667831  60.1429901  65.1990356  39.9499321
  60.9131966  64.7429657  40.2890625  60.4943581  65.9874115  39.5361252
  32.2783699  64.7754211   1.4416234  31.9005489  64.2498550   0.7364554
  32.8732071  64.1772079   1.8938844  44.4670105  44.3667908  29.5058060
  45.3364639  44.7624779  29.4448833  44.5615273  43.6815796  30.1674576
  72.4227753  19.0079346  86.1766815  72.0960312  19.3152409  87.0222778
  73.0465164  19.6801529  85.9022751  62.0809288   1.5168773  32.6412582
  62.2358475   0.5774357  32.5428619  62.9566612   1.9002441  32.6897888
  64.3764648  34.9382973  77.3124161  63.5429764  35.1747398  77.7193909
  65.0356979  35.1614952  77.9695511   7.1267138  66.5639572  83.0907898
   6.8965230  67.3221054  82.5537186   6.7435832  65.8181381  82.6290436
  33.4467850  25.3252563   9.8094406  34.2475815  25.8450127   9.7400999
  33.3334770  25.1841335  10.7493753   3.4128792  53.2755852  15.8447542
   2.8398948  53.5358734  16.5659828   3.2681887  53.9407959  15.1718559
  12.9495955   4.3031654   8.8028917  13.4944372   3.5504603   9.0327044
  12.1001635   4.1147037   9.2018642  77.9484406   7.5070744  10.7702188
  78.4785843   6.7307639  10.5898676  77.8534470   7.5162578  11.7226496
  67.2972717  40.3024216  34.8776550  67.6091995  41.1809387  35.0947762
  66.3715973  40.4225159  34.6656799  76.3606033   3.3906174  13.7693672
  76.0838852   3.2299120  14.6714954  77.3152237   3.3259051  13.7965231
  77.7339935  58.7175255  61.3365936  78.0314713  58.4295654  60.4735641
  78.5309753  58.7514381  61.8656425  28.5551624   8.0582209   4.2681460
  29.3230495   7.5342536   4.0400219  28.4018040   8.6061449   3.4984107
  58.3503685   2.4308972  66.9269485  58.4342041   2.0869923  66.0376053
  58.3065872   3.3803372  66.8134613   5.7983699  67.8417282  36.7761726
   5.4109225  66.9996414  36.5374184   5.0484776  68.4225693  36.9047089
  47.4797363  70.5362549  64.2407150  47.8155174  69.7493057  64.6698914
  46.8796577  70.2066956  63.5717392  74.8413391   9.3292780  33.4501915
  74.2367783   8.6310358  33.7015953  75.3810043   9.4704247  34.2280502
  42.6828117  70.2947006   3.6613784  42.8338356  70.3720627   4.6034174
  43.3827248  69.7191086   3.3530746   3.6697955  40.3030663  17.7901878
   4.5982485  40.4298439  17.5949059   3.6626754  39.7481384  18.5700817
   1.8309098  35.2458382  51.1070442   2.0687685  34.3198204  51.0606651
   1.4698907  35.3566284  51.9866028  39.1907501  49.8302498  87.1119232
  38.2359352  49.7641449  87.1258621  39.3748436  50.5005989  86.4539108
  66.2231522  23.4813862  20.0202751  66.4952316  24.1569595  19.3991394
  65.4454269  23.0897694  19.6227722  50.9222946  34.5465851  27.0221043
  51.4589233  35.0677414  26.4249001  50.5966339  35.1775703  27.6640034
  23.0570469  56.9480019  61.6826591  22.5067596  56.4072571  62.2492371
  23.9281654  56.5572433  61.7511444  25.0174828  13.7034721  87.5274887
  24.1132431  13.3966579  87.5941849  25.2590942  13.5404348  86.6157455
  12.7354298  37.4009857  20.8219681  13.3470497  37.0709190  20.1637821
  13.2037945  38.1209564  21.2444687  66.3297272  25.8759098  64.5208893
  66.5355911  25.2642517  65.2277985  67.0322876  25.7500610  63.8830795
  20.9426270  24.5049648  13.9882336  21.3590107  23.6644382  13.7975254
  20.0578976  24.4200706  13.6328764  28.2899265   0.3979076  13.9382429
  28.5937557   0.8209248  13.1351395  28.1495819  -0.5156669  13.6894112
  42.4996910   1.2694551   2.6056902  42.6259079   0.4277885   3.0437524
  41.5498161   1.3837613   2.5756447   2.6637790  40.9500580  61.6683807
   3.6183677  41.0148392  61.6965904   2.3737979  41.8129616  61.3724976
  73.4737625  48.1674919  49.7420044  73.8273239  47.5220184  49.1299667
  74.1934052  48.7825356  49.8836708  21.7527294  26.8126144  68.6040115
  20.9704762  26.2624493  68.5636444  21.5829182  27.5166931  67.9781799
   0.8414855  39.8690567  77.2831497   1.4524205  40.1170120  76.5892410
   1.1834682  40.2976074  78.0677643  16.1604233  65.2104492  39.7908478
  15.2936726  65.6163788  39.8049088  16.7133789  65.8089600  40.2931023
  32.4445038   3.9388726  30.5747490  31.9429379   4.7002535  30.8662338
  32.5013237   3.3788133  31.3489170   4.7780113  43.5778313  31.2050743
   5.0467620  44.0851860  30.4391804   3.9242177  43.9387169  31.4438820
  79.9823151  26.8918858  16.6060963  79.9420395  25.9627533  16.3795471
  79.2980194  27.2980156  16.0740910  13.0592947  39.6228142  11.5491419
  13.5066872  38.8924675  11.1217489  13.1156149  39.4242516  12.4838247
   2.8307145   4.7893858  87.3271179   3.7558360   4.9229221  87.5333939
   2.5172615   4.1933422  88.0073471  19.5817165   0.2087185  72.5572891
  20.1735878  -0.4372505  72.1717453  20.1318512   0.9772317  72.7088470
  15.9061117  12.5002556  27.3814335  15.4992418  12.2900782  26.5408897
  16.3066635  11.6786919  27.6657276  65.1327133  56.4620171  68.6543427
  64.4199142  57.1004562  68.6777878  65.1006470  56.0356712  69.5107422
  68.1567535  27.4523869  46.3610001  68.2077713  28.3975716  46.5033150
  68.7315369  27.2914734  45.6126976   9.4058628  17.2717266  25.3847065
   9.4843273  18.2182465  25.5037670   8.6854410  17.0167332  25.9610767
  22.9125156  25.8193188  52.8413391  22.1280785  25.6120224  52.3334808
  23.1105251  26.7282753  52.6158981  67.8560867  28.1274185  54.6716385
  67.4102173  28.9687920  54.5740433  67.1632538  27.5170460  54.9239349
  58.3844833  71.1584091  12.8221645  57.5316010  71.0819321  13.2499189
  58.4561348  70.3675690  12.2876749  39.8529015   1.6902392   2.6978219
  39.7553024   2.4180970   2.0838757  38.9557762   1.4529340   2.9325218
  62.6370468  40.1516190  10.5848722  62.0335197  40.5684090  11.1999140
  63.4544144  40.6399460  10.6832619   7.8924327  34.7060699  81.5940933
   8.2764034  33.9483452  82.0352859   6.9652972  34.6763153  81.8302383
  77.1342468  31.0529690  25.6373405  77.3813324  30.1601410  25.8782558
  77.8932724  31.5845356  25.8772316  77.6794968  49.0295944  37.0942841
  77.4855728  49.4590263  37.9274750  76.8965607  48.5131874  36.9030571
   3.9804587  63.5852470  80.2176056   4.3463616  64.3861084  79.8421555
   4.1898565  63.6404228  81.1499939  79.1235886  64.1365051  79.1280441
  78.1977997  64.3254700  79.2811279  79.1634750  63.8604660  78.2123795
  31.7337132   3.2239838  25.4630585  32.0766411   2.3673403  25.2085094
  32.0756226   3.3661981  26.3457279  66.1203461   9.8191643   6.2907100
  66.4083862  10.6053200   5.8267879  66.2283478  10.0346289   7.2170696
  63.9228630  37.8095970  59.5506897  64.6016617  37.2611504  59.1574135
  63.1447945  37.2523308  59.5678329   2.9524841  12.2782650  73.6479950
   2.3408380  12.8762627  73.2184372   2.4780729  11.4486790  73.7023315
  54.1532860  15.0635681  53.5258369  54.0448265  14.6063414  54.3597488
  55.1008759  15.1492529  53.4211388  53.3062439  28.2826672  14.5447292
  52.9527588  29.1641731  14.4254436  52.5715790  27.7745342  14.8886824
  72.3012390  30.1898098  32.9087944  72.9331284  29.7738590  32.3223305
  72.7857208  30.3298969  33.7223587  36.7587738  40.4922218   1.9935844
  36.6505966  39.5412140   1.9829119  36.7604904  40.7434616   1.0699466
  53.2961273   7.4430151   3.5611756  53.6591492   7.9509802   2.8356276
  53.9372902   6.7483892   3.7116399   8.7430277  25.4060345   6.8908772
   9.6783857  25.5777454   6.9997454   8.6929245  24.4716606   6.6892228
  84.9661179  41.2707825  13.6671629  84.5260773  40.4209747  13.6876621
  84.2800980  41.9010925  13.8869610  61.7782669  55.0101585  61.1708412
  60.8316917  55.1424408  61.2231178  62.0320892  54.7440834  62.0545883
  34.9507141  58.8292313  13.9643021  35.0833359  59.6387672  13.4710541
  34.1325340  58.9703064  14.4406519  85.1752090  29.3290482  10.7266788
  85.9250412  29.9050045  10.5774727  84.4951782  29.9062824  11.0739384
  51.1191406  58.2174301  29.4196739  51.8950768  58.2786751  28.8625374
  51.1767693  57.3479729  29.8158550  19.5439568  54.2349777  23.7603912
  19.3765659  53.3746376  23.3756447  20.3995266  54.4895401  23.4148045
  38.3315926  19.3276653  15.1851215  38.7526131  18.4686584  15.2179737
  38.9227905  19.8641205  14.6569843  71.9466705  13.5341005  49.7898026
  71.3441162  13.6594286  49.0566902  71.3968887  13.1957693  50.4965591
  82.4788513  62.6308060   9.2663813  83.2938690  62.1827774   9.4927559
  82.1513062  62.9679794  10.1002054   5.7466507  11.6637974  24.8588428
   6.0809836  12.5606680  24.8500900   6.5011911  11.1245861  24.6218796
  77.4804764  30.3681259  17.2522297  78.3917923  30.4906864  16.9863091
  77.4467697  30.6971111  18.1504860  57.2260857  47.5284271  82.9889679
  58.1766167  47.4575729  83.0767365  56.8801651  47.0775261  83.7592010
  34.5349808  57.1294556  46.4395714  34.7701340  56.2052841  46.3568420
  33.8197784  57.1386032  47.0756798  28.6983299   5.5005350  17.9151993
  29.1385307   5.5422454  17.0662518  27.8905468   5.0168605  17.7426319
  22.1140308  26.4394341   6.5365996  22.3109341  25.5079746   6.6358228
  21.1744957  26.5051537   6.7074409  72.7597733  33.9185753   9.0067692
  72.8527451  34.2558022   9.8977613  72.6750031  34.7011375   8.4621191
  75.2249908  30.6279278  60.2366638  75.8058777  30.4536095  60.9772148
  74.5834122  31.2514019  60.5770950  80.6347275  54.9584694  59.6500244
  80.3776093  55.3024178  60.5054893  81.3733215  54.3790321  59.8369827
  75.9549942  59.5374298  87.2414246  75.5249176  58.7880516  86.8294754
  75.7876663  60.2672234  86.6450729   9.7703104  25.6051846  66.2001190
   9.6459141  26.3446789  66.7950211   8.9111195  25.4729614  65.7994461
  57.7008476   1.1975842  33.9993896  58.2894669   0.4511983  34.1119308
  56.9104538   0.9540790  34.4812737  68.7210846   7.8190231  13.4046383
  67.7952728   8.0561724  13.4581852  68.7931519   7.0168400  13.9218817
   1.4204770   3.1468034  60.8641739   1.4568394   3.4372840  61.7755089
   2.2196629   2.6338248  60.7442284  30.3323994  62.3448029  78.7979050
  29.9836998  62.5161629  77.9231033  30.8818855  63.1047173  78.9897995
  17.0974140   0.1658526  49.1933060  17.8229351   0.7876469  49.2500725
  16.3384991   0.7033524  48.9666481   7.2461696  56.3871498  40.7493820
   7.3218074  56.4721031  41.6998024   7.5743198  55.5079918  40.5606308
   5.9575353  51.1725235  40.2128983   6.5038109  50.5941505  40.7451591
   5.3300219  51.5458298  40.8318520  24.4773998  49.5869980   1.0768554
  24.9322987  50.0637703   1.7711089  24.8525257  48.7068253   1.1052842
  24.9967213   7.8227506   3.2804935  24.4190388   8.4447088   3.7228553
  24.9265194   8.0486221   2.3529778  40.8376732  64.6694336  89.0781860
  41.1336136  64.8440018  88.1847763  40.9664383  65.4982452  89.5393982
  79.9283752  55.7880592  80.3306046  80.0390396  56.4846039  80.9777679
  79.0441589  55.9179153  79.9877777  76.8193436  58.2594414  35.5525475
  76.1838455  58.7824364  36.0412750  76.4944992  58.2677193  34.6521912
  75.1889725  53.7891884  49.4154015  75.1345444  53.4632683  50.3137589
  76.1276169  53.8721161  49.2471581  41.2835236  55.2528572  57.4647980
  41.3113747  54.3008308  57.3694077  42.1177788  55.4767494  57.8772583
  48.8963318  69.3285522  10.7484798  48.2393875  68.8847122  10.2121334
  49.7264557  68.9275055  10.4910297  12.0918503   5.1156230  46.4901466
  12.6944885   4.4839768  46.0976143  11.5470829   4.5930738  47.0787086
  86.0212250  27.6438866  41.7117424  85.8327866  27.9327965  42.6046333
  85.2597580  27.9237232  41.2037239  69.4888992  32.1686821   2.8374088
  69.5083084  31.8799610   3.7498209  70.0245972  32.9618530   2.8257298
  70.1747284  61.3562279  79.3223572  70.6204529  60.8133202  78.6721191
  69.5310211  60.7713203  79.7220459  24.5233078  53.8395004   5.6318927
  23.7171345  54.1939049   6.0070109  25.1762848  53.9457359   6.3236780
  31.7907619  14.9459410  66.1469498  32.6569977  14.8930254  66.5507660
  31.9682312  15.0882978  65.2171783  72.0545197   4.8439889  10.8594751
  72.9367294   5.0826025  11.1440821  71.4806366   5.4571385  11.3187590
  79.5238876  44.0511971  41.3999176  78.8662262  43.4139633  41.6785812
  79.0620575  44.8896027  41.4044838  30.6951408  47.9155884  10.2827206
  30.1007957  48.6082191   9.9941921  30.5459404  47.1994133   9.6654177
  68.1956024  29.9023895   5.7601266  68.7952576  30.6316280   5.9177604
  68.5362091  29.4781609   4.9725671  65.9598618  23.2201576  61.1986465
  66.7871704  22.7387829  61.2068748  65.3015747  22.5612888  60.9777718
   8.1718750  39.2142181  38.5335503   8.5575371  39.0486488  37.6732674
   7.7118959  38.4031525  38.7499352  16.0510235  58.7793694  51.1875305
  16.5856285  58.3061028  51.8250656  16.0212193  58.2022247  50.4244804
  22.1387329  69.1085587   5.9308443  22.0577469  68.8659668   6.8532448
  22.5472298  68.3476639   5.5180478  66.5966034  25.4675312  23.9792500
  66.8966217  24.6331596  23.6186333  66.2226028  25.9315510  23.2302227
   9.2789364  61.8676033  73.4888229   9.6573172  62.3565216  74.2195892
   9.2100554  62.5089951  72.7816467  53.2129784  13.9826984  49.7087822
  54.0800705  14.2450829  50.0178719  52.6804695  14.7740316  49.7891464
  72.7066040  44.7011986  60.1927986  71.9018402  45.2045822  60.0695839
  72.5493164  44.1883507  60.9855652  34.8306503  23.8456097  82.3450012
  35.6396713  24.2649879  82.6379852  34.2461166  23.8982944  83.1011581
  75.7926712  53.3488884  84.5855255  75.1186752  53.5604286  83.9396057
  75.4230576  52.6231651  85.0884628  59.3432426  35.7657280  69.2953186
  60.0809975  36.3120193  69.5664520  58.8313599  35.6407242  70.0944290
  77.2963562  58.8817406   7.6241722  76.9373703  59.4557304   6.9474921
  77.6960449  59.4783783   8.2570286  47.2035027  70.0700684  16.7640495
  46.4446678  70.5837936  16.4874802  46.8353844  69.3708725  17.3042717
  44.1128349   8.2209024  75.4396515  43.5519104   8.6151161  76.1076279
  44.1538200   7.2946305  75.6775055  24.1305218  16.9258537  30.4906521
  24.9257488  16.5325813  30.8500729  23.9761353  16.4505272  29.6742821
  51.5798759   0.6607696  79.1489105  51.3066254  -0.1002583  78.6366577
  52.5196495   0.5357445  79.2809067  69.0308609  55.5177612   7.3857455
  68.7065887  54.6252441   7.2653756  68.9177094  55.9311676   6.5298696
  65.2875366  40.3781929   5.3199539  64.6650162  41.0149574   5.6710005
  64.8734055  39.5289001   5.4730244  10.5176191  52.3236923  87.0123901
  10.2077150  51.8485146  86.2414169  11.3899937  51.9667511  87.1790848
  68.5660095   2.7754712  41.6082268  68.0657349   3.5663974  41.8092041
  68.1726303   2.0972602  42.1573334  69.9262695  26.9778366  35.1218605
  70.0147934  27.2078533  34.1969376  70.6642914  26.3933945  35.2950211
  59.0571632  68.6045761  55.6214294  58.5946121  69.4321213  55.4893341
  59.9772644  68.8550873  55.7044716  87.0333405   2.2357607  84.3402634
  86.6166077   2.4015641  85.1858826  86.3089676   2.0113919  83.7561569
  31.0585537  28.9049721  62.0792694  30.7013264  29.7444038  61.7894859
  30.7119770  28.2684994  61.4539566  43.7121277  49.5691795  30.3615475
  44.0543060  50.3701057  30.7586136  44.0062561  49.6084366  29.4515038
   1.5623195  48.9923668  66.9798660   1.6837226  48.5151749  67.8007050
   2.3718467  48.8400879  66.4923096  41.4068069  59.1028862  63.1520996
  41.1977158  59.2018394  62.2232742  40.5730820  59.2417030  63.6013985
  13.7984257  54.1822624  21.9611835  13.7159166  53.2973671  21.6056805
  12.9689608  54.6067390  21.7420025  75.4459763  35.0619507   4.7411489
  76.3208542  35.4330177   4.8557134  75.5181274  34.5156441   3.9584773
  16.2443333  50.2787743  15.2108641  16.3576107  51.1421318  14.8133526
  16.2136879  50.4505806  16.1520214  37.9120979   5.7300963   6.3832016
  38.3362503   6.0241575   7.1893358  37.6298714   4.8354936   6.5736361
  19.0210896  38.2522278  67.8503036  18.5658112  37.8210258  68.5735016
  19.9307537  37.9668732  67.9358139  61.8018646  46.7876511  85.0521622
  62.0345879  45.8614807  85.1175995  62.6332741  47.2324600  84.8874435
  45.2161026  54.3147697  50.6053734  45.7124062  55.0686226  50.2865944
  44.3399010  54.6599541  50.7767029  74.4394226  11.9942141  24.4533749
  75.0534744  11.9575672  25.1867447  73.7127075  12.5272293  24.7758789
  35.8480148  58.5555191  57.3969193  35.3992081  59.1766968  56.8233833
  36.1622543  57.8695984  56.8078499  26.8459320  67.4110336  73.2391739
  26.5677376  66.5373001  72.9645233  26.0556698  67.8109207  73.6022263
  38.8847923   9.6790667  73.0102158  39.7133446   9.3009081  73.3047028
  38.7135468  10.3905878  73.6271744  58.1663284  53.8602028  70.9863892
  58.1154671  53.4588051  70.1189041  58.3009644  53.1241722  71.5833511
  30.1461372  68.3727341  28.6997166  29.4545727  67.7271500  28.5541515
  30.0265465  68.6512451  29.6076622  54.5649910  14.4452820  13.9393015
  55.4154243  14.8239698  14.1619883  54.0802002  15.1655664  13.5363131
  69.7349930  56.4466362  73.4690323  70.6476898  56.4337997  73.7572021
  69.7028961  55.8188744  72.7471466  20.4922543  43.5736122  33.9807167
  19.6199818  43.2772293  34.2405777  20.8452606  42.8519478  33.4603119
   5.5383430  59.7526207  85.6606369   6.3592157  60.2442932  85.6862488
   5.2007651  59.8033485  86.5548935   9.2229147  27.3515930  68.2842178
   8.5008259  27.5369530  68.8846054   9.7588205  28.1445103  68.3021011
  55.6261482   4.5280838  83.1704407  55.8280411   4.2776570  84.0719757
  55.8806267   5.4491696  83.1150131  40.8656693  44.2138634  46.4846725
  40.6477203  44.5058403  45.5995293  41.6876717  44.6599846  46.6884384
   1.9503075  66.4901810  50.6858482   2.1737568  66.2614822  49.7836266
   1.8497491  65.6475449  51.1286469  49.4286880  15.3259039  37.9489059
  48.7458153  15.9848795  38.0740776  49.8064003  15.5318270  37.0938263
  77.7006683  40.5379562  56.5065041  76.8780670  40.6259308  56.9879913
  78.3455811  40.3056717  57.1746025  63.6718178  18.0748882  59.5520821
  63.4826088  17.2010899  59.2101593  63.5464783  17.9944077  60.4976196
  71.7973175  37.3762474  53.5643501  72.3615875  38.1194115  53.7777481
  72.3143158  36.8504639  52.9540215  66.5677109  22.9035740  69.3775711
  67.5098114  23.0247040  69.4959106  66.4914856  22.3883533  68.5744705
  33.4056358   0.2196101  10.3305702  33.7874413   1.0937120  10.2505550
  32.6021156   0.2608366   9.8120251  22.6031704  49.4577408  27.6215649
  22.2221737  50.3322487  27.7010136  21.9773560  48.8829002  28.0621910
   3.5074952  38.8708801  20.0119648   3.8170197  39.2856636  20.8171864
   3.4630332  37.9386444  20.2245502  19.1986027   3.8400040  58.6296349
  19.3369961   3.3141367  59.4173813  18.5255966   4.4731421  58.8794937
  62.9250908  67.2689285  47.5889397  63.0560570  66.4932938  47.0435295
  63.1781502  66.9887238  48.4685287  73.3651657   7.2759199  44.0105057
  72.9420471   8.0988073  43.7654343  74.1845551   7.5427361  44.4271965
  47.2256470  12.5379086  70.9312057  47.0107269  13.4625969  70.8087616
  46.5915375  12.0705814  70.3873825  17.8411293  57.4122772   2.9012809
  17.8981762  58.3190117   3.2026331  17.5815067  56.9174767   3.6784542
   7.9978347  38.5036163  24.1477947   8.1918192  39.4399223  24.1038094
   8.7660580  38.1194458  24.5702610  65.8787689  58.0129585  32.0934715
  66.1311035  57.2060814  31.6445751  65.4391022  58.5335808  31.4212551
  72.5940170  23.6412182  11.3793430  73.0927811  23.1811829  10.7041903
  73.0634766  23.4551640  12.1924982   8.5461473   7.9644737  85.8726578
   8.5834570   8.9038486  85.6926193   9.3911829   7.6293974  85.5728683
  42.4750290  68.6624146  78.7050934  41.9999619  69.4277802  78.3814240
  42.1236801  68.5162125  79.5833969  68.1306305  45.7683945  10.3371763
  68.0046768  45.5326195  11.2562943  67.6169891  46.5679245  10.2224522
  20.5966873  11.4277601  88.2173233  19.7668457  11.6542196  88.6372223
  20.5887184  10.4717045  88.1712036  76.0273056  70.9145279  70.0509109
  75.3246231  71.5552826  70.1600113  76.7838287  71.3131332  70.4810410
  44.7945518  16.5069237  86.6055603  45.4545937  17.1449413  86.3344345
  44.5201607  16.0853767  85.7911606   7.1383166  47.2716904  28.5663834
   6.2490249  47.5958519  28.4238625   7.2589774  46.6002579  27.8949318
  66.9934921  59.7075958  63.3572884  66.2102203  59.1845207  63.5278931
  67.6017380  59.4624901  64.0545654  77.9614487  52.7821503  39.1283302
  77.3043594  53.4762993  39.1794777  77.5323868  52.0174332  39.5121841
  70.4436417  13.3188105  46.9950104  70.2581253  14.2535667  47.0847092
  69.6012497  12.9287663  46.7615967  67.7752457  34.3211746   6.3538194
  68.7102203  34.4163666   6.1721830  67.7397232  33.9049721   7.2150660
  13.2716522  62.5981827  88.5705719  14.2177057  62.7121468  88.4798737
  13.0023270  62.1738586  87.7559280   8.9282742   1.9281083  37.3209038
   9.2089777   2.5705061  36.6691666   8.9080887   1.0976192  36.8453903
  47.0110283  65.5825424   2.2483921  47.4163971  66.3894043   1.9307724
  47.3632851  65.4689178   3.1311350  43.8339996  42.7200127  82.7210312
  43.6174583  43.5392380  83.1662369  43.5882988  42.0364418  83.3444061
  20.7853451  70.0506287  38.4321404  20.6032467  69.1314697  38.6276436
  21.4625206  70.2996826  39.0611382   6.7274218  69.5877914  33.3852196
   7.4048667  69.1149902  32.9017372   5.9794941  68.9905243  33.3955040
   5.2084064  32.5046844  66.7239990   5.2811942  33.3626938  66.3059692
   4.9364314  32.6976929  67.6212234   6.0254011   7.9289570  33.7008553
   5.4634342   8.2939701  33.0173416   6.8962421   8.2745743  33.5048561
  61.9966202  62.5167427  81.2892303  61.4068069  61.9349976  81.7687378
  61.5372810  63.3561630  81.2645035  62.8625641  58.3827782  35.7866402
  63.0493698  58.6896324  36.6738701  63.4622383  57.6482315  35.6560249
  17.4943466  44.7185745  33.7729301  17.9443951  44.8144608  32.9335861
  17.6969109  43.8258667  34.0527039  56.4832954  17.5233040   7.2406058
  56.7391663  17.6941853   8.1470070  56.1102600  18.3508759   6.9369555
  18.8297863  37.0117683  13.9986258  19.3653030  37.3951416  14.6932335
  19.0420361  36.0786400  14.0199480  26.0125618  56.0702019  35.3196259
  26.1708374  56.9820213  35.0751572  26.5438404  55.9370193  36.1046333
  61.1231308  51.5626259   5.7049842  60.2656479  51.6048698   6.1282673
  61.1394577  52.3206940   5.1207790  84.6833420  48.2579460  83.3626556
  85.1164322  48.6343346  82.5964966  85.0285645  48.7576141  84.1025085
  15.6925926  28.8296680   9.5575705  16.3648891  29.4830780   9.7507086
  16.1016636  27.9927902   9.7778597  59.0796814  64.0244522  58.5257759
  59.7546272  64.2207870  59.1754951  59.5653801  63.8652687  57.7164612
  81.9799728  10.9070816  45.4661179  81.2603378  10.3086462  45.6666985
  81.6732178  11.7611322  45.7706337  53.6794853  63.7567558  16.1826096
  54.3152161  63.5972366  15.4850197  53.0194550  63.0733833  16.0660248
  59.3944206  29.8478642  61.6174774  59.0920906  29.3346519  62.3667755
  58.7878456  30.5869999  61.5730209  17.2843685   4.6209445   1.8647875
  17.2091808   4.6774135   2.8173575  16.4119148   4.8463149   1.5418869
  71.2533264  39.6567116  79.4081116  71.1715164  38.8798447  79.9612961
  72.0752258  39.5281258  78.9346390  34.6488762   3.7187808  33.0532570
  33.8127327   4.1816754  33.1063919  34.9266548   3.6207237  33.9640007
  15.1364985  49.8930359  63.2019653  15.0515566  48.9404564  63.1618958
  14.2807388  50.1973076  63.5041695  18.0402584  22.2491360  73.9633865
  18.3311310  22.9999657  74.4809570  17.5078144  22.6310539  73.2656250
  63.1381149  42.6818962  16.6063709  64.0937347  42.6293755  16.5902710
  62.8731499  42.0277252  17.2529659   2.8702636  50.7698441  34.0591774
   2.8602455  49.8311577  33.8720932   2.3213496  50.8647995  34.8375778
  21.3533669  27.2766762  88.9908447  20.4053421  27.2020683  89.0999908
  21.6427555  26.3855782  88.7948074  41.9867325   3.5605762  20.1834316
  42.8144875   3.8956628  20.5280571  41.8646469   2.7213881  20.6273804
   0.4220954  18.1396923  51.6138878   1.1236558  17.5027390  51.4784813
   0.4811925  18.7252007  50.8589554  81.8580704  39.0399971  83.6234283
  81.4039078  39.8707047  83.7644806  81.6180725  38.7840233  82.7328568
  20.6510506   3.5078485  45.4752045  20.0477314   3.7707789  44.7801476
  21.5101128   3.4918447  45.0533218  29.2273445  52.3541832  80.9893875
  28.4598503  51.8271942  81.2117996  29.2887974  52.9976768  81.6953354
  75.8874359  38.5543633  47.4456520  76.2627869  39.3975029  47.6995316
  75.8488922  38.0541496  48.2608414  16.1940441   6.4090319  82.1056442
  16.4294949   6.6618872  81.2129745  16.1726704   5.4522758  82.0858231
  71.5347366  50.8999290  41.8525047  72.2288055  51.5041351  41.5889969
  70.8575668  51.4623451  42.2284813   5.9333725  46.4654274  53.5720100
   5.9897141  45.6914558  53.0116310   6.7681222  46.9157600  53.4430733
  -0.0626182  43.9204750  58.8581619   0.7753437  43.5582695  59.1460075
   0.0390908  44.0381508  57.9136810  72.1010361  36.3445854   7.4693875
  72.0725479  36.9365540   8.2210464  73.0322037  36.2648048   7.2625074
   3.8935034  62.3569145  48.0781746   3.3178718  62.3368187  48.8426819
   3.3664403  61.9837608  47.3716354  22.4042416  17.1384716  74.5471802
  22.8218517  17.5199394  73.7749634  22.2811432  16.2163239  74.3219604
  51.9777260  45.9188614   0.0553718  52.5821915  45.6796837   0.7579724
  52.2738113  45.4095345  -0.6990478   3.8172894  14.8068047  88.6933823
   3.5770729  14.3838072  89.5177612   3.4523506  15.6890707  88.7616425
  66.4488983  38.4218292  55.8950348  65.6669769  37.8713646  55.9377098
  66.3819656  38.8679428  55.0508003  12.9403877  35.9654388  82.6533051
  12.1275835  35.6052628  82.2985458  12.6673975  36.7506447  83.1278152
  52.4491348  19.0507431  10.1486044  52.5955124  18.2222233  10.6050692
  52.5908623  19.7208710  10.8172398  55.2835388  58.3685150  47.8174171
  54.5665092  57.8188972  48.1336784  56.0741577  57.9506340  48.1587791
  61.4212418  36.2205009   6.4082375  61.8098412  35.5690346   5.8244452
  60.6189041  35.8076172   6.7276220  59.6957016  28.6127033   9.7111292
  59.0032501  29.1204567   9.2881308  60.2633972  28.3361130   8.9917879
  47.7129822  57.3806839  12.2067165  47.5680389  57.4300842  11.2618437
  48.6220093  57.0941162  12.2949276  24.8609238  48.6586800   5.2342200
  24.6742535  48.2805138   4.3749318  25.4761181  49.3696404   5.0544910
  28.8210373  54.8375206  79.8205643  29.0525818  54.0675964  80.3400269
  29.5691051  54.9669228  79.2375717  29.0419025  26.0125523  67.4813995
  28.8424511  25.1315308  67.7980270  28.5102558  26.5900154  68.0292358
  31.8290176  44.6516609   2.9238958  31.6387119  45.5896530   2.9103205
  32.3081169  44.4926758   2.1106179  38.7591972  40.3616219  10.4126797
  39.5594673  40.7260246  10.7908497  38.0864067  40.5237274  11.0739727
  49.9619331  67.0748215  13.9317198  50.8641663  67.3936081  13.9558296
  49.4271126  67.8686218  13.9407644  41.5888939   4.9329109  78.3072739
  42.0215263   5.2220006  79.1106949  41.9726906   4.0754366  78.1237793
  48.5071793  24.9439831  12.4827051  47.8833733  25.0717068  11.7680111
  48.1292419  25.4245224  13.2192364  80.3645554  22.2686710  43.0448837
  80.9300461  21.6273651  43.4752007  80.7989807  22.4499912  42.2114410
  15.4373131  43.4715004  87.0709000  14.7926025  43.0040398  87.6019974
  16.2171841  43.5149765  87.6242065  77.7349091  55.5701942  30.2088718
  76.8400726  55.2742195  30.3759270  78.2394867  55.2384720  30.9515648
  86.6732559  34.1609459  57.3108139  87.5422897  33.8363953  57.0748634
  86.0690842  33.6166763  56.8058548  18.6511059  61.1152573  54.7207603
  18.6461964  61.7432976  53.9984207  18.7047901  61.6565323  55.5083961
  35.4309769  55.4191246  18.9183617  35.3213081  55.0858002  19.8089218
  36.3514290  55.6775017  18.8709869   7.5883780  38.0134544  88.9188995
   7.2950525  38.9206200  88.8338013   8.2697039  38.0440369  89.5905380
  80.3134003  16.8048935  54.7950668  81.1642303  17.0820618  55.1349030
  79.9229050  16.3009930  55.5090904  49.2004471   8.0416594  53.1870346
  48.9174004   8.3632898  54.0429955  48.4539680   8.2056236  52.6107407
  52.1466141  12.7140675  57.4183083  51.8347321  13.5454988  57.7756386
  51.3758049  12.1465759  57.4243774  41.0431213  34.1161919  82.1352844
  40.3283691  33.9542656  81.5195465  40.6741333  33.9022484  82.9922028
  13.7445612  58.6302452  11.1901226  12.8580151  58.9833641  11.1154556
  14.2346783  59.0637741  10.4915018  12.4874573  31.4994831  69.1760483
  13.2194033  30.9001503  69.0301437  12.6298218  31.8409634  70.0588531
  53.4093666  17.1658230  33.7785721  52.7049141  17.2347908  33.1341934
  54.2018471  17.3934116  33.2923508  55.3961411  29.4028740  62.3661613
  55.6635780  30.2094135  61.9254761  56.2187576  28.9621716  62.5790405
  55.5944824   9.8435097  74.0341263  56.3195190   9.2486248  74.2256088
  55.0662766   9.8420668  74.8323898  63.9604340  27.2545528  75.5045319
  63.7884216  27.5222340  74.6017685  63.2075157  27.5794525  75.9982834
  79.4143753   3.8482530  55.2274551  79.5367126   3.2506080  54.4898338
  80.2711563   4.2574301  55.3488312  10.6022120  10.0494671  78.3069687
  10.6226587  11.0049868  78.2540817  10.1396351   9.7755995  77.5149765
  15.3499985   3.2847674  23.6767521  15.0676317   3.4719455  22.7815075
  14.5501699   3.3493402  24.1986122  76.1134033  67.0616455  19.4746227
  76.9911041  67.2284012  19.8182220  75.6061249  67.8324432  19.7291241
  42.4505196  44.0885811  25.1481171  42.0000992  44.6783752  25.7526798
  42.4844933  43.2514000  25.6109409  46.6745071  31.3873615  81.6796722
  46.8971062  30.5539913  82.0946121  47.1058998  32.0477028  82.2219696
  25.9579506  37.6791534   6.3901868  26.2214222  38.5581436   6.1178064
  26.0754852  37.1406021   5.6076379  72.8749542  35.8640327  51.5511703
  73.8089828  35.6576500  51.5162926  72.5113449  35.2256126  52.1647148
  66.9997177  40.4013062  22.3988590  67.8574677  40.1946831  22.7700710
  66.3950424  39.8128853  22.8509312  85.6176758  61.4119530  20.1063671
  85.8849030  62.1658669  19.5805988  84.9445572  60.9798126  19.5806370
  50.8858910  58.3006477  17.1289120  51.0092773  59.1048012  17.6332359
  51.7636719  58.0731125  16.8223782  77.1267090  37.1134720  53.5844460
  78.0803223  37.1917000  53.5572662  76.9214554  37.0076790  54.5133743
  78.0496445  52.3877945  46.1056747  77.2463150  52.2371330  46.6038589
  77.8193970  53.0770264  45.4826355  70.7966995  15.5628910  12.9536762
  70.5882568  16.1726322  13.6614895  69.9699860  15.1163225  12.7710161
  83.8222427  66.6037598  77.8645020  84.2926178  67.0547714  77.1633835
  83.8489532  65.6799927  77.6151810  52.2582474  40.7242012  27.7402496
  52.7316322  40.2777557  28.4422646  52.8166161  40.6185875  26.9699898
  60.0826759  69.4369049  36.8408928  60.9043465  68.9872055  36.6437721
  60.2279434  70.3382339  36.5532379  78.9365997  18.5691299   1.6385406
  78.2404938  18.7988586   1.0229958  78.4893112  18.0961628   2.3403010
  56.2050209  26.7747345  34.5987396  56.6616516  26.1792965  34.0044556
  56.4405556  26.4668827  35.4739418  81.6798630  63.9680367  53.9749374
  82.2301025  63.6851616  53.2445641  82.0704346  63.5528259  54.7438927
  18.1341190  25.9426441   4.1334243  18.2723675  26.5141201   3.3780861
  18.1976776  25.0561924   3.7779045  34.4438248  63.2513809  83.0895920
  34.7709274  62.5198135  82.5661011  34.0167274  63.8274689  82.4555969
  10.3267384  54.9326439  14.8199520   9.9445629  54.3538971  15.4796686
  10.4221153  55.7742004  15.2659588  66.8247070  14.8175354  39.0173225
  67.7147675  14.6942711  38.6874237  66.2621155  14.4783373  38.3211441
  81.2349396  48.9927788  69.4241333  80.6113205  49.2014160  70.1196899
  80.7537003  48.4084015  68.8383484   7.0796256  36.4009895   2.3612499
   6.5152273  35.6926727   2.6710484   7.0847144  36.3041039   1.4089789
  85.6345673  58.7591248  28.3822727  84.8208771  58.7776909  27.8784885
  85.5017853  58.0634384  29.0261822  33.5431213  56.2305679  71.7360229
  33.7511292  55.3916550  71.3246918  32.8408585  56.5941582  71.1967087
  72.6564255  61.9877663  41.5432777  72.0906372  62.5272751  40.9909630
  73.1432724  61.4415779  40.9261169  62.4981766   7.7484970  10.6256418
  62.8183708   6.9127569  10.9651213  62.4618950   8.3203659  11.3923759
  14.9189396  65.9803009   3.0971825  14.9349766  65.3423309   2.3837585
  15.6939201  66.5227356   2.9508929  66.8357468  16.0366898  64.2745132
  66.3307495  16.7165623  63.8284378  67.2315292  16.4841690  65.0224075
  68.0978470  67.4793701  50.9087753  67.4486389  67.5057831  50.2058754
  68.7226486  68.1687393  50.6837769  16.6532669  67.0748672  37.6163483
  16.5595131  66.3042984  38.1764107  16.2823601  66.8065338  36.7757225
  69.5576248  12.5412836   7.3289652  70.1950302  12.2292433   6.6866436
  69.9437256  12.3201342   8.1764650  13.4824553  58.8853264   4.4076247
  12.6995192  58.5912857   4.8732252  13.3396053  58.6110001   3.5017712
  63.0368576   7.5457850   2.9137282  63.7130585   7.7484827   3.5601780
  63.3243980   6.7239861   2.5159869  46.1712875  67.7828903  37.1422768
  46.9019051  68.1616135  37.6311531  45.5700760  67.4667816  37.8167038
  12.6198158   7.9923420  78.8330994  12.1258364   8.6177616  78.3029404
  13.3372250   8.5064487  79.2035751  82.4488602  52.0710678  77.0061493
  82.0322571  51.8092651  76.1850891  82.7946472  52.9462433  76.8308640
  31.7351017  26.7783966  63.9150276  31.0849648  26.0874348  63.7880287
  31.3438759  27.5526657  63.5104523   7.0579848  34.8297920  32.2546196
   6.4349723  35.4928207  31.9571629   6.6972332  34.0022583  31.9363708
  16.5307293  56.2910004   0.6098117  16.6882954  55.5150604   1.1476989
  16.7918320  57.0250053   1.1659530   8.7917395  66.9191666   6.6824632
   8.1088657  66.2495193   6.7210402   8.5425711  67.4729996   5.9425840
  51.2368202  11.3753462  33.7393341  50.3163643  11.3510218  33.4778023
  51.4206429  10.4893093  34.0513916  34.8596268  10.8191109  70.2627945
  35.3259392  10.0793734  70.6521149  35.4185867  11.1001062  69.5383377
  42.5447426  25.1697922  59.4257927  42.1472168  25.9481964  59.8160362
  43.3612747  25.4860859  59.0391808   1.1600188  62.5179558  38.6013870
   2.0194204  62.8902054  38.4036789   1.0818964  62.5877686  39.5528374
  37.8117218  47.6326904  67.4956894  38.6842728  47.7455292  67.1186600
  37.7035561  46.6845055  67.5696564  34.2052231  25.0890236  79.9669189
  34.2303581  26.0150909  80.2077484  34.2301636  24.6233902  80.8028564
  10.8844852  43.6218987  11.9031696  11.5238972  44.1889343  11.4720621
  10.9398546  42.7932739  11.4271975  56.5314484  12.3061295  73.6821213
  56.1826668  11.4402514  73.4703598  57.0997124  12.1571846  74.4378433
  16.3258915  66.0950012  87.9226685  17.0809288  66.4085541  87.4248428
  16.2151699  66.7398148  88.6213837   5.4237075  30.1631966  74.2066727
   5.6877022  30.0559368  75.1204758   4.5883260  29.7002831  74.1427917
  65.5499191   4.7870960  61.9283180  64.9405518   5.0178080  61.2271194
  65.6018219   5.5749826  62.4694023   2.9452126  13.3859282  85.3016663
   2.4167891  14.0874338  84.9210205   2.4177730  12.5963249  85.1809769
  54.5085793   3.0427516  17.4216442  55.3862076   2.7868690  17.1378765
  54.6589165   3.6722732  18.1268635   2.9643505   6.6986384  79.9232559
   2.5516524   5.9548588  79.4842682   3.4269388   7.1622186  79.2251587
  26.9673214  20.2003174  71.3466110  27.8660831  19.8954277  71.2221069
  26.8996143  20.9785671  70.7934647  85.5964127  46.8849640  46.0101547
  85.8878784  46.1643715  45.4515610  85.3616638  47.5825500  45.3981934
  45.2613564  20.2447319  16.3730640  45.2386093  20.6515617  17.2392082
  45.7702789  19.4437180  16.4979782  46.1902122  69.1293106  34.5880547
  45.3228951  68.9290619  34.2360611  46.2059364  68.7013321  35.4441032
  47.9608078  13.7787361  33.0231628  48.6297760  13.4026756  32.4510651
  47.2858047  14.0983906  32.4244804  63.6768074  43.5549278  32.4527206
  63.8450470  44.1401100  33.1912918  62.7628365  43.2912865  32.5593910
  20.0524101  37.6627998  72.4197235  20.6659718  37.2560539  71.8078995
  19.5512962  38.2772179  71.8834305  67.0620880  40.3478432  54.1346397
  67.0228806  41.2179756  53.7376938  67.7278976  39.8831177  53.6277275
  79.8085632  29.4895554  24.5180168  79.5960617  28.6777859  24.0574703
  80.7521896  29.5941296  24.3960800  50.4576874  56.5506935  35.5269585
  50.7267456  56.9242554  36.3661766  50.3664589  57.3064232  34.9466286
  26.3106518   1.3133658  42.1176414  26.3844585   2.1104920  42.6424026
  26.2070179   1.6268251  41.2191811  78.8810654   1.3379861  74.6871033
  79.1990891   1.0490401  75.5424423  77.9932022   0.9849132  74.6299133
  39.1818810  54.0260849   0.8733952  39.7988358  54.5693016   1.3638180
  38.3984718  54.5696297   0.7893902  45.4550896  62.4312439  83.0035782
  44.9882622  61.5956802  83.0151596  45.3610115  62.7705193  83.8936768
  36.1962090   5.4933348  27.4542274  36.8935471   6.1395020  27.3427849
  35.3972511   5.9577408  27.2047806  25.9906998  30.8602066  60.8796196
  25.2510586  30.6896362  60.2964668  26.4833508  30.0395603  60.8879433
  82.5986557  42.3384247  86.5215454  82.8215866  42.1831169  85.6037216
  83.3864670  42.0893745  87.0048294  51.8798523  48.6700516  45.8788834
  52.7548714  48.8814659  46.2042809  52.0224800  47.9618759  45.2508926
  82.5296097  46.1728859  81.2971039  82.4733887  47.1212807  81.4137955
  83.2310562  46.0514679  80.6572113  13.9524441  43.4823837  63.1606026
  14.3809156  42.8582840  63.7463913  13.0277700  43.2360001  63.1830826
  70.2573090   1.1301835  86.5179977  71.0172577   1.4487023  87.0050888
  69.6382828   1.8600651  86.5358276  82.6252213  60.0979691  41.9521637
  82.7534409  60.7910271  41.3045006  81.9097214  60.4147453  42.5034752
  46.1732559  64.5504074   8.6277256  46.4674187  63.6838493   8.9084072
  45.2756233  64.6158218   8.9536161  71.1961288  16.4076290  49.2353516
  70.6400375  15.8081217  49.7329369  70.8648987  16.3532639  48.3389359
   6.5304413   4.2013516  57.4044533   6.4780445   4.2071285  58.3601990
   7.2259178   3.5741699  57.2064972  50.6471405   7.5241270  64.8839417
  50.5404587   7.1506319  64.0090942  50.1881142   6.9148216  65.4621048
  29.9051666  68.7869568   1.9045801  29.8030682  69.7316513   1.7890087
  30.5568428  68.5346832   1.2504357  61.7317047  62.9959373  45.2469215
  60.9587822  62.9776535  45.8112717  61.3877754  62.8536644  44.3650436
  65.6733170  61.1460266  13.4380360  65.2767105  60.3014717  13.6517267
  64.9355621  61.6986694  13.1800814  59.9573593  23.0669270  47.1051025
  60.0167809  23.7520962  47.7708664  59.0334740  23.0554504  46.8550186
  70.8464355  34.2049294  22.0104351  70.9536972  35.0377388  21.5509167
  70.5111008  34.4488525  22.8731537  85.2120132  31.0298080  15.0436401
  85.2275925  30.1682434  15.4604073  84.6340561  31.5537663  15.5983171
  43.8740730  25.3412170  30.5337830  43.5971031  26.0539455  31.1095753
  43.0839119  24.8165379  30.4049873   7.9399862  45.5886688  30.9581966
   7.5534873  46.1232147  30.2645760   8.8795195  45.7617416  30.8985786
  43.0298538  59.5141449  53.5530128  43.7724533  59.2560654  53.0069580
  42.2675247  59.4160156  52.9825249  62.8678093  32.3882904  11.5341311
  63.6233559  32.3358421  10.9487839  62.6414223  33.3181953  11.5502625
   5.4119039  42.0657730  65.3556747   4.4969745  41.8238792  65.2120667
   5.8834906  41.6625671  64.6268005  28.0940456  28.0188389  54.6887970
  27.3575554  28.4904633  54.2997169  27.9948139  27.1196709  54.3759422
  51.9225769  11.3270817  11.3777218  52.1640892  11.4797106  12.2912912
  52.7489471  11.1148796  10.9437656  30.2418537  65.9975052  45.5794182
  30.1467075  65.8597488  44.6369743  30.0826111  66.9333801  45.7019577
  42.4773636  31.9292068   9.3444109  42.1288834  32.1508141   8.4808817
  42.1472511  31.0474319   9.5168333  49.8780708  48.8129272   5.4178529
  49.1350670  49.3080139   5.0727901  49.5902786  48.5207672   6.2827516
  22.6772385  50.1051903  42.5308876  22.1077824  49.3801117  42.2735710
  22.0785694  50.7725334  42.8662682  35.7718124  45.7690163   9.4555531
  35.5409546  44.9408417   9.8763418  36.6691628  45.9407539   9.7410307
  75.7485123   5.8831773  34.9935760  76.1157379   5.5533724  34.1734505
  74.9592133   6.3559790  34.7295647   3.8571768  33.3184547  71.2254105
   4.4297466  33.2903137  71.9919586   3.0315223  32.9413109  71.5291977
  63.5674477  45.7995377  82.1778793  62.8641853  45.3062286  82.6001358
  64.1135941  45.1313019  81.7638474  78.4597015  56.3366089  74.9622726
  77.8436508  56.8318863  74.4224396  79.2793503  56.8272629  74.9017639
  65.8989334  60.8552284  37.7884407  66.8121872  60.7051430  38.0327225
  65.9346008  61.0909958  36.8614159  38.4046288   6.1397595  64.0396500
  38.3826180   7.0913277  63.9383316  37.9603615   5.9771495  64.8717651
  14.6605244  40.2732239  49.0442619  14.8982773  39.8916550  48.1992111
  15.1033478  39.7216721  49.6891899  54.9734268  36.7770119  62.6791420
  55.8864098  37.0643730  62.6681862  55.0173950  35.8481674  62.9061928
  17.1513805   8.8439369  21.0903492  16.8273087   9.4133778  21.7881660
  16.8414326   9.2542763  20.2830181  53.2073975  53.1889687  14.6772261
  54.0512657  53.0177231  15.0953121  53.2164726  52.6467476  13.8884630
  27.7015915  64.7139511  25.3780155  26.7490730  64.6990433  25.4713879
  27.8494682  64.7210999  24.4323349  20.5113182  54.9519997  48.6161423
  21.1755753  55.3481407  48.0521660  19.8033333  55.5957184  48.6409302
  67.4717712  50.0835266   3.0180571  67.2640915  50.9629440   2.7022717
  68.3365631  50.1710129   3.4189594   8.8541746  31.8648243  82.1735764
   8.4712811  31.0037975  82.3416748   9.6961851  31.8454475  82.6284103
  34.1003609  59.9725609  75.3572922  34.6414680  59.2819290  75.7399979
  33.3309898  60.0163536  75.9250793  59.1971931  44.5750275  35.4067230
  58.6223831  44.0156708  34.8842850  58.8001404  44.5794449  36.2776794
  62.9328079  71.3343353  77.7651138  62.8368988  71.7798386  78.6068726
  63.7671165  70.8701324  77.8334961  28.9188652  56.2924004  58.8459396
  28.1045494  56.7951431  58.8266830  29.4575500  56.6825409  58.1575775
   7.2378035  15.5772905  81.2714081   6.3333435  15.3400736  81.4761353
   7.3001089  15.4856586  80.3206482  75.1428986  54.7562103  29.8457279
  75.0666275  53.8130417  29.9901047  75.0679703  54.8601379  28.8971424
  76.7185898  68.6300583  36.4903412  76.1106720  68.3548126  35.8041115
  77.2321167  69.3307800  36.0884514  86.3468170  67.0498199  59.5062981
  86.3697357  66.1967316  59.0727692  87.2639771  67.3199158  59.5521202
  10.7338047  69.7140656  83.6549683  10.7880630  68.7746429  83.4795456
  11.3009386  69.8490982  84.4141464  22.0150661  64.8400574  52.1827049
  22.3458729  65.1846466  53.0121956  22.7544689  64.3587799  51.8113708
  55.9386215  36.3526192  69.6207047  55.9503365  37.0366516  68.9512329
  56.5570450  36.6569366  70.2849121  78.7816925  54.8888855  20.4857044
  78.0421143  55.3294563  20.0671959  79.2031097  54.4027100  19.7769909
   7.7144976  26.0121651  81.3546906   6.9653001  26.6055431  81.3014374
   7.9609389  26.0199604  82.2795868  20.7777748  40.5637894   6.7531919
  21.2383118  41.2919807   7.1701760  19.8530140  40.8060760   6.8016238
  57.3912315  48.3829918   4.6025152  56.5669479  48.5066910   5.0731378
  57.9570847  47.9277992   5.2260914   7.6760116   4.3521976  72.7357559
   6.9185801   4.4364958  72.1566010   8.1682682   5.1627707  72.6058044
  36.0915947  54.9541588   5.8283038  35.6191864  55.5401077   5.2369285
  35.4047852  54.4531021   6.2681580  26.7567444  11.4741316   3.4218698
  26.0526619  11.6335554   4.0504284  27.5140228  11.2492838   3.9624271
  14.1622734  16.1162109  86.6713715  15.0721817  16.3056831  86.4424667
  13.6470957  16.6036663  86.0285568  27.9391327  68.8918533   7.7028284
  27.5540657  68.0497971   7.9455047  27.8283882  68.9411163   6.7533336
  13.6490669  56.6603661  30.9537621  14.3739166  56.0555496  31.1119366
  12.8793039  56.2066803  31.2970772  64.9347839  37.4216194  44.7757530
  65.7195663  36.8913307  44.6373978  65.0890961  37.8646202  45.6101227
  57.8928909  63.6952972  21.6463089  58.1103325  63.1547203  20.8868828
  58.5350113  64.4048996  21.6269341   8.7798367  53.7302475  36.8433228
   8.6683111  53.7787132  35.8938789   8.0190849  53.2361908  37.1489334
  35.5075073  27.6902103  85.6675873  36.0568886  27.3270073  84.9729691
  35.7990341  28.5978680  85.7536163   3.4409635  43.2487946  21.5052280
   2.6488323  42.7777328  21.7638054   4.1317534  42.5865974  21.5284367
  76.8481674   2.4070547  80.7680740  77.6252136   2.2701266  81.3100052
  76.1203461   2.1077709  81.3129959  10.0558357   5.5596142  23.1668682
   9.8002176   6.4820318  23.1608143   9.6402168   5.2010422  23.9510365
   6.2885547  14.5417452  24.3499031   6.6990075  14.5181217  23.4854946
   5.7507577  15.3334951  24.3381233  68.5703812  57.1941032  61.6277657
  69.0532532  57.3774681  62.4336472  69.1599884  57.4719849  60.9267769
  50.2140999  17.0741882  18.8667088  50.9068604  16.8209057  19.4767609
  49.8956223  16.2456188  18.5085545  62.0799103  16.0745754  30.3261929
  61.8883095  16.8374310  29.7806892  61.3690910  16.0536861  30.9669189
  48.1098557   4.9305611  79.0762100  48.9990463   5.2594585  79.2081223
  48.2093697   3.9792640  79.0392990   2.0968595  23.5484085  38.4561157
   1.7459295  23.3799763  39.3305931   1.6619446  24.3532276  38.1744270
  29.6658554  53.1691170  56.7723732  30.3862362  53.4833412  57.3187675
  29.0322952  52.8109169  57.3940849  13.6592760  53.7943649  83.7398071
  12.8564100  54.3153839  83.7531128  14.3003836  54.3303375  84.2066574
  20.6508827  66.0855942  30.8847637  20.9491482  66.7837906  31.4676781
  21.3678360  65.4513931  30.8842411  38.8507881  38.6266365  13.0367699
  38.4089622  37.8175964  13.2945986  39.5893898  38.3361282  12.5016956
  11.9313383   1.0283155  66.6672821  12.7926130   1.1912118  66.2826996
  12.0235176   1.2937900  67.5822983  55.0839844   2.8670352  67.4447250
  55.2951775   3.8006418  67.4475327  55.6465454   2.4962587  66.7648087
  54.9673042  61.2250824  27.0423183  55.8595619  60.8792839  27.0192299
  55.0767479  62.1582413  27.2252674  55.0571594  70.5890350  40.4034424
  55.0208702  69.6325378  40.3983078  54.6878471  70.8472672  39.5589523
   3.3708832  14.1053638  46.2534409   2.6163907  14.4554644  46.7271538
   3.1699100  13.1769590  46.1355247  23.1501350   6.8240838  43.7751007
  22.9397678   7.5605922  44.3491516  24.1028404   6.8534198  43.6872177
  20.2221794  40.1622734  11.6856022  20.9719028  39.6185341  11.4437418
  20.5511856  40.7261963  12.3855886  20.9984818  57.6137390  82.8084488
  20.1059971  57.9286499  82.9517517  21.1162548  56.9228363  83.4603806
  76.1789093  61.4429665  76.1776352  76.8961945  62.0752411  76.2220001
  75.6673813  61.6050529  76.9702911  62.3548508  38.6774864  34.6150780
  62.5425453  38.3176842  35.4819946  61.4117737  38.8411407  34.6227264
  41.5760498  12.3482513   2.0084031  40.9457588  11.7389612   1.6240480
  41.6565781  12.0664091   2.9196179  55.4253006  29.8050385  24.5702877
  55.6843376  29.7664185  23.6496143  55.2934570  28.8905945  24.8205662
  67.3757706  21.1799393  31.7373829  66.9028015  22.0093861  31.6699371
  67.4977188  21.0495396  32.6777878  32.4618874  58.6610184  73.3047638
  33.0608559  59.1559181  73.8638153  33.0287247  58.0656052  72.8144531
  13.8112984   9.1010618  58.8102531  13.8630838   8.9527464  59.7544746
  14.0621510  10.0179253  58.6977119  25.6477165  56.6336098  40.4977303
  26.3416328  56.9570847  39.9232063  24.8428631  56.9989777  40.1303749
  21.5022678  36.0388412  67.0698624  21.8440323  35.1671562  67.2688522
  22.0657463  36.6352959  67.5627823  52.8860474   7.5980349  38.0731659
  52.6803818   6.9379616  38.7351608  52.1789742   7.5229869  37.4323463
   1.7645656  14.0842009  61.9477997   2.3520007  14.8399448  61.9495850
   1.0406331  14.3448982  61.3784218  27.1634560  10.5268974  55.1939125
  27.8953800  11.1236839  55.0378265  26.7274551  10.4553804  54.3447838
  66.0988998   7.7330289  27.3417206  65.2669449   8.1068611  27.0513172
  66.7648087   8.2461548  26.8840103  12.2650890  60.9473457  56.8867607
  12.6231194  60.6807709  56.0400124  11.3430996  60.6931000  56.8477135
  38.1736603  68.1337357  25.5272274  39.0732346  68.4371414  25.4049740
  37.6324081  68.8845978  25.2833347  57.6212883  25.8846664  42.7132607
  56.9584656  26.1624622  42.0810204  58.1077042  25.1943417  42.2626152
  80.9639816  35.2777824  50.1288071  81.5164948  34.5067749  50.0003281
  81.0347290  35.7628365  49.3066444  40.7954216  51.6368256  80.0471497
  39.8784180  51.4132729  80.2064056  41.0484009  51.0931511  79.3010635
  60.4786758  52.1083984  19.4567661  60.1969795  51.6291618  18.6775284
  59.6935387  52.5703354  19.7507114  40.7587318  41.2227478  85.9541931
  39.8526878  41.0977592  86.2364960  40.7494965  42.0546188  85.4807587
  19.0594692  56.0668106  51.5674438  18.1639519  56.2046165  51.8761368
  19.0274887  56.2829208  50.6355057  83.2197876  60.0991859  82.6467819
  82.9586258  59.2666740  82.2531433  82.4204941  60.6258354  82.6456604
  10.2909269  28.6307583  54.8635750   9.7784882  28.0099907  54.3456116
   9.7565765  28.7924061  55.6411171  16.4907990  49.5726814  70.2989273
  16.8248234  50.1586304  69.6197205  15.6074781  49.3469582  70.0073395
   7.8802762  36.0156898  60.4724159   7.0487051  35.6392479  60.7605362
   8.5473213  35.4704170  60.8895035   2.5337815   7.9796491  31.0755119
   3.1396449   8.5894785  31.4965477   1.6729069   8.2248478  31.4146347
  26.6685753  32.4128113  63.8644409  26.9861069  31.5381794  63.6398888
  26.2488270  32.3034782  64.7177200  72.4073944  38.9851456  33.4528122
  71.5176468  38.9986763  33.8055153  72.4879608  39.8102760  32.9743767
  86.8052064  71.6229238  89.1664541  90.0000000  90.0000000  90.0000000
