QMMM reactant CHA#2 frame 45688
 55680
  29.0614777  45.4454079  39.0439606  29.3605213  46.2014351  38.4447136
  28.1043320  45.5481987  39.3495903  29.6689377  45.4555779  39.8507996
  29.2657337  44.0825119  38.4430275  28.7049866  44.1467590  37.5105362
  30.7341442  43.8421745  38.0848732  31.2928257  43.5748558  38.9818230
  30.7120304  42.9865074  37.4100113  31.4926205  45.0533295  37.4246521
  30.7714100  45.5338554  36.7635536  31.6520786  45.7349243  38.2601776
  33.0691490  44.3503952  36.7794151  33.9239044  43.6358528  38.2849770
  33.8510704  44.2853622  39.1572952  33.4386673  42.7579689  38.7115517
  34.9700470  43.3671341  38.1384354  28.7299004  42.9408684  39.3554230
  28.8205128  42.9938431  40.5537796  28.1150246  41.9992561  38.7752304
  28.1523304  42.2207031  37.7905083  27.5617409  40.7197266  39.2693520
  28.1446877  40.6110077  40.1839333  26.0325623  40.8632965  39.6539726
  25.9409256  41.8456039  40.1174088  25.2891445  40.7553368  38.8641739
  25.7292442  39.6494331  40.6182213  26.0279713  38.6892776  40.1975632
  24.6439648  39.6090202  40.7111626  26.5845947  39.7457542  42.2784195
  25.6548862  41.1424065  42.9745216  25.7096786  41.0564461  44.0597458
  24.6014652  41.1415176  42.6945152  26.1285057  42.0523872  42.6061134
  27.8076382  39.4973221  38.3617287  27.8409576  39.6269684  37.1437607
  28.0504723  38.3381729  38.9943352  27.9617195  38.2699699  39.9981117
  28.3370781  37.2217712  38.1841125  29.0441666  37.5519142  37.4231033
  28.9865799  36.1167526  39.0817909  28.2548084  35.9712105  39.8764114
  29.4471931  34.8479767  38.3835602  30.2351322  34.9861984  37.6431999
  29.7720737  34.1324806  39.1389542  28.6327190  34.4045410  37.8107643
  30.2508297  36.5354958  39.8470383  30.8117428  35.6487503  40.1422768
  30.8148823  37.1117096  39.1136093  30.0510921  37.4496346  41.0998459
  31.0609512  37.6696320  41.4460907  29.6194706  38.4136276  40.8305626
  29.3665504  36.9424057  41.7797241  27.1077671  36.6268578  37.4312210
  25.9732533  36.3370209  38.0011902  27.2918892  36.2998009  36.1768112
  28.1864204  36.5314102  35.7690506  26.2595768  35.5949974  35.2854424
  25.5014610  35.2526131  35.9898109  25.6506138  36.4558792  34.1655235
  26.4455166  36.9106369  33.5743980  25.1630688  35.7350006  33.5092201
  24.6302605  37.4667358  34.5264473  24.3014946  37.9594803  33.6114540
  23.8258381  36.9527054  35.0525475  25.1117287  38.6476517  35.3836708
  25.5345936  38.3300591  36.3367844  25.9504490  39.1335640  34.8851357
  24.0367165  39.6842804  35.5806465  23.1701717  39.4170685  35.1359024
  24.2103291  40.9836311  35.9347610  25.4133453  41.4896927  36.1746979
  25.4730129  42.4387283  36.5151024  26.2610760  40.9449844  36.1058159
  23.1116390  41.7049103  36.0330467  22.1925545  41.2920074  36.1030579
  23.1650276  42.7120438  36.0872383  26.8711872  34.3017464  34.7883301
  28.1010056  34.1298904  34.7183762  26.1467628  33.2891884  34.3571167
  25.1546249  33.3347397  34.5406570  26.6265812  32.0625725  33.6781082
  27.6095963  31.7985935  34.0681000  25.8752785  31.3171959  33.9389801
  26.6359825  32.1713257  32.2098427  25.6655197  32.6674500  31.6564388
  27.6719971  31.6321068  31.5084476  28.4644032  31.2549725  32.0084114
  27.7423363  31.4645042  30.0237846  26.8139114  31.7877235  29.5529766
  28.8539467  32.4026451  29.4008007  29.8069038  31.8744011  29.4313259
  28.3490772  32.5504456  27.8988953  27.2772999  32.7153435  27.7884388
  28.9427013  33.3519173  27.4591751  28.5679436  31.6925011  27.2631874
  29.0298157  33.8064156  30.0724983  28.0974045  34.3505898  30.2227726
  29.4035587  33.7193298  31.0927124  30.1312389  34.7537308  29.4075375
  29.6922684  35.1661148  28.4990540  30.3414135  35.5076523  30.1661739
  30.9696293  34.0645561  29.3063564  27.7629795  30.0070457  29.5830498
  28.4693184  29.2031593  30.2248726  26.9843159  29.6882782  28.5105019
  26.3327503  30.3711815  28.1510506  26.9355831  28.3179512  27.9230633
  27.6434650  27.7210007  28.4980907  25.5004635  27.6608105  28.0105362
  24.7754230  28.3289204  27.5457325  25.4060078  26.8696175  27.2667694
  24.9833355  27.0435772  29.3369446  25.0677986  27.7161179  30.1905575
  23.9177742  26.8405590  29.2298813  25.7852993  25.7227001  29.6801910
  26.7658863  26.0689468  30.0067863  25.3223190  25.2338066  30.5373554
  26.0247498  24.8479233  28.4229679  26.9081516  24.9884605  27.9539680
  25.1529388  23.9406242  27.8764744  24.0647144  23.4793034  28.3791561
  23.5458546  23.9829426  29.0843029  23.4937878  22.8804836  27.7998810
  25.6664696  23.2766438  26.8845882  25.0791111  22.6360207  26.3700867
  26.5004616  23.6443577  26.4494495  27.5013180  28.1931381  26.4725800
  27.6696281  29.2121220  25.7580662  27.8039322  26.9565620  26.0370331
  28.1143417  26.2780323  26.7177258  27.7774429  26.6228771  24.6059837
  26.8525906  26.8366833  24.0702267  28.5446396  27.1159153  24.0089741
  27.9986420  25.1088676  24.4704609  28.3879509  24.3762379  25.4134960
  27.9308777  24.6788940  23.2051220  27.7673244  25.3457775  22.4644356
  28.3704357  23.2884407  22.7312622  29.1741199  22.9812927  23.4004803
  27.2515011  22.2601795  23.0155659  27.2476883  21.9648590  24.0647907
  26.3012657  22.6742287  22.6783409  27.3486786  21.3789692  22.3814335
  28.8443413  23.2649250  21.2443104  28.4906120  24.2459087  20.6027622
  29.5680561  22.2106285  20.7492733  29.6928501  21.4576855  21.4107895
  29.8987904  22.0850677  19.3408642  29.0816193  22.4732494  18.7328777
  31.2291107  22.7944603  19.0373726  31.0997868  23.8380890  19.3241005
  32.4685631  22.2674065  19.8122120  32.3506584  22.4699516  20.8767185
  32.5707436  21.1913128  19.6719189  33.3706207  22.8295822  19.5706558
  31.5347328  22.7050629  17.6601791  32.2256660  23.2613964  17.2931538
  29.9795303  20.6219521  18.9220924  29.8504391  19.7725220  19.7761955
  30.2016010  20.2125053  17.6852665  30.4660492  20.9165134  17.0110722
  30.3152885  18.7495098  17.2828293  30.6387157  18.2216377  18.1799622
  28.9755363  18.1310711  16.7045441  29.0506420  17.0451927  16.6468391
  27.7933178  18.5610523  17.6037846  26.8658333  18.0559464  17.3340874
  28.1279354  18.3928070  18.6274166  27.4736271  19.5949345  17.4734516
  28.5467892  18.6761837  15.4497690  28.9491100  18.1736946  14.7375584
  31.4217644  18.4477711  16.3006420  31.9396839  19.3127689  15.6654015
  31.8431301  17.1924019  16.2920799  31.4658127  16.5433311  16.9676838
  33.0068626  16.6328087  15.4923229  33.2680130  17.2980633  14.6693153
  34.2785454  16.3618832  16.3894405  35.0837555  15.9378796  15.7894716
  34.8849869  17.6770306  16.9883213  35.1807442  18.3615360  16.1932926
  34.1323967  18.2527771  17.5270481  35.7393761  17.4185200  17.6138573
  34.0011406  15.4133425  17.5545425  34.8793182  15.2969389  18.1896496
  33.1444473  15.5338306  18.2176132  33.9916534  14.4184790  17.1092834
  32.5549355  15.3198996  14.7922201  31.7527351  14.5509872  15.4088936
  33.0512428  15.1008291  13.5855932  33.6911011  15.7522869  13.1539841
  32.6323242  13.8599091  12.8713427  31.6112003  13.5724421  13.1218758
  32.5683823  14.0206995  11.3461323  33.5640259  14.0197744  10.9025173
  32.1428909  13.1220503  10.8994846  31.8232174  15.2081661  10.8143034
  32.0935936  16.1481628  11.2953491  32.0116730  15.3773413   9.7541323
  30.3249607  14.8754578  11.0020666  29.5990429  14.3760738  10.0789433
  29.7747231  14.9659491  12.1041422  33.5976677  12.6339922  13.1824188
  33.5168381  11.5738840  12.5684195  34.5273933  12.8309755  14.1716213
  34.6135254  13.6843414  14.7049589  35.5262833  11.8440256  14.6326838
  35.1165009  10.8341570  14.6141148  36.7115211  11.7706766  13.5876741
  37.5375214  11.2171717  14.0342779  36.2670746  11.1995697  12.7725649
  37.1758652  13.0829172  12.9910088  36.3584213  13.7413826  12.6972218
  37.6699219  13.6628199  13.7705736  38.3053131  12.9196539  11.9372120
  39.1405296  12.4951372  12.4942532  37.9617081  12.1219854  11.2786055
  38.5688782  14.1281843  11.2162533  39.3162270  14.7189665  11.5517311
  37.8600426  14.6197844  10.2111197  36.8306961  14.0501680   9.6214695
  36.2756310  14.6045036   8.9852982  36.4476204  13.1803665   9.9632254
  38.1008072  15.8917227   9.8892717  37.4555016  16.4128151   9.3129549
  38.7800102  16.4265137  10.4115591  36.2116623  12.0971117  16.0573921
  36.4079475  13.2534208  16.4390202  36.5837898  11.0361338  16.7818012
  36.2545700  10.1675148  16.3852978  37.2278442  10.9734917  18.1154366
  36.6922760  11.6965408  18.7306328  36.9538879   9.5751028  18.6763573
  35.9189606   9.2387209  18.6141319  37.5007362   8.8376617  18.0887833
  37.4730339   9.3822165  20.1766148  37.6904373  10.4043646  20.8855553
  37.6465645   8.2215128  20.5872192  38.7598000  11.2655029  18.0976734
  39.5578728  10.3565369  18.3784580  39.1040611  12.3824711  17.5463943
  38.3444672  13.0407152  17.4472370  40.5188675  12.8486528  17.4151764
  41.0580711  12.1297731  18.0320816  41.1222343  12.6151676  16.0276756
  41.0119934  11.5648146  15.7580338  40.4838295  13.4296207  14.8886013
  39.4034119  13.2958212  14.8347597  40.6958313  14.4983482  14.9198875
  40.9141884  13.0956182  13.9444962  42.5140800  12.9578085  16.1175957
  42.9369583  12.9507265  15.2557812  40.8193398  14.1772051  18.0149193
  39.9808578  15.1099806  17.8434563  42.0553894  14.3392506  18.6113567
  42.7504539  13.6375513  18.4001598  42.5052109  15.5680017  19.2983513
  41.9236984  15.9032202  20.1571712  43.9550629  15.1778154  19.8237953
  43.8811569  14.4004784  20.5843105  44.4738159  14.8288393  18.9309292
  44.7873039  16.3372974  20.4018364  45.0303040  17.0266304  19.5932121
  44.0833893  16.8086090  21.0877457  45.9701920  15.8647318  21.2697830
  46.4469681  14.7071047  21.2619781  46.5609550  16.7422562  21.9628830
  42.6034203  16.7538757  18.3265171  42.0440140  17.8044281  18.6555843
  43.1342545  16.6204815  17.1004086  43.5286751  15.7323694  16.8251133
  43.0533791  17.7070923  16.1042767  43.4504204  18.5841122  16.6154461
  44.0372543  17.4771709  14.9075956  43.8693542  18.4467182  14.4386740
  45.0447159  17.4013577  15.3167048  43.7333488  16.3136272  13.9754438
  42.6657715  16.1763992  13.8035412  44.1839333  16.5809841  13.0196218
  44.2800255  14.9783087  14.4327326  43.8759689  13.9558649  13.7987728
  45.1636086  14.9202518  15.2742081  41.6147766  18.1438961  15.7123060
  41.5355186  19.0865231  14.9437160  40.5086975  17.4143906  16.0527935
  40.5890808  16.5810089  16.6176949  39.1089745  17.9047546  15.8340254
  39.1448021  18.8236713  15.2488670  38.3647995  16.7973900  15.1023293
  38.4773674  15.9005661  15.7115374  37.3071327  17.0317059  14.9817362
  38.9751167  16.5428257  13.7227602  40.0408287  16.3255749  13.7946148
  38.6552353  15.5717478  13.3448944  38.6991043  17.6294479  12.6753941
  37.7932739  18.4210510  12.9408321  39.4596329  17.6668339  11.6883936
  38.4676437  18.3161640  17.1648788  37.9737434  19.3911743  17.1998348
  38.3963432  17.3950386  18.1932964  38.9022789  16.5310764  18.0602665
  37.7764244  17.7351017  19.5229321  36.7033157  17.8638763  19.3816681
  38.0070610  16.5053253  20.4166679  39.0934525  16.4177341  20.4303303
  37.6616898  16.9038811  21.8510475  36.7230225  17.4560528  21.8970642
  37.5598602  16.0651455  22.5397091  38.4596977  17.5173492  22.2693100
  37.3589096  15.1208086  19.9627876  36.3283272  15.0008469  20.2968750
  37.4115257  15.0240192  18.8783684  38.0961380  13.9603882  20.5769310
  38.2610207  14.0768442  21.6480732  37.4940681  13.0848398  20.3339729
  39.0895424  13.9822721  20.1288490  38.3833466  19.0785904  20.0896244
  37.6070518  19.9967575  20.3289280  39.7401047  19.2544632  20.1177158
  40.2990570  18.5578804  19.6460781  40.2839737  20.4911442  20.5615444
  39.7946815  20.7643414  21.4964523  41.7519226  20.3760643  20.8401890
  42.1646805  20.0907421  19.8725510  42.1164665  21.3819733  21.0484238
  42.2466812  19.3569260  21.8585949  42.1964378  18.4126835  21.3163834
  43.7330704  19.4027462  22.2571621  43.9227524  18.5274200  22.8783932
  44.2985573  19.2488403  21.3381214  44.0165558  20.3104515  22.7898979
  41.5265236  19.2405090  23.2188683  41.6874962  20.1716537  23.7621517
  40.4741287  19.0531979  23.0056076  41.9884605  18.3515015  23.6482697
  40.0386162  21.6017838  19.6218700  39.5200195  22.5760555  20.0979156
  40.2539902  21.5305958  18.3122196  40.7860451  20.7438469  17.9686432
  40.0217628  22.6843510  17.3715611  40.6868935  23.4735184  17.7221565
  40.3327980  22.2087975  15.9544716  40.1824112  21.1294708  15.9777241
  39.7007790  22.6690350  15.1949759  41.7891273  22.5223522  15.5780602
  42.1514854  21.8266144  14.8212595  41.8573074  23.5250111  15.1560068
  42.8205528  22.4102001  16.7184296  43.1776237  21.3252468  17.2375660
  43.2764854  23.5328979  17.1125889  42.9789162  24.4136505  16.7178364
  43.8339920  23.5048218  17.9543133  38.5679169  23.2780991  17.4547882
  38.3695564  24.4931335  17.5803204  37.5828514  22.3185043  17.6448574
  37.9054718  21.3826275  17.4444866  36.1317139  22.6517086  17.8128242
  35.7557602  23.4049568  17.1204548  35.2921371  21.3665409  17.7274208
  35.7917099  20.4401817  18.0109463  34.5250435  21.4496326  18.4973297
  34.6019135  21.1493530  16.3563347  34.0868454  20.1893024  16.3231106
  33.8453293  21.9288483  16.4461422  35.6042366  21.1075153  15.2373161
  36.0397530  22.0957565  15.0896368  36.4651947  20.4670753  15.4288731
  34.8662529  20.5977345  14.0249128  34.3155975  19.7085819  14.3319798
  34.1196022  21.3170280  13.6884127  35.7859726  20.3786926  12.8658772
  35.3350220  20.0853691  12.0110645  36.3665581  21.1872578  12.6948595
  36.4200706  19.6107121  13.0338774  36.0664940  23.3191395  19.1940556
  35.5275230  24.4400024  19.2562962  36.7170906  22.8071537  20.1930580
  37.4234161  22.1110210  20.0017223  36.7057610  23.4205532  21.5149288
  35.6642113  23.6453152  21.7446213  37.2275810  22.4697781  22.5852737
  38.3003006  22.3961716  22.4064808  37.0449600  22.8963337  24.0477829
  35.9730186  22.8990421  24.2453346  37.5715103  22.2422791  24.7428055
  37.4272003  23.9161167  24.0929012  36.7087440  21.1659794  22.4663830
  36.9749336  20.8327675  21.6063175  37.3456573  24.7748795  21.5228901
  36.8163071  25.6678905  22.1580315  38.5075989  24.9523506  20.9367657
  38.9141235  24.2516365  20.3335762  39.1973038  26.2875633  20.9486084
  39.2375450  26.6394749  21.9794521  40.5873871  26.1173744  20.3338890
  41.1436501  25.3798351  20.9124298  40.4876442  25.8161545  19.2910957
  41.4334221  27.3870201  20.3324871  41.0646515  28.0672340  19.5647526
  41.2866554  27.9062328  21.2795753  42.8867569  27.1856918  19.9388027
  43.4398422  26.6464901  20.7078667  42.9855576  26.6780224  18.9793186
  43.6073952  28.5586815  19.8554592  43.5072556  29.1562347  20.7615509
  44.6820793  28.3773193  19.8390636  43.1745834  29.3745899  18.7135925
  42.4041138  29.9550171  19.0128880  43.9389343  29.9610596  18.4104042
  42.9707222  28.8274746  17.8894520  38.3900986  27.3284092  20.1616383
  38.1717987  28.4107323  20.7226353  37.7973557  26.9588165  18.9916210
  37.8647919  25.9796200  18.7534485  36.8040619  27.7566414  18.2144432
  37.1815300  28.7075596  17.8384457  36.3354988  27.0706711  16.9537201
  35.9133606  26.1271553  17.2996693  35.4393272  27.6104202  16.6476803
  37.3670502  26.7322903  15.8465500  37.4278984  27.6003361  15.1901226
  38.3614578  26.5744820  16.2641106  37.0572548  25.5450687  14.9803247
  35.9298096  25.1575241  14.8571081  37.9841423  25.0800705  14.2796488
  37.7990417  24.2085648  13.8039198  38.8325768  25.6278744  14.2665834
  35.5727921  28.2062683  19.0380764  35.1602745  29.3868046  19.0514431
  34.9324684  27.2185326  19.7320042  35.2265053  26.2735233  19.5305099
  33.7641373  27.4077911  20.6275349  33.0406952  27.8796768  19.9626617
  33.2193222  25.9965172  21.0310116  32.8099594  25.5235558  20.1383610
  34.0304184  25.3464279  21.3590412  32.1443367  26.0444183  22.1186218
  32.6209908  26.5134907  22.9793644  30.9132061  26.7278633  21.4356117
  30.1045284  26.7965431  22.1632347  31.1770039  27.7519817  21.1716156
  30.4550571  26.2358646  20.5776272  31.7458248  24.6855545  22.5650845
  31.0658169  24.3067436  21.8020744  32.5751724  24.0567398  22.8889256
  31.1883507  24.7283154  23.5007629  33.9440689  28.4680653  21.7106953
  33.2284241  29.4551792  21.8097229  34.9347076  28.1059151  22.5379181
  35.2619324  27.1629219  22.3836823  35.4986992  28.9493332  23.5476151
  34.7913475  28.9812412  24.3763084  36.8354721  28.3948326  24.1818371
  37.5131721  28.1331406  23.3692245  37.3547440  29.1748333  24.7386627
  36.6142578  27.0844345  25.0154209  35.8554306  26.3967686  24.6420650
  38.0494423  26.3946819  25.0692863  38.2770233  26.2642822  24.0113106
  38.7591667  27.1107063  25.4836540  38.0772476  25.4854202  25.6697598
  36.3510590  27.4035568  26.4500809  36.4933815  26.4288826  26.9168243
  37.0198174  28.1405163  26.8947773  35.2973404  27.6667767  26.5422287
  35.7905121  30.3374729  22.9027309  35.3871727  31.3657379  23.4488487
  36.5405731  30.4403820  21.8369999  37.0281105  29.6460876  21.4477596
  36.8402481  31.8034649  21.3338490  37.3351784  32.2924881  22.1729031
  37.8504219  31.6492138  20.1474724  37.5311470  30.9173717  19.4054680
  38.0228004  32.5842209  19.6144180  39.2585526  31.3527756  20.7293091
  39.6905708  32.2634315  21.1442432  39.1943817  30.5633240  21.4781418
  40.2052078  30.8385601  19.6472855  41.4026794  31.0202847  19.8882198
  39.8559074  30.2001915  18.5919170  35.6708679  32.5426865  20.8278122
  35.6957436  33.7434578  20.9377270  34.6224365  31.9102535  20.2365952
  34.6092186  30.9089108  20.1053123  33.4051971  32.6971741  19.8058758
  33.7834206  33.6410179  19.4131908  32.7859459  31.8337917  18.7241058
  33.5680466  31.5591164  18.0163136  32.4978752  30.8705044  19.1450520
  31.5605087  32.5037041  18.0255680  30.9689484  31.7800179  17.4648209
  30.8555946  32.8945999  18.7593250  31.9179783  33.6436615  17.0796986
  31.1097603  33.8457489  16.3768158  32.1099930  34.5027351  17.7225246
  33.1607933  33.3097191  16.1970882  34.0169411  33.1469078  16.8517704
  32.7989769  32.4001160  15.7177019  33.4692307  34.4636574  15.2888031
  33.9911919  35.1180077  15.8540287  34.1350479  34.1611748  14.5921688
  32.6127586  34.7734184  14.8522167  32.4803581  33.0484734  20.9938545
  31.9916229  34.1614838  20.9121437  32.4889832  32.3109436  22.0913792
  33.1549950  31.5516663  22.0964279  31.9915524  32.8416519  23.4430695
  31.0111618  33.2533913  23.2034779  31.9311485  31.7244072  24.4718227
  32.9298134  31.2891636  24.5083275  31.6269550  32.1974564  25.8892536
  31.5095959  31.3426991  26.5553722  32.4741058  32.8160477  26.1855106
  30.6763821  32.7272377  25.9512596  30.9761047  30.5803356  24.1566257
  29.9083691  30.7270756  24.3194427  31.1194420  30.4669437  23.0820580
  31.2609425  29.2861614  24.8499241  30.5627060  29.2152634  25.6839123
  31.1624126  28.3917732  24.2347298  32.2384567  29.3021564  25.3319111
  32.8487129  34.0203400  23.9645271  32.2618790  35.0013351  24.3720741
  34.1721687  33.9645920  23.8032227  34.6460838  33.1053162  23.5641594
  35.0610046  34.9164619  24.3283329  34.8857536  35.3161049  25.3271694
  36.5380020  34.4412308  24.2519341  36.7772026  34.0629501  23.2580528
  37.6069641  35.5170822  24.3426476  38.6146393  35.1157722  24.4505177
  37.6224327  36.1315842  23.4425087  37.3212090  36.1547127  25.1792355
  36.7370605  33.4170647  25.3971977  36.8515282  34.0412941  26.2833900
  35.9381638  32.6798363  25.3174858  38.0456238  32.5159683  25.3964100
  37.9193039  31.7031136  24.6812763  39.0024376  32.9960823  25.1912231
  38.1743851  32.1243019  26.4054279  34.9543762  36.2174911  23.5301399
  34.7622566  37.2968559  24.0889454  34.9991913  36.1911545  22.2498779
  35.2021179  35.2606239  21.9136753  34.6592522  37.2811203  21.3197975
  35.3739319  38.0973396  21.4252586  34.8681450  36.7461128  19.8585663
  35.8928490  36.3893471  19.7546310  34.2391739  35.8743935  19.6780109
  34.6353531  37.7402763  18.6754265  33.7434883  38.3072891  18.9422112
  35.4044113  38.5126114  18.6632729  34.3609734  37.0584602  17.3494930
  35.0146370  36.0361023  17.0364304  33.4716110  37.5127106  16.6030998
  33.2512703  37.8635254  21.4165897  32.9840889  39.0902748  21.4617958
  32.2165527  37.0624580  21.4819546  32.3656807  36.0643730  21.5229492
  30.7984982  37.4953995  21.5592461  30.6441746  38.2257156  20.7649384
  29.8144302  36.3410568  21.3120537  30.2325726  35.5022736  21.8685589
  28.9200478  36.6976471  21.8229618  29.6630363  35.9458656  19.8391094
  30.6152153  35.6105347  19.4280033  28.9869194  35.0922813  19.7904987
  29.1234035  37.0209351  18.8846245  29.7259636  37.2162895  17.7885456
  28.0266685  37.5773392  19.1339340  30.4858685  38.0763206  22.9555168
  29.6180286  38.9955330  22.8878174  31.2046242  37.7419319  24.0403938
  31.9399529  37.0594521  23.9237251  30.8358440  38.2062149  25.3661327
  30.0567284  38.9604034  25.2553291  30.4910297  37.0865974  26.3320866
  31.3451252  36.4136620  26.4081039  30.3116684  37.4460068  27.3453770
  29.2326889  36.2977257  25.9674454  28.1279354  36.5417557  26.4954033
  29.3724022  35.2319412  25.2336063  28.6320686  34.5481987  25.1665096
  30.2739201  34.9409561  24.8833179  32.0276031  39.0657005  25.9477673
  31.9967384  39.4761963  27.1195221  33.0119171  39.3923836  25.1270924
  32.9943314  39.0061455  24.1940250  34.1186371  40.3413658  25.4168720
  34.7391129  40.3796806  24.5215244  33.4939461  41.7517815  25.5606022
  32.9504662  41.8235054  26.5027199  34.2430763  42.5433998  25.5763988
  32.5724449  42.1660690  24.4325027  31.2588978  42.5228615  24.5441628
  30.7266273  42.5750313  25.4009399  30.8975430  43.0685921  23.3754158
  30.0192451  43.6772499  23.2187881  31.8424549  42.7536697  22.5126629
  31.6840286  42.8199921  21.5173721  33.0286789  42.3998756  23.1559410
  34.0137672  42.2125893  22.7547798  34.9804535  39.9660797  26.6321125
  35.5136108  40.8268433  27.2686062  34.9885483  38.6970940  26.9897423
  34.5165901  38.0501518  26.3742485  35.5015411  38.1907349  28.2432365
  35.2225418  38.8459396  29.0684471  34.9150124  36.7537880  28.5440865
  35.5122490  36.0279770  27.9921780  34.9671326  36.4352379  30.0415154
  34.3886299  35.5394516  30.2673378  35.8816719  36.0806618  30.5169067
  34.5409088  37.2136765  30.6743431  33.5235825  36.7540283  28.0388126
  33.0240135  37.3129539  28.6385059  37.0066414  38.0832901  28.3208389
  37.6699944  37.9112473  27.3231983  37.6103783  38.1490707  29.5038052
  37.0490837  38.3432808  30.3207054  39.0626869  37.9615097  29.8878212
  39.6186600  37.6313057  29.0103436  39.7006454  39.3298531  30.3284035
  40.7368889  39.1082458  30.5837288  39.5961800  39.9969444  29.4727325
  39.0600700  39.9839935  31.5560551  38.0544167  40.3114243  31.2923222
  39.0457382  39.2155266  32.3289452  39.9794884  41.1188469  31.9929714
  40.7902031  40.7648430  32.6297798  40.4686737  41.5764084  31.1330662
  39.2272987  42.3592987  32.6079521  40.0242920  43.0278854  32.9333687
  38.5931206  42.9279594  31.9278488  38.4634018  42.1103363  33.8400955
  38.0344963  42.9419708  34.2202644  37.8445358  41.3408165  33.6280823
  38.9367676  41.7602768  34.6607552  39.1830215  36.9580994  31.0863190
  38.3216591  36.9155769  31.9099064  40.2272377  36.0838165  31.1987057
  41.4104538  36.1146011  30.3055687  41.8368683  37.1177292  30.3036842
  41.1614227  35.7983170  29.2926273  42.3323097  35.1160316  30.9410114
  42.9599342  35.6834946  31.6281624  42.9254684  34.6507187  30.1537704
  41.4804649  34.1425781  31.7622948  42.0461006  33.9385262  32.6714249
  41.2590141  33.1843071  31.2924252  40.1417122  34.8913422  32.0504608
  39.2539597  34.3017654  31.8215618  39.9663277  35.3125458  33.5288658
  39.3508034  34.5878258  34.3063316  40.4730453  36.5111008  33.9007072
  41.0950241  37.0584488  33.3230820  40.2488022  37.1352463  35.2468452
  40.6080513  36.3502502  35.9122963  41.1260262  38.3843994  35.4442978
  42.1718483  38.1145706  35.2975082  41.0330887  39.1698456  34.6942749
  40.9935112  38.9873772  36.8630676  40.8759422  38.1886177  37.5953636
  41.9379845  39.5255890  36.9431000  39.9377403  40.0974464  37.0786896
  39.5678139  40.8543205  36.1257019  39.5633278  40.4294853  38.2179489
  38.7794189  37.3731346  35.6292877  38.4038391  37.4767227  36.8048363
  37.8710670  37.5422783  34.6496620  38.2234650  37.3787460  33.7173691
  36.4212265  37.4902840  34.9305649  36.0815086  38.1871147  35.6968040
  35.6446152  37.8096466  33.6139565  35.6215096  36.9501648  32.9439888
  34.5910263  37.9410667  33.8605042  36.1610603  39.1333389  32.9504623
  36.7920761  39.9522476  33.6639099  35.6884918  39.5283279  31.8193130
  35.9322929  36.1343193  35.4292603  34.8862877  36.1099625  36.0542488
  36.6150627  35.0223846  34.9812279  37.5447998  35.1873512  34.6227913
  36.0997200  33.6528549  35.0313225  35.0476646  33.7486420  34.7628021
  36.6047134  32.7377396  33.8580856  37.6902504  32.6520576  33.9068069
  35.9480896  31.4165878  33.9636116  36.2744980  30.8422318  33.0966225
  36.4628220  30.9001560  34.7738266  34.8609428  31.3494091  34.0048981
  36.4108162  33.4480858  32.4902954  37.2557373  34.0889244  32.2382545
  36.2596092  32.7143707  31.6985245  35.4805450  34.0130005  32.5500336
  36.2408485  33.0697556  36.4483490  37.3286400  32.8901634  37.0024643
  35.1064682  32.8490601  37.1244850  34.2339211  33.0155258  36.6438103
  34.9906349  32.2762375  38.4695244  35.6246834  32.7863922  39.1946640
  33.5392075  32.3062019  38.8765640  32.9530067  31.7272911  38.1628876
  33.3457947  31.4990997  40.1632538  32.3874359  31.5887318  40.6747437
  33.5412102  30.4529324  39.9277916  34.1944008  31.7512360  40.7991753
  33.0067673  33.7525711  39.0693092  32.6794472  34.3001060  38.1854668
  32.1078453  33.7536545  39.6857872  33.7115631  34.4158440  39.5707321
  35.4797325  30.8117046  38.4253998  36.3275490  30.4862404  39.2675705
  34.9629021  30.0181313  37.4194183  34.3342171  30.5153542  36.8049126
  35.2408905  28.6218872  36.9792709  36.3105774  28.5056267  36.8050575
  34.8528748  27.7189293  38.2105370  35.2327271  26.7264404  37.9680939
  35.4408722  28.0817375  39.0535889  33.3690796  27.6234093  38.5348701
  32.8355865  28.5394592  38.2812157  32.7571373  26.8970642  38.0000267
  33.1026344  27.3135815  40.0103607  33.7847481  27.7251778  40.9852142
  32.0310478  26.5229473  40.2385826  31.8276749  26.2437077  41.1876717
  31.5046978  26.0909901  39.4926109  34.5569382  28.2451344  35.7251930
  33.5514374  28.7303429  35.3892250  35.1113853  27.2385921  35.0134811
  35.8166656  26.7073975  35.5039024  34.6366768  26.6848278  33.7848396
  33.6523094  27.1059608  33.5804558  35.6157799  27.0976105  32.7062378
  35.7193985  28.1819935  32.7446480  36.5966263  26.6694794  32.9129791
  35.2018661  26.6571712  31.3043480  35.1800461  25.5688152  31.2486305
  34.2153435  27.0189724  31.0145779  36.5349350  27.0553989  30.1197052
  36.5978127  28.8775234  30.0786915  36.3485985  29.1584358  29.0554161
  35.8930817  29.1777363  30.8541431  37.5800591  29.1237926  30.4819851
  34.5980339  25.1587811  33.9984703  35.3713799  24.6144753  34.7392159
  33.5942993  24.5667782  33.3583832  33.0418701  25.2342319  32.8393173
  33.2327843  23.0989761  33.2593803  34.0396385  22.5179348  33.7060089
  31.8933125  22.7009640  34.0071793  31.0634174  23.2594604  33.5742188
  31.7384033  21.6429253  33.7958603  32.0393829  22.8087883  35.5045662
  32.3475418  23.8147545  35.7894745  30.7159672  22.5220680  36.1650658
  30.8187275  22.3868046  37.2417450  30.0287285  23.3331928  35.9244804
  30.3508530  21.5946102  35.7239151  33.0972672  21.8034401  35.9451180
  32.8728638  20.8168926  35.5395813  34.1162872  22.1411457  35.7562943
  33.1070175  21.7057838  37.0306892  33.1780281  22.7023945  31.7337284
  32.4945374  23.3732243  30.9617252  33.8148575  21.5884209  31.3331032
  34.4130363  21.1443806  32.0150948  33.6077423  20.9272175  29.9745598
  32.9624329  21.5323067  29.3377380  35.0078125  20.8018627  29.3140106
  35.6135178  20.1641750  29.9578896  35.0232925  20.2972298  28.3479862
  35.6143494  22.1188602  29.0721245  35.2403030  22.8741283  29.7633286
  37.1696129  22.2529202  29.1886234  37.3031502  23.2933254  29.4849796
  37.6437721  21.7688141  30.0423889  37.7293701  22.0075645  28.2860889
  35.3058319  22.6760559  27.6901913  34.2595215  22.9204121  27.5067863
  35.8445740  23.6179867  27.5871143  35.7379303  22.0653477  26.8974552
  32.9767761  19.5735474  30.2124977  33.2264557  18.9777241  31.2088451
  32.2934189  19.0811749  29.2096691  31.9922047  19.7987385  28.5658722
  31.9043236  17.6350288  28.9432774  32.6385231  17.0056076  29.4461536
  30.5143738  17.2576218  29.5293770  30.3990574  16.1828232  29.3893375
  30.5473862  17.5078068  30.5897617  29.5143547  17.9217815  28.7678642
  28.8488560  17.2377815  28.6636639  32.0651283  17.3144741  27.4871006
  32.0185585  18.1696968  26.5886269  32.1787758  16.0071659  27.2385292
  32.2119522  15.3318739  27.9888496  31.9312077  15.4364758  25.8963223
  31.4238625  16.1566658  25.2544289  33.2669106  15.1173573  25.3176708
  33.1596260  14.6530075  24.3373795  33.8020973  16.0486565  25.1323204
  33.7322922  14.3685646  25.9586296  31.1194057  14.1308508  25.9643764
  31.1290741  13.4660063  27.0065117  30.5200386  13.6592913  24.7873726
  30.5422840  14.2380333  23.9599304  29.4758568  12.6168318  24.7143784
  28.8682537  12.6213770  25.6193085  28.5952854  12.7679186  23.4410877
  27.9342327  11.9018955  23.4077168  27.7686024  14.0601768  23.4755077
  26.9444332  13.9473753  24.1798611  28.3773479  14.9474545  23.6494865
  27.3727512  14.2023935  22.4699345  29.4255619  12.8565035  22.2766132
  29.8503437  12.0245428  22.0552444  30.0758858  11.1646576  24.7041626
  31.2989426  11.0615416  24.4674263  29.3353157  10.1287231  25.1103802
  27.9119415  10.0485840  25.3992805  27.4036388  10.0306692  24.4352226
  27.5969124  10.9058638  25.9942017  27.7323895   8.8411703  26.2095699
  26.7812309   8.3207083  26.0976715  27.9250183   9.0023003  27.2702446
  28.7847672   7.9175839  25.6632195  28.3845024   7.4410176  24.7683582
  29.0306072   7.0474615  26.2719536  29.9933853   8.8530941  25.4764004
  30.5137768   8.9487772  26.4293633  30.9379101   8.2737608  24.3874760
  31.8308411   7.5325456  24.7109070  30.6111221   8.4277945  23.0558643
  29.7681961   8.9538660  22.8746834  31.4339943   8.0476837  21.8901176
  31.7601910   7.0099015  21.9587002  30.5067539   8.1848030  20.5978336
  30.9656391   7.9190955  19.6455097  29.6618576   7.5006843  20.6767960
  29.9105186   9.5688877  20.4710751  28.9036121   9.6233358  19.7267208
  30.3386402  10.5780592  21.0746155  32.7969322   8.6761541  21.6967716
  33.5986710   8.2834358  20.8785305  33.1149902   9.5992556  22.6048908
  32.3691978   9.7700319  23.2642288  34.3816795  10.4435863  22.5877762
  35.0348816  10.2511463  21.7366638  34.0152054  11.9631519  22.4617176
  33.2609482  12.1847591  23.2167568  34.9280701  12.5207520  22.6711712
  33.3607407  12.4342785  21.2063580  32.3583946  12.0323734  21.3542690
  33.1574783  14.0346193  21.0340405  32.2873726  14.1770658  21.6749229
  33.9744492  14.5662947  21.5218735  32.9120140  14.3950377  20.0350685
  34.0051231  12.0652189  19.8703957  33.9775658  10.9806576  19.7652245
  33.4659348  12.4618740  19.0101395  35.0006065  12.5083952  19.8969822
  35.2754288  10.1347094  23.7818775  34.8790436  10.2724218  24.9493427
  36.5651398   9.9532394  23.4932404  36.7857208  10.0011539  22.5087872
  37.5776367   9.4907370  24.4953880  37.3920288   9.9927664  25.4449234
  37.5772552   7.9607582  24.5819912  37.6612129   7.5160418  23.5903873
  38.4011040   7.5522237  25.1672020  36.3010216   7.3478332  25.1053467
  35.7625809   7.6857944  26.3664742  36.0840225   8.4010048  27.0030670
  34.6108971   7.0451288  26.4461842  33.9403763   7.1111908  27.2902451
  34.3359261   6.3654985  25.3631878  33.5056572   5.8076196  25.2234631
  35.4013863   6.4859133  24.5569401  35.5026245   6.0657434  23.5671883
  39.0340538   9.9134455  24.2847691  39.7986984   9.6862497  25.2172108
  39.4301643  10.4210358  23.1723442  38.8100090  10.3376427  22.3795300
  40.9384270  10.6711283  22.8221569  41.4936905   9.7335567  22.7948265
  40.9322052  11.1467190  21.3456764  40.3876038  12.0804186  21.2053051
  41.9751472  11.2710724  21.0542889  40.4118500  10.4197760  20.7220612
  41.6019974  11.6739740  23.6843452  42.7734756  11.6835985  23.9089794
  40.8174973  12.7266569  24.1549969  39.8440132  12.7756433  23.8903656
  41.4266205  13.8827133  24.7616081  42.2635612  13.5000725  25.3457489
  42.0652046  14.8255377  23.7342548  42.4845238  14.3171024  22.8660583
  40.9566307  15.7420931  23.1548519  40.0062141  15.2459698  22.9582233
  40.6795044  16.5054283  23.8819141  41.1924782  16.1088028  22.1558533
  43.2727013  15.6462812  24.1852970  43.5636711  16.3147526  23.3749962
  43.0035324  16.3160019  25.0020733  44.0445976  14.9178085  24.4334869
  40.4238396  14.5494070  25.7012157  39.1742859  14.6749907  25.4830761
  40.8793106  14.8931017  26.9178829  41.8728142  14.9170170  27.0980968
  40.1244659  15.8957195  27.6703568  39.1475792  15.4962807  27.9428177
  40.8453522  16.2730179  28.9398174  41.8637543  16.6116943  28.7494011
  40.2774773  17.1087952  29.3485928  40.9793625  15.2605085  29.9958611
  39.9033546  15.0601826  30.8504353  38.9767723  15.5571918  30.6038017
  39.9337006  14.0074501  31.8072319  39.1096611  13.8868818  32.4948616
  41.1040230  13.1647520  31.8531780  41.1890221  12.2976294  32.4913597
  42.1744041  13.3803177  31.0322418  43.1005821  12.8339691  31.1327114
  42.1479607  14.4125853  30.0734272  42.9608917  14.4577904  29.3638535
  39.9357872  17.1911850  26.8338108  40.9164391  17.7924194  26.3105621
  38.7794991  17.8567829  26.8583450  37.4582481  17.2640038  27.2102547
  37.2799187  17.3531914  28.2818642  37.4510460  16.2401390  26.8364201
  36.3898201  18.1762371  26.5084629  35.4830742  18.1058826  27.1092663
  36.2578430  17.7599277  25.5097809  37.1662331  19.5779343  26.4839268
  37.1075401  19.9576836  27.5039501  36.6984863  20.1763306  25.7021122
  38.5987434  19.2222843  26.2523174  38.7465935  19.2816677  25.1740227
  39.5177383  20.3516426  26.8957119  39.9010620  21.3753624  26.2576466
  39.8237114  20.2369690  28.1607304  39.4090004  19.6079903  28.8334160
  40.5904617  21.2821350  28.8243332  40.1089287  22.2600002  28.8210602
  40.6232376  20.9267998  30.2973957  41.3818321  21.5215397  30.8062344
  39.6339874  21.0232677  30.7448101  40.9315262  19.8813457  30.2878418
  41.9853210  21.5283165  28.2569637  42.6283417  22.5045509  28.5841656
  42.5566368  20.7086697  27.4013348  42.1823654  19.7705975  27.3946533
  43.8566589  21.0110569  26.7577229  44.5820465  21.3147984  27.5124779
  44.4131813  19.6721478  26.1859512  44.3172607  18.8872547  26.9361801
  43.7635689  19.3747120  25.3627644  45.8081589  19.5559940  25.6177483
  45.8934364  20.3098087  24.8350677  46.5091553  19.9627552  26.3466167
  46.2265511  18.1740704  25.3001328  45.9890823  17.5612526  26.1697102
  45.7176743  17.7621803  24.4286461  47.7322960  18.1072712  24.9896183
  48.0872459  19.0384445  24.5480003  48.3278847  18.2971516  25.8825474
  48.0880051  16.8858261  24.2684078  47.9579468  16.0164833  24.7658310
  47.4716835  16.7405777  23.4815445  49.0550423  16.8115635  23.9865780
  43.7371902  22.2424698  25.8395748  44.6706810  23.0421944  25.6603851
  42.5580940  22.4616165  25.2037830  41.8403893  21.7510490  25.1940384
  42.3513947  23.6175900  24.3696957  43.2780571  23.8513794  23.8455391
  41.2162552  23.4270649  23.3771038  40.2925110  23.4103107  23.9554691
  41.1502533  24.1384468  22.5538902  41.4350891  22.4303722  22.9939365
  42.1265221  24.9434757  25.1631699  42.0579033  25.9358864  24.4884377
  42.2270966  24.9694386  26.5021152  42.2001686  24.0678349  26.9565239
  42.1112061  26.1860294  27.3349457  41.4006004  26.8440075  26.8347359
  41.6184082  25.8170452  28.7333241  42.2409172  25.0982952  29.2662201
  41.5380592  27.1236649  29.5825024  40.8590889  27.7823582  29.0410023
  41.1540985  26.8504486  30.5653648  42.4850616  27.6619320  29.6219635
  40.1881523  25.2182674  28.8155346  40.0215378  24.5930958  27.9383278
  40.0627975  24.6887741  29.7600060  39.4962769  26.0577087  28.7466354
  43.5413208  26.8438873  27.4441319  43.7539024  28.0690861  27.4523048
  44.5798264  26.0099640  27.4049816  44.3534470  25.0291958  27.3216248
  46.0094185  26.2749844  27.4316864  46.1129189  27.0231438  28.2175922
  46.8128777  25.0668106  28.0111694  46.6564369  24.1722450  27.4083595
  47.8978310  25.1682587  28.0372257  46.3981323  24.8098297  29.4374294
  46.4138870  25.6392422  30.1444836  45.3618622  24.4721470  29.4524612
  47.3181610  23.7411022  30.1269913  48.3610687  24.0178051  29.9724503
  47.1189384  23.7388935  31.1986275  47.2019997  22.3919353  29.5646477
  47.8562393  22.1284332  28.8417110  46.1885300  21.5856705  29.7838631
  45.0707626  21.7915077  30.4391136  44.5070992  20.9814568  30.6540718
  44.7809219  22.6871433  30.8050766  46.2633286  20.3361473  29.4454250
  45.5541039  19.6786251  29.7365685  47.0437584  19.9210186  28.9568558
  46.6769104  26.9135532  26.1514759  47.8009262  27.3132267  26.1371536
  45.8747292  26.9631405  25.0851307  44.9778976  26.5062447  25.1690865
  46.1363182  27.6571846  23.7982044  47.1956367  27.5743504  23.5551319
  45.2237968  26.9801178  22.7294121  44.1871338  27.2139339  22.9718189
  45.4498253  27.3907661  21.7453499  45.3907585  25.3755417  22.7135067
  45.1794815  24.9867687  23.7096577  44.6366005  24.9462414  22.0539265
  46.8085632  24.9942322  22.3100338  47.3325386  23.9443932  22.6996098
  47.4407463  25.7909470  21.5611897  45.8905945  29.1513157  23.7628632
  46.1615486  29.8237972  22.8118095  45.3831558  29.6611862  24.9134026
  45.2780609  28.9638748  25.6364594  44.9507408  31.0710754  25.1512928
  45.1925926  31.5758228  24.2159653  43.3775749  30.9797859  25.3899117
  43.2195358  30.5979195  26.3985252  43.0184593  32.0088921  25.3986969
  42.5798683  30.1398315  24.3616180  42.9606934  29.1222420  24.2745590
  41.1442413  29.9832191  24.8005714  40.6687584  30.9165897  25.1019554
  40.5587616  29.5446129  23.9925251  40.9818039  29.3685665  25.6859608
  42.4395866  30.7823849  22.9926472  43.4417686  30.7763157  22.5640583
  41.7440529  30.1819477  22.4062977  42.0064964  31.7820988  23.0258579
  45.7107697  31.5989704  26.3332005  46.0905228  30.8963432  27.2788105
  46.0339546  32.8465157  26.2846127  45.7067261  33.3350182  25.4634018
  47.1437263  33.3408623  27.1388836  47.9182510  32.5886993  27.2887745
  48.0215683  34.3656464  26.3461990  48.4337959  33.8571129  25.4746685
  47.4681740  35.2492332  26.0281849  49.0609322  34.7114372  27.1748428
  49.8605843  34.3175240  26.8184891  46.6135483  33.8475075  28.4987297
  45.7071037  34.6482773  28.4515343  47.1752052  33.5056229  29.6323624
  47.8407707  32.7528114  29.5304012  46.5475769  33.6996536  30.9223289
  47.3223267  33.6592789  31.6879845  46.0546913  34.6717110  30.9392109
  45.3492241  32.7766991  31.3317432  45.1039925  32.6462555  32.5243454
  44.7014809  32.1088905  30.3724976  44.8668900  32.2697945  29.3892117
  43.5902443  31.1925392  30.6063671  42.8575783  31.8309708  31.1000290
  43.0436935  30.7862720  29.2382145  43.9024925  30.5395489  28.6139660
  42.4378853  29.8909092  29.3775940  42.2325363  31.9144230  28.6237774
  42.6217957  33.0367470  27.9719410  43.6683693  33.2334824  27.7919922
  41.6083870  33.8052101  27.6861668  41.6997757  34.6935997  27.2144527
  40.4788513  33.4263000  28.2962971  39.1899834  34.0184593  28.4069386
  38.9034386  34.9516640  27.9449635  38.1686211  33.2037354  28.9177094
  37.1551933  33.5709610  28.9849262  38.4137192  31.9627209  29.4337482
  37.5808907  31.3546371  29.7547321  39.7073708  31.4232502  29.4069672
  39.9225082  30.4707832  29.8684044  40.8078804  32.1558342  28.8773708
  43.9069901  30.0249958  31.5220833  43.0198250  29.3394928  32.0101395
  45.2483788  29.7417126  31.7426510  46.0183983  30.1571903  31.2381229
  45.7443810  28.6181526  32.5455170  45.2142563  27.6759796  32.4063148
  47.2508850  28.3675060  32.3298187  47.4018631  27.4744740  32.9362831
  47.3625107  28.1085091  31.2769318  48.1531448  29.5049076  32.6692390
  48.0369720  30.3918724  32.0464211  47.8404732  29.8814831  33.6431618
  49.6467400  29.2396603  32.6177025  50.1958809  28.1913338  32.2617111
  50.4645691  30.2264709  32.8539619  51.4192238  30.1462440  32.5341148
  50.1503944  31.0684662  33.3148727  45.4761314  28.9935780  34.0627823
  45.6899567  28.1230640  34.9398727  45.1035080  30.2271271  34.3668289
  44.9336128  30.8083515  33.5584869  44.7197647  30.5889053  35.7315369
  45.3252258  29.9617558  36.3859100  45.1289940  32.0533409  36.0065308
  44.5381012  32.7761803  35.4439888  44.9925613  32.2397423  37.0717735
  46.5880814  32.3503876  35.7161407  47.5949554  31.5641861  36.2514534
  47.2054138  30.7795658  36.8831406  48.9470978  31.8948154  36.0238190
  49.7691994  31.3049450  36.4014473  49.2736092  32.9841805  35.1278877
  50.5242119  33.1148491  34.6446037  50.7825890  34.0069237  34.8875885
  48.2470703  33.7599945  34.5799179  48.4264946  34.5617561  33.8789253
  46.8803902  33.5017929  34.9458199  46.0350151  34.0789452  34.6013756
  43.2806816  30.4611034  36.0947418  42.9828300  30.2899704  37.2923508
  42.4281807  30.3812466  35.0166016  42.7699165  30.6014824  34.0920410
  41.0615425  29.8700008  35.1958313  40.4683876  30.4437103  35.9079628
  40.2928238  29.8544579  33.8596535  40.8813705  29.2372360  33.1808662
  38.8910103  29.3051071  33.9602966  38.9093170  28.2185860  34.0454025
  38.3717041  29.6922932  34.8369446  38.4189949  29.4800930  32.9935074
  40.2441025  31.2281399  33.1592865  40.0244102  31.9942131  33.9029045
  41.2596550  31.4856224  32.8585320  39.5678940  31.3122730  32.3085442
  40.9938698  28.4429932  35.7426643  41.4291153  27.5028934  35.0318794
  40.3543243  28.1321106  36.9048195  39.7469711  29.0155315  37.7876129
  39.1326447  29.7830944  37.3169174  40.5816917  29.5661411  38.2213936
  39.0048676  28.1091976  38.7733154  37.9563026  28.0105228  38.4924660
  39.0241165  28.5346909  39.7766533  39.7286720  26.7729549  38.6740417
  39.1068382  25.9345665  38.9879341  40.5815468  26.8333492  39.3501015
  40.1485710  26.7070141  37.2315559  41.0963058  26.1685925  37.2325821
  39.1297569  25.9604530  36.4041634  38.0626373  26.4043999  36.1496391
  39.5207558  24.8052425  35.8182602  40.4285469  24.4512997  36.0842400
  38.6008530  23.9013500  35.0132484  37.5887566  24.2973137  35.0967636
  38.8653107  24.0966225  33.5751190  38.6128883  25.1429482  33.4030952
  40.2880325  23.9005470  33.1793785  40.5281754  22.8645420  33.4183846
  40.4986191  24.0030804  32.1148415  40.8586655  24.6610718  33.7123795
  37.9273415  23.2615566  32.6428757  38.0270348  22.2132950  32.9245033
  36.9252930  23.5796642  32.9306259  38.0656090  23.5490265  31.6005955
  38.6513290  22.3745689  35.4857025  39.6770363  21.9842453  35.9971848
  37.5594673  21.6559353  35.3315620  36.7203789  22.1205349  35.0150337
  37.4785080  20.2182121  35.2832069  38.5154228  19.9681149  35.0587997
  37.3652115  19.6985035  36.6993561  37.9718170  20.4344788  37.2270622
  35.9769821  19.6083775  37.2744675  35.6312370  20.6050911  37.5485268
  35.2606850  19.0034389  36.7185326  36.0908546  19.1415844  38.2528534
  37.9323044  18.3934460  36.8118248  37.5290833  17.7967491  36.1770248
  36.5078011  19.5851479  34.3004227  35.6440697  20.4072895  33.8807297
  36.7025185  18.3097706  33.8881073  37.4597740  17.7470951  34.2487488
  35.8838387  17.7008305  32.7851410  35.2457428  18.4949303  32.3974075
  36.7218933  17.2880516  31.5972385  37.3480377  16.4865932  31.9892998
  36.0676498  17.0032291  30.7732601  37.9812126  18.5714588  31.0555210
  38.7360229  18.3616142  32.1377068  34.9515114  16.6510010  33.2643814
  35.2447472  15.5231066  33.5336685  33.6685371  16.9422932  33.1104584
  33.4314423  17.7785721  32.5961418  32.5364494  16.1758461  33.5182686
  32.9013252  15.5807772  34.3554420  31.4520016  17.1014576  34.1226616
  30.8600655  16.4378300  34.7529869  32.0236282  17.6615372  34.8626976
  30.6671200  18.0791473  33.2978020  31.2584858  18.5103016  32.4900322
  29.9270096  17.4318027  32.8273964  29.7990856  19.3773022  34.2443733
  29.1647377  20.1574326  32.7769089  28.4026470  19.5149574  32.3358421
  28.7085876  21.0738487  33.1513596  29.9661064  20.3177395  32.0556526
  32.0415993  15.1308556  32.4980888  32.0012283  15.3070021  31.2599335
  31.6776638  13.9418211  32.9444275  31.7087708  13.9472437  33.9539337
  30.9268589  12.8846483  32.2881813  31.3625507  12.4028072  31.4129086
  30.9778862  11.6481237  33.1861153  31.9369907  11.3057919  33.5747375
  30.4484997  12.0245037  34.0614357  30.2508526  10.4455547  32.5747795
  29.6391525  10.0958910  33.4064369  29.5094166  10.8533649  31.8877029
  31.1611462   9.4300776  31.9362717  32.2800140   9.6795120  31.4421673
  30.7520905   8.1840696  31.8731899  29.9107323   8.0513144  32.4159546
  31.4459839   7.4718590  31.6960812  29.4989357  13.4677877  31.9816380
  28.6316662  13.8320551  32.8167725  29.2127190  13.3483486  30.6962814
  29.9856567  12.9569836  30.1771469  27.8795280  13.4580584  30.1424274
  27.5051937  14.4631863  30.3365746  28.0114098  13.3540516  28.5775452
  28.9018078  13.9290314  28.3231888  28.1233253  12.3150806  28.2675228
  26.7872429  13.9947033  27.8449936  27.0462914  13.9548340  26.7869759
  25.8983231  13.4086313  28.0783195  26.5625973  15.5095940  28.1777687
  25.4543610  15.9836998  27.9197922  27.4085846  16.2084274  28.6858044
  26.9949379  12.3082438  30.5791531  27.3796577  11.1206331  30.4893684
  25.7032146  12.5679235  30.8562794  25.4962997  13.5558157  30.8194752
  24.6593914  11.5440388  30.8705978  24.8082676  10.8070898  31.6597996
  23.2973003  12.2619362  31.1546326  23.1287460  12.8802748  30.2729607
  22.4822979  11.5436430  31.2436657  23.3011589  13.1379795  32.4451218
  23.6401596  12.5335894  33.2864876  23.9536552  14.0110846  32.4386711
  21.6377182  13.6417322  32.9816360  21.9814682  14.3356867  34.5931168
  22.1340504  15.4088774  34.4787445  20.9729805  14.3019037  35.0053253
  22.6663208  13.6584272  35.1034050  24.5377121  10.7628088  29.5233307
  24.2972889  11.3549814  28.4707966  24.5498676   9.4276857  29.6584816
  24.6261082   8.9908876  30.5659485  24.2469578   8.5378103  28.5854568
  24.7750740   8.8976812  27.7024574  24.7204437   7.0898108  28.8220997
  25.7667332   6.9888549  29.1105213  24.1802349   6.6131678  29.6400776
  24.5612297   6.2286468  27.5108719  24.0207672   6.7480536  26.5068111
  25.1529579   5.1386580  27.4208736  22.7111626   8.4595184  28.3542995
  22.0263920   8.1042070  29.2705708  22.1465988   8.9270172  27.2211647
  22.6895561   9.1463156  26.3982391  20.7445908   9.1834555  27.1033039
  20.2276974   8.6412992  27.8951302  20.4388199  10.6912422  27.1447659
  21.1652794  11.3014603  26.6081181  19.0823689  11.1415129  26.6902428
  18.3166103  10.4468918  27.0355110  18.8054276  12.1346588  27.0438881
  18.9747772  11.1162415  25.6058598  20.4839058  11.1129274  28.6628590
  20.5732555  12.1809721  28.8613529  19.6142349  10.7227678  29.1915817
  21.3330154  10.6521463  29.1676407  20.2987556   8.6285877  25.6858215
  20.8789558   8.8939323  24.6599083  19.1416016   7.9296308  25.6559448
  18.7053108   7.6447330  26.5211563  18.5476437   7.2642479  24.4547653
  19.3484287   6.7817411  23.8943768  17.4814281   6.1976027  24.8151798
  18.0208244   5.3370590  25.2109261  16.6687603   6.6674452  25.9785118
  15.9139719   5.9063711  26.1764145  17.3432388   6.6196599  26.8334370
  16.2266579   7.6427841  25.7751274  16.6732483   5.8533144  23.6988430
  17.2524147   5.5436025  22.9986687  18.0163994   8.4255419  23.5562611
  17.3195381   9.3304138  23.9812317  18.5260639   8.4580803  22.3372250
  19.2384300   7.7707801  22.1365948  18.2726612   9.5865612  21.4295502
  18.4630775   9.2577333  20.4079266  17.3185921  10.0883045  21.5911198
  19.2591648  10.7826347  21.6910133  18.9605751  11.8687735  21.2234268
  20.3600407  10.6168613  22.3881721  20.5003719   9.6778860  22.7327480
  21.4521637  11.6482096  22.6736012  20.8872776  12.4580669  23.1352654
  22.1439419  11.2342577  23.4072132  22.3295822  11.8801060  21.4543953
  22.6358280  10.9139404  20.8347034  22.7336693  13.1443968  21.1240959
  22.4150066  13.9042578  21.7081909  23.5127010  13.5221815  19.9627247
  22.8790092  13.1584291  19.1538868  23.6873302  15.0961885  19.9934750
  22.7404881  15.4892111  20.3637733  24.3423748  15.3048277  20.8393383
  24.2107964  15.7911797  18.7395782  25.1883011  15.4180222  18.4340649
  23.2364712  15.6422110  17.5651169  22.3261452  16.1258602  17.9193764
  23.6105366  16.2291985  16.7262955  23.0595684  14.6064034  17.2754478
  24.3978386  17.2933826  19.0675526  23.4963970  17.8998165  19.1554699
  24.9224091  17.3669415  20.0201893  25.0131664  17.6115761  18.2259922
  24.8705006  12.6996050  20.0300846  25.4226112  12.4351530  21.1240349
  25.3182621  12.2548065  18.8715267  24.8721046  12.6300745  18.0467720
  26.6411266  11.7278938  18.7211056  26.7376080  10.9690590  19.4976101
  26.7608070  11.1149063  17.3460331  26.2453709  11.7497740  16.6253605
  27.8273067  11.0118580  17.1458797  26.1816807   9.7129221  17.1844654
  26.5807037   8.9857626  17.8916569  25.1274204   9.9078655  17.3810291
  26.2183304   9.0738859  15.8310556  27.2226009   8.8556652  15.4678478
  25.8738251   8.0512943  15.9850750  25.4389706   9.8313522  14.7429113
  24.4567223  10.1534147  15.0886898  26.0207844  10.6644754  14.3485775
  25.1292477   8.8946514  13.6221008  24.5683899   9.3501444  12.9163647
  25.9985504   8.6444654  13.1728544  24.6434746   8.0750294  13.9572792
  27.6961079  12.8589983  18.8924065  27.4795151  13.9531565  18.4583664
  28.9170818  12.4647541  19.3757210  29.0109596  11.4828386  19.5928116
  30.2173901  13.2120733  19.2740688  30.8610497  12.7545691  20.0253944
  30.7738209  12.8274918  17.8990154  29.9723129  13.0449629  17.1930466
  31.7512608  13.3086119  17.8638287  31.1190300  11.3539515  17.6298599
  31.5992088  10.7730026  18.4172783  30.2260361  10.7498941  17.4693089
  31.9761810  11.1960173  16.3750343  31.5467758  11.8747253  15.6381044
  32.9943466  11.5629187  16.5047150  32.0930595   9.7743282  15.9179754
  32.7335930   9.7532358  15.0362892  32.5905571   9.2694683  16.7460537
  30.8875294   9.1408243  15.5466318  31.1357613   8.2648497  15.1094265
  30.3710632   8.8398352  16.3607388  30.1715279   9.6409101  15.0393295
  30.1157951  14.7644720  19.5049915  30.5620785  15.5058365  18.6698303
  29.5019569  15.1899052  20.6225548  29.2743549  14.5222578  21.3454266
  29.3435116  16.6080475  20.9393387  29.7385025  17.2256107  20.1326771
  27.8925762  16.8274841  21.1735001  27.3494949  16.5663166  20.2652302
  27.6338711  16.1849308  22.0151043  27.3750553  18.5858364  21.4123573
  28.0688305  19.1293468  20.4082813  30.1877365  17.0401783  22.1500187
  30.4674435  16.2081699  22.9974289  30.6466427  18.2773590  22.1701450
  30.3411560  18.8926182  21.4297161  31.5240936  18.8103561  23.2352276
  31.5890427  18.0558472  24.0191917  32.9681244  19.1456318  22.6948929
  32.8993378  20.0051270  22.0280838  33.6895981  19.7028637  23.9354115
  33.6130943  19.0365486  24.7946396  34.7681389  19.7051907  23.7777939
  33.2562981  20.6892586  24.1008720  33.6822548  17.8777275  22.0488911
  34.6673737  17.7559605  22.4992371  33.2939148  16.9364643  22.4378834
  33.6208572  17.8475323  20.4723854  34.0154266  16.9214077  20.0544033
  32.5912552  17.9332371  20.1250019  34.2533607  18.6351624  20.0628948
  30.8233051  20.0361233  23.8290825  30.5353107  21.0690422  23.1309986
  30.6439896  20.0987244  25.1814041  30.9972534  19.3534126  25.7643414
  29.8792133  21.1502476  25.8182697  29.5285015  21.9133339  25.1234245
  28.6162415  20.6275864  26.4339314  28.7659245  20.1867523  27.4195080
  27.9459591  21.4761982  26.5706005  27.8954067  19.5173569  25.6361847
  27.9232960  19.7228336  24.5660896  28.5575447  18.6535530  25.6954670
  26.4669857  19.2741604  26.0757542  26.0106087  20.2620583  26.0134735
  25.9885807  18.6186352  25.3480682  26.3710785  18.7426777  27.4653339
  26.3025913  17.7407856  27.5731430  26.1295490  19.2476997  28.6475086
  25.4715061  20.2955132  28.7600822  25.4128647  20.8387165  29.6095486
  25.1575565  20.6334095  27.8615475  26.3305893  18.5427799  29.7174892
  26.1710052  18.9292393  30.6368866  26.8200321  17.6955948  29.4668446
  30.7305107  21.8918648  26.8246593  31.7203903  21.3570728  27.3487854
  30.4116287  23.1513653  27.1149960  29.6642723  23.5403690  26.5580082
  31.1945114  24.0611820  27.9788132  31.7723522  23.4620247  28.6825275
  32.2164879  24.8228703  27.0960464  32.7544441  24.0836964  26.5024757
  31.6587906  25.9827385  26.2393360  30.9579792  25.6067123  25.4939651
  31.1288471  26.7199726  26.8424511  32.3632812  26.5233097  25.6072178
  33.1994514  25.5008183  28.0872211  32.6825256  26.3952732  28.4348564
  33.5399437  24.9445038  28.9605350  33.9913521  25.8307571  27.4148102
  30.2498360  24.9354267  28.7043552  29.1396675  25.1831570  28.2275925
  30.5384235  25.3280869  29.9036312  31.4165859  24.8847733  30.1325531
  29.8889008  26.3105602  30.7765732  29.2701664  26.9559116  30.1530437
  28.9685822  25.4648895  31.7237434  28.2817650  24.8230972  31.1719398
  29.6107273  24.8126488  32.3156281  28.1369801  26.2198524  32.7762680
  27.7156754  25.4112167  33.3735199  28.9287682  26.7370758  33.3181648
  26.9156647  27.3498898  32.2987709  26.0349579  27.3894253  33.8055611
  25.5914154  26.3941269  33.8331566  26.7685986  27.4847965  34.6060448
  25.2764740  28.1706333  33.8557358  30.9532948  27.1137581  31.5766869
  31.9123478  26.5149307  31.9557972  30.7407093  28.4129333  31.7987747
  29.8470001  28.7782440  31.5022392  31.6290874  29.2068710  32.6145287
  32.1011887  28.5588074  33.3529282  32.7756004  29.7512913  31.7530670
  33.3260460  30.4154758  32.4193764  33.4872894  28.9557457  31.5323563
  32.3697357  30.6290741  30.5095673  31.6413765  30.1929913  29.8258820
  31.9242611  31.5353546  30.9198227  33.7813416  31.0066967  29.4872646
  33.5824242  29.7947006  28.1930332  32.5090294  29.6310177  28.0974789
  34.0334930  30.1197357  27.2554893  33.9659462  28.8657951  28.6151104
  30.9439545  30.3181934  33.3033104  30.3233089  31.1372166  32.6301498
  31.0929298  30.4257030  34.6161575  31.6020870  29.7908859  35.2143784
  30.5602303  31.5954971  35.3385468  29.6485252  31.8860645  34.8165665
  30.1384583  31.2082176  36.7781868  30.0882893  32.1054001  37.3951530
  28.8474045  30.4014854  36.8072777  28.0858803  30.9652805  36.2684669
  29.0937443  29.4284763  36.3822250  28.5043163  30.2874680  37.8355751
  31.1104259  30.4119816  37.3591385  31.9703331  30.7778053  37.1392899
  31.4061508  32.8096657  35.4236832  32.5667305  32.7484016  35.8324623
  30.8891830  33.9656143  34.9149017  29.9770489  33.8778458  34.4901581
  31.6375446  35.2200470  34.5318680  32.6741295  35.0848198  34.8405952
  31.5387173  35.3707962  33.0247841  30.4796982  35.2077217  32.8248100
  31.9829407  36.6884651  32.4136391  32.0129013  36.5910149  31.3284225
  31.3367481  37.5418777  32.6191216  32.9930153  36.9951553  32.6852837
  32.3292351  34.2430077  32.3169289  32.2961464  34.2974052  31.2287903
  33.3377571  34.2710381  32.7294769  31.9055138  33.2527046  32.4838524
  31.0943413  36.4818611  35.2159042  29.9325581  36.8603630  35.0009651
  31.9248829  37.1446228  36.0410309  32.8211174  36.8111115  36.3660431
  31.7378750  38.5059738  36.5638962  30.7807159  38.4694557  37.0840988
  32.8604393  38.8538704  37.5454102  32.7207146  38.2841263  38.4640923
  33.8111916  38.5657997  37.0968742  33.0068130  40.3195343  38.0609741
  33.9391937  40.3365211  38.6253128  33.1086311  41.0502548  37.2586136
  31.8278999  40.6702271  38.9968262  30.6775951  40.6251335  38.6694374
  32.0664597  40.9998169  40.2772255  31.3744965  41.1704483  40.9928894
  33.0277481  41.1216393  40.5621605  31.5655308  39.5936356  35.5455856
  32.4349556  39.8213692  34.7194481  30.5051708  40.3342171  35.5707588
  29.8795452  40.3843918  36.3620720  30.1092834  41.1522522  34.4145622
  31.0039406  41.6279945  34.0128708  29.4932556  40.2398148  33.3086929
  30.2090683  39.4667091  33.0293770  28.2852612  39.4702225  33.7099762
  28.4478569  38.8248329  34.5731888  27.4089565  40.1070366  33.8310623
  28.0281467  38.7933006  32.8952599  29.1342888  40.9970055  32.2059822
  29.2251263  40.4336967  31.4339523  29.0916805  42.2450867  34.8852081
  28.5379276  42.1849861  35.9783058  28.7798672  43.1691551  33.9680557
  29.2830086  43.2357101  33.0948334  27.5588875  44.0111656  34.0517006
  27.1414528  43.7659264  35.0282822  27.9010086  45.4804993  33.9518852
  28.5692482  45.6194229  33.1020317  27.0008392  46.0618019  33.7521820
  28.4615536  46.1094704  35.2853584  29.4184799  46.9408302  35.2472916
  28.0057869  45.9697380  36.4421234  26.4148827  43.6465912  33.0591316
  25.2874184  44.2408714  33.0746880  26.6384602  42.5286217  32.3790779
  27.5436363  42.0849037  32.4413147  25.6150436  42.0603905  31.3985157
  25.0503216  42.8808098  30.9556828  26.2497234  41.3006935  30.1397820
  26.8285675  40.4404297  30.4759254  25.0662460  40.8532715  29.2618027
  25.4153137  40.4128418  28.3278484  24.4336662  40.1598663  29.8160000
  24.3713417  41.6830063  29.1324425  27.2564297  42.1464958  29.3181114
  26.7857876  43.1031761  29.0914783  28.2252197  42.2496681  29.8068867
  27.5722923  41.7937813  28.3363152  24.5126400  41.1816711  32.0786018
  24.8541279  40.1322212  32.6256790  23.1993065  41.5910835  32.0701523
  22.6271210  42.8000870  31.5058022  22.6019230  42.7058945  30.4201717
  23.2489452  43.6539612  31.7747536  21.2457485  42.9896698  32.1352425
  20.6196957  43.4401016  31.3650036  21.3488998  43.5212250  33.0812416
  20.8577747  41.5180359  32.4382706  20.3208961  41.1111107  31.5813732
  20.2130623  41.4658279  33.3156128  22.1291924  40.7605400  32.6568718
  22.3936749  40.7292671  33.7138329  22.2292671  39.3329163  32.1041794
  22.5562763  39.0238647  30.9604321  21.6932468  38.4249191  32.9034843
  21.3897057  38.7989006  33.7912369  21.5612564  37.0375519  32.6331215
  22.5616646  36.6047935  32.6342926  20.9644718  36.5083046  33.9455681
  21.6922493  36.5334625  34.7566261  20.0364056  37.0516129  34.1233673
  20.5531540  34.9884300  33.8486061  20.4723892  34.5825424  32.8402214
  21.3794441  34.3877640  34.2287941  19.2755547  34.6604347  34.6189804
  18.1757793  34.8214302  34.1442719  19.4379559  34.4142990  35.9065742
  20.3355751  34.2953262  36.3540459  18.5660706  34.3584023  36.4133186
  20.7443485  36.7015533  31.3839855  21.0972309  35.8290100  30.6461620
  19.5958481  37.3712807  31.0914211  19.1351147  37.9709740  31.7608891
  18.8478451  37.1594086  29.8758125  18.7294903  36.0835876  29.7465973
  17.3721638  37.6671791  30.0345497  16.8424969  37.4085579  29.1176701
  16.9280224  37.0750313  30.8346748  17.2467690  39.1353569  30.4136581
  16.0909023  39.6818771  30.4500885  18.2196522  39.8551064  30.6667423
  19.6053123  37.6626472  28.6120682  19.2540283  37.1778107  27.5046234
  20.6107540  38.5411797  28.7992878  20.9979248  38.5151291  29.7317696
  21.3428020  39.2407608  27.7657833  20.6453781  39.1827850  26.9301186
  21.5916996  40.7248001  28.1681042  22.2585316  40.7071457  29.0301533
  22.0348511  41.2467155  27.3199768  20.2953682  41.4875336  28.5429955
  19.7704105  40.9270058  29.3165131  20.5893574  42.4965057  28.8322124
  19.2822647  41.7078094  27.3891449  19.6144733  41.9822350  26.2588921
  18.0166073  41.3825645  27.4913158  17.6426010  41.0450020  28.3666859
  17.4982548  41.2775116  26.6308670  22.6842861  38.5856285  27.2880859
  23.3088284  38.9817276  26.3014450  23.1689129  37.5882950  27.9564495
  22.6432209  37.3777733  28.7927685  24.3395653  36.7365456  27.5300922
  25.2470303  37.3316803  27.4279709  24.5688953  35.7360153  28.6748352
  23.6621685  35.1375809  28.7633438  25.6055527  34.7482681  28.0587387
  25.0745392  34.1285744  27.3361740  26.5498238  35.2517662  27.8515167
  25.9463749  34.0613365  28.8333817  25.0041370  36.2735672  29.9797058
  24.1786938  36.6471252  30.5856743  25.3371010  35.4175110  30.5665646
  26.1255245  37.3342171  29.9076252  26.9665012  36.9599915  29.3238335
  25.6810799  38.2099342  29.4346695  26.3630753  37.7589417  30.8829575
  23.9766426  36.0735703  26.2104378  22.8889141  35.4794502  26.0535316
  24.9777946  35.9436646  25.3701229  25.8866920  36.1873436  25.7370377
  24.9573116  35.1341057  24.2150612  23.9871864  34.8763313  23.7901993
  25.7501583  35.8009872  23.0947800  26.7568741  36.0066719  23.4585381
  25.7887669  35.1724930  22.2050591  25.0684547  37.1190910  22.7599659
  24.0241528  37.0059280  22.4688816  25.1343994  37.9125366  23.5044079
  25.8381939  37.7286682  21.5387115  26.8782654  37.9379501  21.7888184
  25.7393951  36.9727592  20.7596455  25.1056824  38.8833847  21.0469894
  24.3718815  39.2485199  21.6371708  24.9753590  39.3950233  19.8211079
  25.6966972  39.1084137  18.8055954  25.5731163  39.7550240  18.0396118
  26.4390049  38.4326668  18.9171638  24.2693100  40.4722939  19.6399136
  23.7114105  40.8450775  20.3948193  24.3674679  40.9556313  18.7585239
  25.4750652  33.7267570  24.4965553  26.6749191  33.6653137  24.8105564
  24.6639614  32.6591415  24.3295708  23.7022018  32.7863693  24.0486164
  25.0619450  31.2586250  24.4861393  26.0193214  31.2074947  25.0047092
  24.0954876  30.4894867  25.2952137  23.2008801  30.4615707  24.6731205
  24.4925518  29.4891758  25.4678955  23.7543545  31.1781616  26.6234322
  24.4030762  30.9852161  27.8250275  23.7402935  31.7567463  28.7179947
  23.8634644  31.6409817  29.7846870  22.6420898  32.2577629  28.1784477
  21.9357891  32.7508850  28.7057724  22.6550217  31.9526672  26.8540936
  21.9317036  32.2172432  26.0969849  25.2354069  30.6776371  22.9999447
  24.3055954  30.6243858  22.2003307  26.4744663  30.3582153  22.6225967
  27.1800900  30.5853138  23.3086147  27.0520477  29.8452339  21.3464108
  26.4887791  30.3036175  20.5335674  28.4795494  30.3913021  21.1056423
  29.1336193  29.8458061  21.7858829  28.8037033  30.0137730  19.6807652
  29.8851376  29.9934387  19.5458717  28.5567513  28.9719772  19.4763680
  28.3240738  30.6981659  18.9810066  28.8137951  31.8744545  21.4670715
  28.3229313  32.5331879  20.7506752  28.4833202  32.1123238  22.4781628
  29.8815632  32.0892410  21.4242039  26.8543320  28.3423424  21.0750389
  27.5701275  27.5689812  21.6808224  26.0527782  27.9807205  20.0438709
  25.7086105  28.7875137  19.5431385  25.8544827  26.5859947  19.4879398
  26.5929546  25.9532223  19.9802399  24.4762192  26.0549641  19.8204899
  23.8343601  26.8769131  19.5034447  24.2084656  25.1538219  19.2688065
  24.3043308  25.9304581  21.3308640  24.4860859  24.7075882  21.9216614
  24.6504478  23.8439827  21.2943096  24.4833412  24.5362072  23.2932777
  24.4858456  23.5728970  23.7815666  24.2033730  25.6114864  24.0761890
  23.8996887  25.4688168  25.3849545  23.2661362  26.1316242  25.6693802
  24.0154037  26.9454918  23.5488262  23.8617039  27.7712269  24.2277489
  24.0622063  27.0600815  22.1617146  23.8725815  28.0133972  21.6909370
  26.2256374  26.5667877  18.0290909  25.6464615  27.2803822  17.2547035
  27.3373756  25.8111591  17.7555523  27.6589832  25.1482449  18.4463596
  27.9702950  25.5714989  16.4415531  27.7033958  26.2841167  15.6611395
  29.4442329  25.6423054  16.7047272  29.6618538  24.7800274  17.3349781
  29.9316025  25.4066200  15.7586708  29.9388332  26.9886837  17.3646240
  29.5762081  27.1613312  18.3779335  31.4748230  26.7984791  17.4321041
  32.0156059  27.1303825  16.5458221  31.8211136  27.3830547  18.2844257
  31.7419987  25.7584400  17.6192665  29.7161980  28.2634258  16.5720615
  30.0933418  29.0838394  17.1826305  30.3273678  28.2838383  15.6697550
  28.6333027  28.1471405  16.5282917  27.6576977  24.2274437  15.8510447
  27.0460701  23.3606930  16.5530243  27.9509258  23.8954086  14.5426865
  28.1852856  24.6207886  13.8801146  27.8556252  22.6039371  13.9469023
  28.0415764  22.7346153  12.8808613  29.0686970  21.7095280  14.4835739
  28.9125538  21.4587746  15.5327864  28.9932079  20.7551250  13.9625015
  30.4542999  22.3530674  14.3927212  30.4993973  23.2968712  14.9361372
  31.2087383  21.6589012  14.7629347  30.7528076  22.6716537  12.9299631
  31.3456879  21.7787018  12.2401810  30.5005989  23.8155537  12.4886398
  26.4657383  21.9123859  14.1441431  25.3769569  22.5076866  14.0522032
  26.4730377  20.5924950  14.3919640  27.3203125  20.0600548  14.2551012
  25.1875801  19.8162804  14.5462055  24.4474468  20.1279297  13.8091993
  25.4299660  18.3157387  14.3211308  26.1498909  17.9498367  15.0531988
  24.4514904  17.8558331  14.4596281  25.9559498  18.0370121  12.9160767
  25.1259708  18.3360481  12.2759113  26.8610287  18.6153736  12.7305241
  26.1849136  16.5469627  12.8096571  27.0152874  16.2690773  13.4587784
  25.2766972  15.9891376  13.0378647  26.5715866  16.2487907  11.3416414
  25.6838188  16.2624989  10.7093573  27.3604813  16.8872986  10.9440832
  27.1244316  14.8305120  11.2205076  26.5860672  14.1635866  11.7548046
  27.0286045  14.5220985  10.2635288  28.1231136  14.7258978  11.3290968
  24.5914783  20.0973988  15.9535818  23.3661537  19.9117069  16.0704193
  25.2955170  20.7128029  16.9562778  26.1828861  21.0986099  16.6667461
  24.7296638  21.1389961  18.2555332  24.1901226  20.2673111  18.6258850
  25.9075642  21.4665756  19.1320095  26.4755974  22.2466850  18.6251965
  25.6746387  21.8748741  20.1154423  26.4531803  20.5260067  19.2077465
  23.6892967  22.3262062  18.2809105  23.1241856  22.5591984  19.3251801
  23.3443604  23.0134945  17.1843758  23.9152412  22.8562088  16.3661709
  22.3146191  24.1216164  17.1192360  22.8554516  24.9587860  17.5605412
  22.0604134  24.6074696  15.7212667  21.4599190  25.4950027  15.9207430
  23.3049850  25.2696209  15.0578899  22.8936367  25.9641247  14.3253889
  23.7547550  25.9539356  15.7772722  24.0702763  24.5903435  14.6823692
  21.4389267  23.5574474  14.7679911  21.2228298  23.9802322  13.7868423
  22.1569309  22.7541027  14.6030111  20.4884758  23.2459888  15.2012768
  21.0019703  23.7739201  17.8662605  20.4322319  24.6495476  18.5064774
  20.5787735  22.5382805  17.9071331  21.2111626  21.9268951  17.4107513
  19.3743019  22.1417542  18.5513134  18.5689964  22.8006535  18.2266083
  19.0001678  20.7003307  18.1537571  17.9307289  20.7304821  18.3623104
  19.0355167  20.4833145  16.6182518  18.8024654  21.3781738  16.0411701
  20.0607014  20.1711712  16.4190903  18.2915421  19.7303410  16.3581886
  19.6599350  19.5546932  18.9305000  20.7235031  19.4163952  18.7360859
  19.4513855  19.7830791  19.9757023  19.1046619  18.6847916  18.5797176
  19.4163284  22.2352524  20.0638580  18.3791256  22.3493252  20.6597023
  20.6241150  22.3933620  20.6554127  21.4279289  22.4076939  20.0440369
  20.8579826  22.5103035  22.0731030  20.0779266  21.9484673  22.5868683
  22.1978397  21.8423958  22.4249992  23.0811443  22.3778782  22.0769711
  22.2354527  21.7582703  23.5110970  22.3100071  20.4084091  21.8429527
  22.1502743  20.4469948  20.7654114  23.7551479  19.8816891  22.1515408
  23.9184608  19.6099892  23.1944294  23.9422646  18.9319096  21.6505337
  24.5871601  20.5054169  21.8247089  21.2959270  19.4099598  22.4083157
  20.2818165  19.7463760  22.1926746  21.5233288  18.3942738  22.0846329
  21.4543533  19.4164391  23.4867210  20.7547379  23.9678860  22.5466423
  20.8580322  24.1697235  23.6917686  20.3433895  24.9074688  21.6525326
  20.3221378  24.6729755  20.6703606  20.1157112  26.3540649  21.9694824
  21.1152763  26.6671906  22.2710152  19.5678062  27.0475502  20.6951828
  19.4214878  28.0873394  20.9876347  20.2285480  27.1273689  19.8319626
  18.2878571  26.4699593  20.2204781  18.3914261  25.4271126  19.9207439
  17.4837971  26.5061836  20.9555149  17.6392956  27.1688461  19.0269413
  16.5787277  26.9341259  18.9363689  17.6387405  28.2145195  19.3346195
  18.3454533  27.0616703  17.7872925  19.2179565  27.5492897  17.6421165
  18.1153831  26.0298309  17.0043259  16.9531479  25.3705349  16.9260254
  16.1017475  25.7750034  17.2888260  16.8782578  24.5793686  16.3026905
  18.8934422  25.8054867  15.9977198  19.6898308  26.4112453  15.8601608
  18.6796379  25.1051788  15.3020496  19.2382336  26.4832077  23.2406845
  18.3943157  25.6278248  23.4493618  19.2548847  27.5979252  24.0152206
  20.1441116  28.7310810  24.0048122  20.0724277  29.1711330  23.0101681
  21.1855202  28.4810619  24.2074471  19.6400967  29.7289677  25.0503235
  19.0034065  30.3719044  24.4425735  20.4165440  30.3134956  25.5438423
  18.7919025  28.9072666  26.0169582  17.9415665  29.4870186  26.3760090
  19.4141502  28.4572182  26.7905045  18.3073788  27.7832890  25.1359482
  18.2464924  26.8381176  25.6754398  16.8977623  27.9881248  24.6272545
  15.9153814  27.9114723  25.3667507  16.7040768  28.1646328  23.3047733
  17.4812202  28.1413307  22.6600990  15.3482733  28.0348129  22.5991669
  15.5983353  28.2618885  21.5628242  14.9811249  26.4686584  22.6744995
  15.8807983  25.8568726  22.6081200  14.4787779  26.2200336  23.6093502
  14.0554361  25.9412994  21.5597515  14.4203281  26.1589699  20.3538971
  12.9502258  25.3098679  21.8668175  14.2364483  28.9797535  23.0401039
  13.1462851  28.5416145  23.3852024  14.6446285  30.2450771  23.1978054
  15.6437693  30.3630562  23.1089287  13.8549042  31.2596931  23.9600544
  13.6580334  30.7612381  24.9092045  14.6501198  32.5727310  24.3027554
  14.6752052  33.1114883  23.3555431  14.0997047  33.1708450  25.0289860
  16.0773048  32.4499855  24.9506569  16.6903629  31.9815884  24.1806812
  16.7678776  33.7620811  25.2516747  16.0606365  34.3927917  25.7902985
  17.6703300  33.6795425  25.8573589  17.1602077  34.3647804  24.4325752
  16.0232449  31.6022186  26.1747532  15.1349249  31.8959980  26.7339344
  16.9318714  31.6914997  26.7701721  16.0614815  30.5307198  25.9784775
  12.5686674  31.6509342  23.2824707  12.6240864  31.7453041  22.0502472
  11.4807281  31.8480892  24.0470810  11.5763302  31.8359127  25.0524731
  10.1720591  32.1587524  23.4908543  10.3211117  32.9238777  22.7289715
   9.5318413  30.9306316  22.8703270  10.3155251  30.2522640  22.5330524
   8.9992466  30.4627953  23.6983204   8.5478344  31.1658459  21.8527298
   7.6943045  30.8465958  22.1546669   9.2094641  32.7706604  24.5004768
   9.1219273  32.1978760  25.5772247   8.5355625  33.9024124  24.2636986
   8.8216476  34.4037895  23.4349174   7.4686942  34.4807396  25.1676922
   7.8542747  34.8780518  26.1066132   6.7886562  35.7830086  24.5197048
   6.1163864  35.5255814  23.7012405   6.0383992  36.1388588  25.2258091
   7.7124500  36.9776077  24.0818882   8.5405369  36.5177269  23.5425510
   7.1513729  37.9813499  23.0683155   6.1340232  38.3253136  23.2548141
   7.1970582  37.6135597  22.0432568   7.7868204  38.8617935  22.9727917
   8.2693281  37.6663475  25.3337212   7.4519482  37.9511490  25.9962006
   8.9281979  36.9502716  25.8248692   8.8519468  38.5874290  25.3173943
   6.4432187  33.4750633  25.6013012   5.9750190  33.5481949  26.7375851
   6.0935183  32.5108414  24.7775173   6.6929650  32.4214745  23.9695702
   5.1463490  31.3967876  24.9986649   4.1671553  31.8566952  25.1319714
   5.0166698  30.5399246  23.7864113   4.4842238  29.6299496  24.0630836
   4.3947439  31.1947155  22.5656395   5.1340585  31.8577042  22.1162415
   4.2312279  30.4283428  21.8079891   3.5158911  31.8142128  22.7443600
   6.3058977  30.1480751  23.3790092   6.2752628  29.1957607  23.4963093
   5.5467186  30.4340897  26.1289787   4.6722040  29.8094063  26.6729488
   6.8536091  30.4407902  26.3976288   7.5088196  30.8630047  25.7553425
   7.4126210  29.6761398  27.5032005   6.8426671  28.7771893  27.7380238
   8.8578453  29.1829739  27.1431084   9.4834557  30.0445976  26.9100456
   9.3240995  28.5913105  27.9309158   8.7207890  28.2877140  25.9504051
   8.0050077  27.5117111  26.2216587   8.1504269  28.6648102  25.1015320
  10.0894957  27.6528759  25.5889683  10.8292675  28.4306221  25.3993740
  10.5288324  27.0712585  26.3994026  10.0968752  26.7876816  24.3383045
   9.4502487  25.9401455  24.5655937   9.6807442  27.2963085  23.4686890
  11.4673233  26.2973213  24.0565014  11.9946499  26.1343708  24.9023590
  11.3564005  25.4573689  23.5067062  11.9572201  27.0950260  23.6773300
   7.3228250  30.4852676  28.7714024   8.1629419  30.4100914  29.6776714
   6.3125877  31.3917561  28.8874435   5.6356845  31.4444885  28.1396942
   6.0636940  32.1966057  30.0396709   6.4255075  31.5661793  30.8519211
   6.7359796  33.5971870  29.9193020   6.1695180  34.2226677  29.2293777
   6.6684008  34.1476974  30.8576412   8.2916555  33.5758209  29.4861565
   9.1375923  32.8702621  30.0881424   8.6034098  34.3213730  28.4432411
   8.0266666  35.1183319  28.2144909   9.5602713  34.1804466  28.1522846
   4.6068788  32.3413353  30.4767857   3.6935747  31.8163834  29.7653999
   4.3705878  33.0384636  31.5875607   5.1113534  33.4561195  32.1324730
   2.9891512  33.5236588  31.9626865   2.1920168  32.7885056  31.8521042
   2.8911412  33.8770981  33.5028687   1.9015126  34.2412758  33.7787476
   3.0738821  32.6404839  34.2503433   2.6611581  32.8544502  35.2362289
   2.3850753  31.9071846  33.8309174   4.0537672  32.1717987  34.1594582
   3.9608042  34.8178062  33.8463287   3.5821352  35.6916008  33.9675522
   2.4387968  34.7011757  31.1482315   3.2209277  35.4238434  30.5246544
   1.0788358  34.9602776  31.1774559   0.4238219  34.3113022  31.5896301
   0.4982637  36.0192261  30.3362789   0.9081159  36.0489082  29.3267059
  -1.0389920  35.8727798  30.3076572  -1.3808831  35.8463745  31.3423138
  -1.4168851  36.7810211  29.8381863  -1.5529858  34.6758575  29.5497322
  -2.6172664  34.8060722  29.3536415  -1.0735315  34.5917892  28.5744572
  -1.4623260  33.3894882  30.4004765  -0.4529049  32.7025223  30.2525024
  -2.3556666  33.1252365  31.2293091   0.7877705  37.3872147  31.0428085
   0.1284963  37.7394295  32.0421219   1.7046022  38.1880684  30.5786171
   2.1535833  37.9375343  29.7092781   2.2213404  39.4555054  31.1550674
   1.9651482  39.5626068  32.2091064   3.8041039  39.4237366  30.9896145
   4.1381059  38.4919052  31.4459362   4.0613270  39.3947296  29.9307957
   4.6269255  40.4943161  31.7490749   4.4265280  41.4894753  31.3520851
   4.1591530  40.6753387  33.2034035   4.0045190  39.6511497  33.5428543
   4.8486767  41.2509117  33.8209572   3.2299991  41.2449493  33.2212029
   6.0566163  40.1972961  31.7022915   6.2963004  40.0867805  30.6447239
   6.6149297  41.0475426  32.0940437   6.1830478  39.3111191  32.3242302
   1.5741589  40.6397247  30.4591675   1.7774988  40.7779083  29.2028179
   0.8674100  41.3375015  31.1771507  31.5544643  41.7023430  47.0822067
  31.3026981  41.7899590  46.1080208  30.8667145  41.0999832  47.5114670
  31.3842354  42.6196785  47.4690132  32.9043312  41.0590706  47.1453552
  33.6692352  41.7878036  46.8770905  33.2455177  40.5627174  48.5188942
  33.1724167  41.4611549  49.1317329  32.4024429  39.9297028  48.7957001
  34.6069832  39.8312721  48.6207085  34.5158348  38.8419838  48.1722641
  35.2962074  40.4565544  48.0531769  35.4248199  39.5994263  50.2445946
  35.9384956  41.2367592  50.7230759  36.5236664  41.7371025  49.9514961
  35.1087494  41.8466835  51.0803146  36.5447426  41.1622696  51.6258583
  32.9327927  39.9054871  46.1424370  31.9357567  39.1591339  45.9537239
  34.0330620  39.7225723  45.4013023  34.8466339  40.2733917  45.6353912
  34.1442680  38.7448082  44.3398552  33.2658272  38.9207878  43.7189827
  35.3819199  39.1565742  43.4741096  35.3279877  40.1413727  43.0100327
  36.2076988  39.0829849  44.1817627  35.6066437  38.1519279  42.3908539
  36.4620667  38.4382439  41.7789917  35.9557190  37.1804428  42.7407990
  34.3982468  38.0461998  41.0951691  35.3101120  37.1057625  39.7996330
  35.8585091  36.3327675  40.3379974  34.5606537  36.6755371  39.1353111
  35.8951187  37.8302879  39.2331200  34.1956215  37.3261757  44.9239922
  34.4128189  37.0427856  46.1240921  33.8555374  36.3628845  44.0401230
  33.5598183  36.5959702  43.1029358  33.9550629  34.9458313  44.3505821
  34.5916405  34.7644501  45.2165909  32.5637703  34.2741013  44.5298309
  32.6803589  33.2068176  44.7180214  31.7265606  34.8121300  45.7802162
  32.2152748  34.7769814  46.7538834  31.6008205  35.8652840  45.5288963
  30.7887669  34.2576981  45.8155746  31.7228470  34.4477348  43.2358284
  31.2279263  35.4154854  43.3171501  32.3648682  34.6271095  42.3734283
  30.8543224  33.2486839  42.9247665  31.3677311  32.3764687  42.5201149
  30.1765366  33.0882568  43.7631989  30.2231846  33.4307518  42.0549278
  34.7083969  34.1635475  43.3075447  34.8075829  34.5196266  42.1066551
  35.5099487  33.1639099  43.6616631  35.3091354  32.6944351  44.5330811
  36.4943924  32.4605217  42.7789345  36.0802917  32.4995346  41.7714119
  37.8575478  33.1353493  42.6808891  38.2967567  33.3468666  43.6558037
  38.5711517  32.4923058  42.1657524  37.9219017  34.5244675  41.9420013
  37.4784470  34.3829384  40.9563942  37.3568993  35.2859955  42.4795418
  39.3220596  35.0634308  41.6943512  39.9530563  34.9981804  42.5807419
  39.6563568  34.3590889  40.9326096  39.2679672  36.3950691  41.1944351
  39.1968346  37.1580925  41.8523369  39.0133400  36.7309990  39.9570198
  38.8134232  35.8666573  39.0218697  38.8113174  34.9335709  39.4084549
  38.6601219  36.2547951  38.1021156  38.9387169  38.0066681  39.6723480
  38.5872536  38.3694496  38.7977257  39.1863174  38.7592010  40.2988358
  36.6133270  31.0114326  43.1521072  35.9722443  30.5045490  44.1034050
  37.2549171  30.2127743  42.2832756  37.6012955  30.7757816  41.5196381
  37.3150330  28.8284321  42.2106247  36.5745468  28.4340382  42.9064903
  37.0498848  28.5459328  41.1918068  38.7684441  28.1874924  42.6218948
  39.8586540  28.7204990  42.3073807  38.7073975  27.0082340  43.3126373
  37.8106995  26.8033886  43.7298508  39.8990364  26.2415771  43.7827339
  40.7425537  26.7661552  43.3339615  40.1458817  26.1895123  45.3657722
  39.1870308  26.0455055  45.8637314  41.0848389  25.0255795  45.8230286
  42.0553970  25.1431503  45.3410606  41.2368317  25.1198578  46.8982544
  40.6836624  24.0345078  45.6110535  40.5682297  27.5884399  45.8878365
  40.9766617  27.4039497  46.8814392  41.4438896  27.8123341  45.2785797
  39.5176315  28.6387005  45.9882584  38.6284103  28.1636868  46.4026833
  39.8901176  29.4821625  46.5695724  39.4503708  29.0691700  44.9891205
  39.8001251  24.8278694  43.2701721  38.8565598  24.0825100  43.5390549
  40.9204559  24.4266109  42.6253891  41.8163071  24.8912754  42.5848808
  41.1202469  22.9978294  42.1725807  40.1699257  22.4682884  42.2402344
  41.4739113  23.0216846  40.6112099  42.2791061  23.7362633  40.4405098
  41.9676361  22.0766640  40.3847694  40.4733963  23.1995544  39.5420303
  40.0035629  24.1783733  39.6382866  40.9639473  23.0080070  38.5876884
  39.3571472  22.1038666  39.6692276  38.6843300  22.4894218  40.4352379
  38.8484077  22.0986843  38.7052498  39.8303566  20.7551289  39.8991852
  39.6717758  20.4803925  40.8580742  40.6829300  20.1033707  39.1297913
  40.9933090  20.4544296  37.9362221  41.8093147  20.1363411  37.4331818
  40.4014244  21.1788445  37.5554390  41.2634048  19.0524387  39.5322380
  41.8020859  18.5682106  38.8283539  41.1159325  18.6690769  40.4549446
  42.0095901  22.2233715  43.1220627  42.7947922  22.8487034  43.8584595
  41.9073257  20.9041386  43.0964088  41.1146622  20.4567871  42.6586151
  42.9922295  20.0451145  43.3486214  43.9118118  20.4049644  42.8871269
  43.2418251  20.0698528  44.4093704  42.6907196  18.5760288  42.9645386
  41.5629005  18.3585854  42.4114494  43.5083923  17.6027851  43.1171188
  44.4521942  17.8270893  43.3982353  43.3653679  16.1511650  42.9590492
  42.3698845  15.9226847  43.3397141  43.6026840  15.7574224  41.4919739
  43.0710754  14.8373022  41.2493324  43.2154465  16.4835777  40.7772408
  44.6544266  15.5522881  41.2923317  44.2403526  15.3099871  43.8262215
  45.2872276  15.7890234  44.2765312  43.9174919  13.9985275  43.8989563
  43.1128387  13.6729641  43.3825798  44.6954269  12.9004374  44.5076904
  45.7668686  13.0869751  44.5807076  44.3431587  12.8152428  46.0111656
  44.6352539  13.8239031  46.3033714  42.8485641  12.5928907  46.2547798
  42.2399483  13.2072840  45.5912933  42.5993118  11.6012411  45.8771477
  42.5608444  12.6006403  47.3060913  45.1816292  11.8639040  46.6614113
  45.7147102  12.3375235  47.3041496  44.4757767  11.5716066  43.8348160
  43.8813477  11.5618267  42.7601357  44.9865074  10.4274607  44.3029060
  45.6889763  10.5626163  45.0159073  44.8818054   9.1342039  43.6854172
  44.0373344   9.1155806  42.9964828  46.1266632   8.7937498  42.8546219
  46.0772705   7.8193502  42.3686028  46.3555260   9.7836285  41.6654816
  46.9626770   9.2798595  40.9133606  45.3892746  10.1054296  41.2770195
  46.8942871  10.6438437  42.0628128  47.3483086   8.8571014  43.5593872
  47.4444580   8.0319471  44.0405045  44.6070709   8.1476402  44.8490906
  44.9425392   8.3709307  46.0029526  44.1899872   6.9463844  44.5511360
  43.9420090   6.7087855  43.6013184  44.1549873   5.7905507  45.4820709
  44.9085007   6.0522075  46.2249374  42.7686195   5.5898404  46.1235771
  42.8088264   4.5977907  46.5733757  42.6500359   6.6578794  47.2726822
  43.4686584   6.4900007  47.9725189  42.6453781   7.7173004  47.0163498
  41.7904701   6.4280176  47.9022942  41.6263771   5.8195128  45.2006760
  41.7386208   5.2301078  44.2906761  40.7210732   5.5932164  45.7639885
  41.4576378   6.8874898  45.0626450  44.5310020   4.3743396  44.8728065
  44.3081398   4.1034498  43.6528053  45.0352402   3.5439246  45.7306252
  45.1238365   3.8318453  46.6946564  45.5327759   2.1670718  45.3515739
  45.9050179   2.2305987  44.3290749  46.7320786   1.7383454  46.2574348
  46.3572350   1.5878494  47.2698326  47.0914192   0.7406684  46.0052185
  47.9459229   2.6667962  46.1608009  47.7825661   3.5922215  46.7130737
  48.7578735   2.2481232  46.7554016  48.3656082   3.0037985  44.7591629
  48.3478317   4.2009764  44.2971001  48.6675453   2.0425098  44.0318031
  44.5447350   0.9724260  45.4192200  44.6972198  -0.0659165  44.6905060
  43.4732094   1.1375154  46.2337151  43.1886215   2.0153933  46.6441269
  42.3651390   0.2019365  46.3231659  42.3863983  -0.5192243  45.5061111
  42.2683983  -0.4387209  47.7237740  42.5368919   0.3028596  48.4761505
  41.2669907  -0.8052686  47.9494324  43.3054695  -1.5695498  47.8211441
  43.0488052  -2.4284351  47.2010307  44.2700043  -1.2187231  47.4541359
  43.4401131  -2.0325556  49.2901077  42.5038834  -2.2473567  49.8053093
  43.9390488  -2.9980323  49.2063255  44.1389427  -1.1284165  50.1716537
  43.5335960  -0.7519892  50.8871689  45.4671555  -0.8169624  50.1934280
  46.3277473  -1.4069839  49.4033318  46.0482101  -2.0511351  48.6773605
  47.2899399  -1.2309188  49.6548996  45.8574448   0.1854674  50.9074745
  45.1461411   0.6983660  51.4085503  46.8050728   0.5310814  50.9590225
  41.1320915   1.0629653  46.1799850  41.1413956   2.2376397  46.5350342
  40.0414047   0.4159843  45.7851372  40.0746803  -0.5647589  45.5461044
  38.7696838   1.0816634  45.8325119  38.8045578   2.1500034  45.6191254
  37.9086342   0.4958683  44.6544151  38.5727005   0.7623386  43.8321533
  37.9253883  -0.5877519  44.7709732  36.5300598   1.0870851  44.5378723
  36.1302147   1.9801189  45.3590775  35.8592300   0.6660424  43.5075684
  38.1363258   0.7092707  47.2428856  37.7774467  -0.4354489  47.5046272
  38.2242088   1.6184919  48.1958389  38.7118378   2.4771821  47.9837761
  37.7343941   1.3661438  49.5865288  36.7587090   0.8830631  49.5338020
  38.6489830   0.3792332  50.4390030  38.6303558  -0.6575640  50.1031418
  40.1154404   0.8312678  50.4716301  40.1822929   1.7543374  51.0474510
  40.6632500  -0.0282668  50.8578949  40.4574471   0.9848756  49.4481392
  38.2337036   0.4636507  51.7383957  38.8891945  -0.0102596  52.2554436
  37.6046219   2.7165713  50.3374252  38.5078011   3.5794199  50.1406479
  36.6513977   2.8622408  51.2647324  35.9183121   2.1692159  51.3137169
  36.6146851   4.0180030  52.1701050  36.3614769   4.9515033  51.6675491
  35.4593391   3.7599795  53.1327019  34.5928955   3.6256642  52.4851379
  35.5971489   2.7602508  53.5445900  35.3166428   4.7561393  54.2094078
  36.2582817   4.7858424  54.7576218  34.9727402   5.6883044  53.7611885
  34.1829033   4.3464708  55.1719704  34.4897232   3.9510746  56.3344460
  33.0236092   4.1910520  54.7332535  38.0285645   4.2488341  52.8304253
  38.4195862   5.4056339  52.8488503  38.7732239   3.2377107  53.2020454
  38.4478836   2.2981455  53.0246391  40.0904160   3.4432104  53.8350372
  40.0547409   4.1502147  54.6638756  40.6002274   2.0662646  54.3862381
  40.5162392   1.3568829  53.5629387  41.6142273   2.1922312  54.7657623
  39.7319717   1.5019236  55.5588875  39.3126602   2.2587171  56.2218666
  38.7886810   1.0572176  55.2418098  40.3697014   0.4941973  56.3979187
  40.8164864   0.8272730  57.5283852  40.3428192  -0.6621202  56.0086327
  41.1751747   4.1302748  53.0534744  42.1761093   4.6157908  53.6586418
  40.9849434   4.1810775  51.7670097  40.1750031   3.6812422  51.4289856
  41.7339897   5.0181394  50.8566704  42.5470314   5.5431099  51.3581429
  42.1948624   4.1798286  49.6548500  41.3466148   4.0287066  48.9872055
  42.8673592   4.8400869  49.1072083  43.0464859   2.9056816  50.0178032
  42.2852211   2.1494081  50.2091827  43.5910034   2.4759805  49.1769981
  44.0271988   3.0767164  51.1366768  44.2628937   2.1989999  52.0546837
  44.7321930   4.1278567  51.1500969  40.8792763   6.2472825  50.4505539
  41.2831650   7.3585186  50.7129860  39.6697884   6.1147938  49.9247780
  39.2204514   5.2112389  49.8825150  38.9033890   7.1827354  49.3117867
  39.5893250   7.5826397  48.5650101  37.6332283   6.6935329  48.4859619
  36.9790878   6.1006727  49.1252747  36.7576981   7.8592973  47.8827896
  37.4581146   8.5262060  47.3800468  35.9657898   7.5196300  47.2152519
  36.3734322   8.5293198  48.6518898  38.2048988   5.8281288  47.3040619
  38.8010368   6.4992695  46.6857681  38.9265022   5.1202159  47.7118073
  37.2920723   4.7943950  46.6324883  36.6793213   4.1575379  47.2704926
  36.6727448   5.3135610  45.9010544  37.8650932   4.0592070  46.0674782
  38.5847435   8.2604046  50.3103981  38.8207588   9.4022331  49.9847031
  38.0959320   7.8974934  51.5474014  38.0957870   6.9205151  51.8035507
  37.8682594   8.9458618  52.6057968  37.3333435   9.7618093  52.1198006
  36.9113045   8.2638102  53.5914421  36.0564384   7.8069406  53.0928688
  37.2869225   7.4491134  54.2105446  36.3197136   9.2954645  54.5109215
  36.4286880  10.2544870  54.0044594  34.8436699   9.0220089  54.8004799
  34.3296661   9.2415619  53.8646927  34.7511406   7.9647837  55.0491028
  34.4481316   9.6134768  55.6262093  36.9622307   9.3699932  55.8787346
  36.4038925  10.0335703  56.5390511  37.0897827   8.4276524  56.4114838
  37.9964561   9.7117949  55.8379936  39.1850510   9.5322914  53.1735802
  39.1226730  10.6862278  53.5071869  40.2233734   8.7716541  53.2971344
  40.0732956   7.8158484  53.0072861  41.4938087   9.1141205  53.8542976
  41.3236961   9.8101339  54.6757240  42.1680298   7.8606749  54.4347305
  42.4422340   7.1696696  53.6375961  43.0734749   8.2422342  54.9066162
  41.4243240   7.0017138  55.4045944  40.4956818   6.6861825  54.9290314
  42.0529480   6.1433554  55.6415634  41.1773529   7.7575402  56.7454605
  41.8709831   8.6594629  57.1318398  40.2592812   7.3152862  57.5980492
  39.7747917   6.4291029  57.5910454  40.2619553   7.8683639  58.4431534
  42.4599495   9.9468231  53.0031204  42.9678764  10.9573183  53.4874916
  42.5515289   9.6073666  51.6743736  41.9730949   8.8518925  51.3355942
  43.3444786  10.4661407  50.7890205  44.2255135  10.8237028  51.3219681
  43.7641258   9.6750269  49.5765877  42.8794403   9.3008385  49.0614090
  44.1925774  10.3824234  48.8665733  44.7368584   8.4960804  49.8586998
  44.2051582   7.8043976  50.5121269  44.8898010   7.9707561  48.9159622
  46.0412292   8.8196058  50.5247917  46.3817978   9.7297497  50.0310669
  45.9289627   8.8036146  51.6088753  47.1080627   7.7404623  50.3341331
  46.6908417   6.8108220  50.7211685  47.2636986   7.4305453  49.3007736
  48.3431511   8.0990028  50.9673653  48.2379036   8.4508066  51.9082489
  48.9397278   7.2935028  51.0913391  48.8514900   8.7775755  50.4185219
  42.5557480  11.6649265  50.3735847  43.0977707  12.7679768  50.3426781
  41.2161865  11.6042070  50.2383537  40.8302040  10.7227249  50.5451202
  40.4194603  12.7986937  49.9593964  40.8527603  13.2870893  49.0865669
  38.9683151  12.4774981  49.5182114  38.4048119  11.9950037  50.3168106
  38.2636795  13.7922440  49.1443329  39.0947914  14.4658947  48.9356651
  37.5983238  13.7053328  48.2853546  37.7337914  14.2411814  49.9844437
  39.0812569  11.6378813  48.3417091  38.9161949  10.7587967  48.6903687
  40.4195938  13.6669178  51.2260246  40.4400711  14.8764896  50.9761734
  40.4381599  13.1784678  52.4831047  40.2591705  12.2204790  52.7482872
  40.5434113  14.0683117  53.6540642  39.7632713  14.8283930  53.6121368
  40.4488792  13.1723003  54.8935509  39.4089622  12.8490410  54.9402237
  41.1724091  12.3583336  54.8481445  40.4388390  13.8588963  56.2598495
  40.2290115  14.9199324  56.1246719  39.6853104  13.5046272  56.9632645
  41.8875694  13.7671165  56.7691765  42.2687759  12.7503710  56.8640938
  42.4398079  14.2679825  55.9740257  42.1843224  14.4117689  58.1818466
  41.8042946  15.4330778  58.1571236  41.5917625  13.8308039  58.8885651
  43.5932884  14.3827515  58.5023041  43.7077560  14.4746685  59.5015755
  43.9542122  13.4608564  58.3024406  44.0782471  15.1330757  58.0312080
  41.9155846  14.8095903  53.6035919  41.8793945  15.9853029  53.8362732
  42.9980240  14.1685686  53.1666336  42.9663124  13.1729641  52.9997063
  44.3106689  14.8683624  53.1018639  44.5353775  15.2290401  54.1056137
  45.4091644  13.7791634  52.8439445  45.2352753  13.2463160  51.9090996
  46.3873520  14.2115545  52.6334839  45.4908409  12.8717728  54.0904427
  46.1035767  13.3527870  54.8528633  44.4928741  12.7171698  54.5006371
  46.1095276  11.4939508  53.7606354  46.4413490  11.0739269  52.6440201
  46.5060120  10.8405323  54.7420883  46.8980980   9.9229136  54.5860519
  46.5404739  11.3087273  55.6363487  44.4491653  15.9040956  52.0323639
  45.2479324  16.8375854  52.2261658  43.6986427  15.7372160  50.9474831
  43.1833000  14.8724356  50.8657494  43.4428482  16.7130661  49.8928986
  44.3995018  17.1372147  49.5879211  42.7257576  16.0594902  48.6429977
  43.3507614  15.2400951  48.2879410  41.7865906  15.6267014  48.9876213
  42.4252510  17.0659313  47.5987320  41.6056595  17.6798344  47.9722214
  43.5839882  17.9641171  47.1124535  44.1138115  18.5629883  47.8532181
  44.3922310  17.3591652  46.7015038  43.2266541  18.6449680  46.3398895
  41.8518677  16.3311272  46.3659096  40.9595795  15.7781467  46.6593895
  41.4950676  16.9893513  45.5737381  42.5763245  15.6221724  45.9651070
  42.6559181  17.8949223  50.5308762  43.1797142  19.0146809  50.4355469
  41.4691048  17.6085587  50.9976616  41.2208824  16.6301022  50.9643555
  40.5895882  18.6642780  51.6261330  40.3044281  19.3323479  50.8134422
  39.2717972  18.0999088  52.0870667  39.5809212  17.2639828  52.7145767
  38.7029953  18.8538303  52.6312790  38.2906837  17.5786648  51.0092773
  38.8295898  16.7714443  50.5132179  36.9234123  17.2261620  51.6661148
  36.2306824  16.8723640  50.9025345  37.2109642  16.3939514  52.3086395
  36.5798302  18.0708618  52.2632179  37.9093819  18.6478157  50.0017395
  38.7099075  19.2103748  49.5213394  37.4647102  18.0891075  49.1781998
  37.2402802  19.4247971  50.3714676  41.2389984  19.4576073  52.7223854
  40.9654694  20.6419659  52.9214020  42.1056786  18.7563210  53.4896660
  42.1885796  17.7499237  53.5094528  42.7400627  19.4424400  54.5925446
  42.0897179  20.1553268  55.0994377  43.2550697  18.3742409  55.5784073
  42.3900185  17.7437057  55.7838783  44.0499268  17.7889595  55.1160812
  43.7846642  18.9080181  56.9336319  44.5839462  19.6270256  56.7539864
  42.9323158  19.4249363  57.3745461  44.2283173  17.7875729  57.8937187
  44.1514778  17.9047298  59.1834831  44.6047249  16.7207680  57.4506989
  43.9624710  20.2748585  54.1131287  44.2311897  21.3000298  54.6971550
  44.6481972  19.9477081  52.9926910  44.4648476  19.0498543  52.5680237
  45.7739296  20.7724438  52.3936882  46.3405151  21.1975536  53.2221603
  46.6798973  19.7964954  51.6605835  47.2037468  19.1815548  52.3923836
  46.0395279  19.2137642  50.9984245  47.9020462  20.4502010  50.9435310
  48.2939758  19.6327438  50.3383408  47.5998535  21.2259121  50.2399330
  48.8504219  21.0973301  51.8951874  48.5424118  22.0773811  52.2595062
  49.0143471  20.3791065  52.6985435  50.1241875  21.2663727  51.0745163
  50.4386749  20.2406101  50.8821106  49.8387260  21.7721920  50.1521492
  51.1291504  21.9897938  51.7621269  50.8296089  22.8750401  52.1451530
  51.6385727  21.3833313  52.3888588  51.7675362  22.2538166  51.0253372
  45.1149330  21.9022522  51.6268959  45.5217934  23.0343323  51.7563057
  44.0553017  21.6890717  50.8720551  43.6532555  20.7638988  50.9222450
  43.2872124  22.6859798  50.1642113  43.9178734  23.0323963  49.3454514
  41.9630928  22.1025562  49.5932426  41.5878372  21.3458614  50.2822266
  40.7637482  23.1149406  49.3302345  41.0409050  24.0307426  48.8081322
  39.9327354  22.5723724  48.8795242  40.3757858  23.4770794  50.2823105
  42.3745346  21.3807220  48.2558441  42.9372139  22.0175018  47.5732002
  43.0343246  20.5593185  48.5352631  41.2246475  20.6643925  47.4838905
  41.5941238  20.1253796  46.6115074  40.8271790  19.9367809  48.1914940
  40.4398689  21.3124943  47.0937805  42.9531059  23.8424034  51.0866318
  43.0856667  25.0128746  50.7351341  42.4159317  23.5404854  52.2731628
  42.2016220  22.5750942  52.4785690  41.8950195  24.5437374  53.2522659
  41.3488312  25.2189579  52.5935898  40.9064026  23.9594536  54.3096542
  41.2746468  22.9835091  54.6259270  40.6592216  24.7823029  55.6395111
  40.2877617  24.1420937  56.4396667  41.6090889  25.1980114  55.9757233
  39.8237801  25.4800758  55.5825539  39.4978333  23.7474842  53.6897888
  38.9658165  24.6877518  53.5450249  39.6650467  23.3479481  52.6895332
  38.5767174  22.7118835  54.3855209  39.2129364  21.9199371  54.7806778
  38.1474533  23.0981312  55.3099937  37.8782806  22.2233887  53.7060661
  43.0789032  25.3160515  53.8975945  43.0472412  26.5341969  53.9285393
  44.2050934  24.5849304  54.3132057  44.2205315  23.5760441  54.2683792
  45.4410820  25.2326736  54.8841324  45.2950287  25.7160950  55.8500862
  46.4156532  24.0784473  55.0697556  45.9544487  23.5599289  55.9103050
  46.4613876  23.3855438  54.2295761  47.8256416  24.4507294  55.5749893
  48.3366318  23.5513401  55.9186325  48.3220558  24.9371548  54.7353020
  47.8164978  25.4293003  56.7723083  48.7213440  26.3124580  56.8687439
  46.8530197  25.3761883  57.6126595  46.0292168  26.2337055  53.9113083
  46.7422943  27.1904430  54.3332825  45.8974190  25.9946728  52.6830139
  45.3085709  25.2397614  52.3613586  46.5936165  26.7395687  51.6467400
  47.5137062  27.1174374  52.0925484  47.0973587  25.7641048  50.5545044
  46.1843872  25.3000584  50.1813507  47.4849815  26.4938564  49.8436508
  48.1381798  24.7096748  50.9778290  47.7505226  24.1687832  51.8411140
  48.3428459  24.0501995  50.1344414  49.5295448  25.3416138  51.4430695
  50.2360268  24.7584858  52.3372231  49.9560699  26.4690800  50.9641266
  45.7948685  27.9199390  51.1077385  46.3773346  28.9890404  50.8650131
  44.5446320  27.8261585  51.1174202  44.1888695  26.9828682  51.5445061
  43.6533928  28.9335384  50.8999290  44.2038956  29.6136684  50.2499428
  42.4533501  28.4660473  50.0870247  41.9395638  27.6441174  50.5855751
  41.7338333  29.2828979  50.0309410  42.9808121  28.1155052  48.6840286
  43.4136124  28.8702621  47.8829308  43.2061691  26.8699188  48.4775391
  43.6560097  26.6704311  47.5955276  43.1086845  26.1220970  49.1493759
  43.1955795  29.7901211  52.1116943  42.6732559  30.9122276  51.9395943
  43.4120636  29.2669125  53.3425179  43.7572517  28.3179245  53.3616714
  43.0727539  29.8021374  54.6311684  43.3005905  29.0402813  55.3766670
  43.8376312  31.0658207  54.8251610  43.5506744  31.8303146  54.1031456
  43.6077003  31.4558296  55.8166885  45.3679466  30.8576832  54.7979279
  46.1762466  30.8509731  53.6634293  45.9604797  31.1995735  52.7403793
  47.3752365  30.3585930  54.0324707  48.2096672  30.2317696  53.3586426
  47.2939262  30.0146141  55.3241119  48.0307579  29.6456356  55.9080925
  46.0240517  30.2750988  55.8091431  45.5889931  30.1266365  56.7864265
  41.5635262  29.9683094  54.8394318  41.1082764  31.0325108  55.2804871
  40.8093147  28.9537907  54.4164581  41.2899208  28.3191757  53.7948647
  39.3316689  29.0222416  54.2270393  39.0938988  30.0321884  53.8930130
  38.8104095  27.9804134  53.1763153  38.7918282  26.9961586  53.6442871
  37.3815155  28.1322269  52.6189995  37.0759659  27.4988079  51.7862244
  36.6937447  27.9241676  53.4386253  37.2498970  29.1680183  52.3060951
  39.5520935  27.9881248  51.9736366  39.3695221  28.8517303  51.5962029
  38.6282959  28.6385956  55.5602570  39.0689087  27.8063374  56.3434563
  37.4361382  29.1699619  55.7396736  37.0836411  29.8013344  55.0345345
  36.2471237  28.8215866  56.5789490  36.5570984  27.8707809  57.0125198
  36.0584831  29.9266605  57.7024269  35.3514748  29.5608788  58.4470406
  37.0724525  30.1145973  58.0554810  35.4775238  31.3019104  57.2501259
  36.3797836  31.8239994  56.9316063  34.6131744  31.3266411  56.5865097
  34.9608345  32.0961189  58.5123749  34.1384926  31.5118484  58.9252701
  35.8301735  32.2609482  59.1489143  34.4540672  33.5458527  58.1720657
  33.6130867  33.5169907  57.4792328  34.2668457  34.0021400  59.1440964
  35.4433022  34.3088493  57.3656197  35.6823082  33.7514877  56.5579529
  35.1571770  35.2331657  57.0760117  36.3411942  34.4510651  57.8056984
  34.9921646  28.5339928  55.7541847  34.7801743  29.2453766  54.7572327
  34.1193962  27.5699711  56.1899796  34.3042297  26.7766075  57.4304657
  34.3666687  27.3992863  58.3229218  35.1468582  26.0916367  57.3361359
  32.9086304  25.9714832  57.5531731  32.2763214  26.5843983  58.1955299
  33.1164169  25.0650654  58.1217957  32.3907394  25.8456383  56.1137161
  31.3041191  25.9288464  56.1345177  32.7072792  24.9218235  55.6294975
  32.9398956  27.1003895  55.4190598  33.2348633  26.7914181  54.4162483
  31.9767437  28.2274017  55.1916733  31.2781086  28.2401028  54.1677818
  31.8290348  29.2027111  56.1430855  32.3314934  29.1850204  57.0190582
  30.9220448  30.3566284  56.0165367  29.8965397  29.9983482  55.9266586
  31.0126114  31.0891438  57.4060287  32.0543709  31.2630730  57.6754532
  30.5253429  32.0471420  57.2246094  30.3396740  30.3781929  58.6112404
  30.0538235  31.0941811  59.3817940  29.3850651  29.9490871  58.3067856
  31.2213993  29.3865528  59.3854446  32.4561539  29.1292248  59.1366882
  30.7825565  28.7664566  60.3834343  31.1779785  31.3341923  54.9127884
  30.2979374  32.0780754  54.4996605  32.3460655  31.2760124  54.2648849
  32.9864731  30.5813847  54.6219139  32.7374649  31.8991718  52.9892502
  32.0126610  32.7008362  52.8475113  34.0757828  32.6109428  53.0689735
  34.7721710  31.7724037  53.0684128  34.1813507  33.1857948  52.1489220
  34.3349380  33.3643799  54.3591385  35.4561157  33.2590981  54.8513718
  33.5436935  34.2422714  54.8484268  32.8476219  30.8900795  51.7617073
  33.1232338  31.2771187  50.6334534  32.3790207  29.6560707  51.9475403
  32.0725288  29.3435879  52.8577690  32.1986198  28.6857796  50.7822418
  33.0258789  28.9921780  50.1420403  32.3406715  27.1670685  51.1795044
  31.5940971  26.7856712  51.8761139  32.3099289  26.2608147  49.9121246
  31.3790112  26.4048882  49.3637314  33.0654221  26.5891037  49.1982956
  32.5056572  25.2114754  50.1327629  33.7109032  26.9000397  51.8418808
  34.5281754  26.9269485  51.1211548  34.1161232  27.4891472  52.6645889
  33.6755943  25.8512344  52.1365967  30.8974838  29.0721321  50.0805321
  29.8481464  29.3022537  50.7654953  30.9001999  29.1078110  48.7726555
  31.7414169  28.8396358  48.2822113  29.6211109  29.3113232  47.9919205
  28.9618454  30.0007439  48.5193367  29.9835262  29.9032478  46.5330505
  30.6789017  29.2281647  46.0342293  28.8373260  29.9109173  45.5218124
  29.1430073  30.3108444  44.5550079  28.3912830  28.9341965  45.3342972
  28.0686760  30.5766888  45.9142838  30.5097160  31.3807430  46.5329361
  30.4710484  31.8184338  45.5354233  29.9997673  32.0016098  47.2695351
  31.5299740  31.3414764  46.9145584  28.9904156  27.9428310  47.8566055
  27.7499428  27.8011379  48.1321602  29.7727089  27.0018673  47.4342918
  30.6874485  27.2421570  47.0798607  29.5867996  25.5131397  47.1475754
  29.2046318  24.9193439  47.9779091  28.6127548  25.4003315  45.8852463
  28.4093018  24.3412781  45.7267685  27.7003498  25.9501839  46.1160774
  29.1833248  25.8585529  44.5403404  29.4782352  26.9054432  44.6121063
  29.8494701  25.1489925  44.0495491  28.0067329  26.0001602  43.5116501
  27.1676483  26.8519783  43.7056503  27.8443832  25.1306019  42.5813332
  28.4990005  24.4294720  42.2651062  26.9888897  25.1721573  42.0460739
  30.8231354  24.7858524  46.7350006  31.8548050  25.3894806  46.4143372
  30.8136997  23.4706211  46.7728958  29.9038639  23.0321159  46.7765350
  31.9200420  22.6306629  46.3663864  32.5775108  23.2369804  45.7433205
  32.8145447  22.2594585  47.5761375  33.2264862  23.2100964  47.9147873
  32.1322556  21.7883091  48.2836647  34.0222855  21.3872185  47.1415672
  33.6162224  20.4421902  46.7808228  34.4273148  21.8502941  46.2417831
  35.4660072  21.2047806  48.2639542  34.7494659  20.0152836  49.5417480
  35.0668182  18.9851589  49.3797646  35.0536804  20.2872467  50.5524864
  33.6609650  20.0470963  49.4943352  31.4044685  21.4152451  45.5079269
  30.6955318  20.5648766  46.0419312  31.9832726  21.2479668  44.2649918
  32.6730614  21.9552269  44.0550461  31.8047791  20.1680603  43.3166046
  30.9047394  19.6321888  43.6180611  31.4929504  20.7832241  41.8967743
  30.5922871  21.3948441  41.9499626  32.2430649  21.5318947  41.6419868
  31.5161591  19.7906570  40.7498474  32.4827995  19.3249626  40.5579109
  30.4805374  18.7159615  40.9847412  30.6651783  17.9607105  41.7486763
  29.4889488  19.1613503  41.0652618  30.3321648  18.1064091  40.0933762
  31.2101173  20.5324249  39.4255295  31.1683025  19.8698483  38.5610390
  30.3730659  21.2282410  39.3682251  32.0043640  21.2415333  39.1922112
  32.9527321  19.2050838  43.3442383  34.0900955  19.5478554  43.2154045
  32.7207375  17.9362278  43.6343575  31.7674809  17.6082401  43.5724907
  33.7304382  16.7899361  43.6917839  34.7609024  17.1280251  43.5824661
  33.6374893  16.0582695  45.0188828  32.5998268  15.7587271  45.1659660
  34.1530685  15.1223564  44.8036041  34.1941109  16.7291107  46.2187347
  34.9040642  17.4798088  45.8715744  33.0467491  17.4207668  46.9560356
  32.6632156  18.2235641  46.3263397  32.2806816  16.6724644  47.1592216
  33.4605980  17.8618889  47.8628120  34.8230095  15.7143221  47.2698288
  34.1440926  14.8631382  47.3213882  35.7306633  15.3439379  46.7932968
  35.0565109  16.0890636  48.2663956  33.4954071  15.8053141  42.5328636
  32.3532486  15.6892691  42.0765457  34.4676056  15.0512276  42.1336441
  35.3527031  15.2235155  42.5886345  34.5240402  14.1878538  40.9495735
  33.4915466  14.0387650  40.6336174  35.1680603  14.9755602  39.8909035
  34.8888931  16.0292034  39.8894539  36.2492371  14.9387074  40.0243034
  34.8262024  14.4013853  38.6135712  35.3365479  14.9469757  38.0106697
  35.3604126  12.9842062  41.1126900  36.3082695  13.0084858  41.8651390
  35.0279808  11.8422022  40.4529381  34.2193909  11.7469559  39.8552704
  35.9693909  10.6725912  40.3784714  36.9857597  10.9953737  40.6041069
  35.5354004   9.6296854  41.3963318  35.5930862   9.9997778  42.4199562
  34.4778709   9.3985262  41.2686768  36.0829544   8.6964149  41.2648239
  36.0567780   9.9707994  39.0163765  35.0461922   9.9498386  38.2902489
  37.2209969   9.4302120  38.6976318  38.0441399   9.5765524  39.2643051
  37.2803421   8.4980526  37.5265121  37.0025787   9.0996609  36.6610527
  38.7411423   8.0860205  37.3592567  38.7984657   7.2634211  36.6464119
  39.5794868   9.2055054  36.8869858  39.1493607   9.6750441  36.0023232
  39.5466499   9.9000654  37.7263947  40.5951958   8.8584566  36.6972847
  39.2668228   7.5954118  38.5503502  39.1778755   6.6402864  38.5125504
  36.3267174   7.2545257  37.7318687  35.9214897   6.9294076  38.8116035
  35.9184952   6.5308862  36.6243248  36.1513290   6.8167152  35.2438240
  37.2075958   6.9269977  34.9983749  35.6312675   7.7255330  34.9410286
  35.5232887   5.5803652  34.4557457  36.1207619   4.6713324  34.5249290
  35.2942276   5.7622724  33.4057236  34.3370781   5.3170099  35.3058853
  33.9035454   4.3557487  35.0299797  33.6471291   6.1393971  35.1167870
  34.8340836   5.5286016  36.7083664  34.0320358   5.9030461  37.3444595
  35.2434425   4.1168442  37.2815781  34.4317284   3.2093253  37.1800499
  36.4707947   4.0262203  37.7291565  36.9789543   4.8756218  37.9301262
  36.9970398   2.8992484  38.4338074  36.4717407   2.0576353  37.9823074
  38.5129128   2.7520061  38.0866623  39.0526733   2.2021620  38.8576546
  38.5471916   2.3085096  37.0915565  39.2613297   4.0851040  37.9550133
  40.2339554   4.1444035  37.2191048  38.8487549   5.1320457  38.5436172
  36.8616905   2.8868716  40.0122795  37.1328926   1.8930174  40.6539726
  36.3775024   3.9289372  40.6433601  36.1802750   4.7262902  40.0556221
  35.9286880   3.9770949  42.0673141  36.4656487   3.2554424  42.6829414
  36.2522812   5.3452158  42.5646629  35.6708984   5.9917259  41.9073067
  35.8915977   5.4103708  43.5911942  37.7037010   5.8388805  42.5300560
  37.9982567   6.1519089  41.5283813  37.9571381   7.0631261  43.4241753
  37.4114685   7.8869619  42.9641266  37.6380539   6.9052658  44.4543991
  39.0133400   7.3320746  43.4384918  38.7189407   4.7494345  42.9070244
  38.9231911   3.9993634  42.1429825  39.5914612   5.2939191  43.2680626
  38.2651024   4.1874037  43.7232704  34.4078217   3.6663613  42.2586517
  33.6345978   3.9975169  41.3307228  34.0025368   3.0554755  43.3649597
  34.7230377   2.6624277  43.9535942  32.5492172   2.7126927  43.7433929
  31.9904728   3.5396025  43.3050728  32.1627541   1.3830681  43.0876732
  32.5339546   0.5773089  43.7209702  31.0774822   1.2878095  43.0528679
  32.6745110   1.1140759  41.6902618  33.9760094   0.7695044  41.3319016
  34.7782249   0.7182323  41.9433937  33.9391632   0.5432896  39.9846191
  34.8514977   0.2945209  39.4629211  32.6791725   0.6202195  39.4933128
  32.3861122   0.1798741  38.6329002  31.8683033   1.0676429  40.5698662
  30.8106823   1.2782027  40.5106773  32.3265495   2.6297987  45.2386398
  31.1787319   2.3992283  45.6732178  33.4070625   2.4949641  46.0493126
  34.3200951   2.4173853  45.6245117  33.1393890   1.9914443  47.4607620
  32.5602150   1.0735648  47.3599930  34.4547348   1.5425192  48.1292229
  35.0253372   0.9288428  47.4321480  34.9972420   2.4298363  48.4554977
  34.3223190   0.9730529  49.0491600  32.3653145   2.9914544  48.2744102
  31.5910397   2.5808260  49.1204185  32.4883881   4.2696633  48.0568581
  33.0999603   4.4671340  47.2776947  31.9065380   5.4722338  48.7298584
  30.9246960   5.1246510  49.0512276  32.6942749   5.7212405  50.0556259
  32.8716660   4.7200942  50.4484901  34.1703148   6.3601370  49.9119339
  34.5977173   5.9906316  48.9797859  34.1542130   7.4488759  49.9618187
  34.6279869   6.0925050  50.8643036  31.9329567   6.4861875  51.1242218
  32.5983047   6.6856799  51.9642296  31.5359478   7.3615313  50.6101570
  31.0804577   5.8879128  51.4458046  31.9266872   6.6586499  47.7735901
  32.7389679   6.7401958  46.8513527  31.0391674   7.6442900  48.0727844
  30.3448792   7.4600353  48.7827988  30.9373913   8.9350805  47.3802071
  30.9316082   8.8521996  46.2933807  29.6117153   9.6293535  47.6246567
  29.2068748   9.4349527  48.6178398  29.8494644  10.6916952  47.5698318
  28.3846474   9.3412609  46.6792831  27.3160248   8.6466227  47.1580620
  27.1741543   8.5376377  48.2231407  26.2034836   8.2666855  46.3155098
  25.3723831   7.7312207  46.7501945  26.4128246   8.4906731  45.0084152
  25.6193428   8.2729836  44.3088493  27.4775314   9.2055674  44.4776611
  27.5411892   9.3251486  43.4061890  28.4731426   9.7225752  45.3291130
  29.2858448  10.3008013  44.9149017  32.1493111   9.7692738  47.8484306
  32.3592606   9.7378950  49.0492821  32.9669838  10.4584522  47.0881882
  32.7999229  10.6543579  45.6849556  31.7736225  10.9805489  45.5163918
  33.0009308   9.6945248  45.2091255  33.8361893  11.7066441  45.1966248
  33.3736801  12.6932287  45.2255440  34.2374306  11.5561867  44.1943893
  34.8547974  11.6611633  46.2803001  35.4360275  12.5785828  46.3731270
  35.6164055  10.9377127  45.9893074  34.2281113  11.1534405  47.6063423
  34.8494072  10.4050941  48.0983467  33.7807770  12.2143936  48.6001015
  34.4361801  12.4266300  49.5923615  32.6239586  12.8495150  48.5108719
  32.0653954  12.6946259  47.6837578  32.2921791  13.9663334  49.4072151
  33.1597748  14.6261139  49.3990402  31.1259060  14.7008486  48.7533340
  31.0201817  15.6097889  49.3455772  31.1439342  14.9663458  47.6963158
  30.2716408  14.0240784  48.7357330  31.9232254  13.5465364  50.8301964
  31.6964550  14.3875980  51.7144508  31.8875046  12.2660913  51.0944977
  31.9643250  11.6246052  50.3181648  31.6349831  11.6969328  52.4684448
  30.7336559  12.1857872  52.8382187  31.3753796  10.1885614  52.4705849
  30.9280586   9.8835812  51.5245476  32.3283348   9.6594515  52.4750443
  30.4478836   9.6488895  53.6482811  30.8867359   9.6937571  54.6450233
  29.6523552  10.3932314  53.6137810  29.8891411   8.2394857  53.3646622
  29.5716476   8.3240614  52.3253632  30.7370987   7.5548158  53.3474922
  28.8536758   7.7909455  54.4163857  29.3718166   7.4766665  55.3223991
  28.2497559   8.6162930  54.7934685  28.0746422   6.6824174  53.9483147
  28.7021999   6.0219946  53.5122948  27.7101383   6.0988808  54.6877251
  27.4041004   6.9953465  53.2608948  32.7198944  11.9733925  53.5355148
  32.5062065  11.8443384  54.7563629  33.8399582  12.4348450  53.0006676
  34.0275421  12.4978056  52.0102386  34.9464340  13.0166206  53.7470779
  35.2428894  12.2565660  54.4699440  36.2321663  13.2290525  52.8852997
  36.4043198  12.3416185  52.2762527  35.9574356  13.9451971  52.1108551
  37.1266747  13.5482569  53.4201508  34.6747322  14.2978458  54.5496521
  35.2840576  14.4800892  55.5977783  33.6754341  15.1052837  54.1666641
  33.1765938  14.8004236  53.3430634  33.3508568  16.4049301  54.7390900
  34.2996407  16.9354172  54.6584816  32.4870911  17.2629433  53.8107452
  31.6944771  16.6507492  53.3805237  31.9619732  18.5650043  54.4278946
  31.6972561  19.2911282  53.6592789  31.1681461  18.3562870  55.1450958
  32.7224159  19.0604553  55.0315132  33.3842316  17.6850700  52.6613846
  34.2146378  18.3001270  53.0081253  33.7747726  16.8364334  52.0997849
  32.8067322  18.2540970  51.9328156  32.8434486  16.3199387  56.1830254
  33.0433426  17.2694988  56.9580078  32.4670410  15.1296806  56.7046967
  32.3456078  14.3161688  56.1185608  31.9967422  14.9124498  58.1243668
  31.2192841  15.6540318  58.3079834  31.3449669  13.4886560  58.0994453
  30.7140884  13.5628328  58.9852180  30.6886253  13.3422289  57.2416153
  32.2759933  12.2772408  58.1885147  32.9483299  12.4082193  57.3406296
  32.8652420  12.3085499  59.1049843  31.5418091  10.9702940  57.9927788
  30.8609200  10.7989759  58.8265305  30.8883209  11.1823120  57.1465492
  32.5757484   9.9034977  57.8817482  33.3695412   9.9612608  58.5035667
  32.4499817   8.6409264  57.4031715  31.3064957   8.2147865  57.0152664
  30.6197662   8.9539766  57.0611115  31.1407642   7.2768326  56.6792908
  33.3444977   7.7554808  57.5321274  33.2102966   6.7859859  57.2827873
  34.2648201   8.0433817  57.8325005  33.1800079  15.0686235  59.1164856
  32.9740181  15.3326302  60.2650375  34.4440727  14.9326468  58.6783829
  34.6212616  14.8102522  57.6916084  35.6005440  15.1168737  59.5982628
  35.4052162  14.6754694  60.5755615  36.7897873  14.2631569  59.0809479
  37.0867004  14.4996529  58.0591774  37.6177368  14.3874788  59.7789078
  36.3695679  12.7842312  59.2457581  35.4134216  12.6132965  58.7511253
  37.1093559  12.2832079  58.6214294  36.4460869  12.2000360  60.6953812
  35.9180489  11.0898533  61.0039215  37.0628471  12.8823175  61.5759315
  36.0058594  16.5419216  59.9321365  36.6455879  16.8354855  60.9349709
  35.6212845  17.4997387  59.0655136  34.8750725  17.0855885  58.5253754
  35.7874451  18.9264717  59.2205849  36.7587166  19.1310463  59.6710091
  35.7794380  19.5234718  57.8075790  34.8242493  19.2948284  57.3348770
  35.7513161  20.6125011  57.8439522  36.9770470  19.0578899  56.9643250
  36.9061470  18.0409908  56.5783348  36.9305382  19.8861179  55.6227531
  37.8759346  19.7873688  55.0892944  36.3337517  19.4836426  54.8042412
  36.6665993  20.9394093  55.7176933  38.3614769  19.3417320  57.6577721
  38.3912430  18.5724449  58.4294052  39.1860657  19.1546078  56.9699173
  38.3970566  20.3530750  58.0627632  34.7386589  19.4989605  60.1966629
  33.6323700  19.0128117  60.0986710  35.1720352  20.3276558  61.1171951
  36.1443291  20.5475101  61.2796860  34.2712021  21.0195141  62.0794334
  33.4739723  20.3114986  62.3057976  35.1782150  21.5098629  63.2535248
  35.7479134  20.6882458  63.6876755  35.8462830  22.2732506  62.8547363
  34.4333611  22.2226143  64.3102951  34.2241135  21.4948769  64.9003906
  33.6341095  22.2516956  61.4694443  34.1764793  22.8597717  60.5790367
  32.3541183  22.5665531  61.8256493  31.9439697  22.1079731  62.6266403
  31.5829391  23.7098427  61.2700653  30.9542332  24.1343155  62.0527878
  32.3077507  24.4880219  61.0309296  30.9137497  23.5189838  59.9478149
  29.8551941  24.0935783  59.8319206  31.5005779  22.7339993  58.9919090
  32.3681107  22.2657166  59.2114525  31.0625629  22.5704308  57.6273613
  31.0068054  23.6003914  57.2749825  32.1119537  21.7774258  56.8545380
  32.5132179  21.0071869  57.5131912  31.6943817  21.2186871  56.0169525
  33.2602654  22.5063038  56.2775955  34.3094292  22.9707909  56.9977341
  34.3628044  23.0016994  58.0759697  35.1590881  23.5945873  56.1163521
  35.9536705  24.1571999  56.3850708  34.8033829  23.3585129  54.8331261
  35.3980103  23.7606010  53.5599785  36.2920799  24.3641262  53.6128883
  34.7244301  23.3800945  52.3378067  35.1168976  23.6008549  51.3561592
  33.4822502  22.7233791  52.4141846  32.9617043  22.6049328  51.4753532
  32.9585495  22.3115616  53.6494446  32.0040855  21.8181400  53.7586708
  33.5605202  22.6396313  54.8609848  29.6739750  22.0411587  57.4194260
  29.3613663  21.8748322  56.2416153  28.8614693  21.6909885  58.4448891
  29.2320404  21.8623924  59.3686867  27.7246742  20.8372459  58.3557358
  27.9580841  19.9777603  57.7273216  27.1696491  20.4991207  59.7806702
  26.2533436  19.9141769  59.7011414  27.8682938  19.8039761  60.2462540
  27.1256237  21.6609211  60.7566071  28.1498280  21.8914776  61.0497780
  26.8921337  22.6186333  60.2914505  26.1868916  21.3916912  61.9213829
  26.6229324  21.3585606  63.0971298  24.9426308  21.1300831  61.7009354
  24.5152073  20.9935207  60.7960815  24.4590225  20.9362564  62.5661812
  26.5763035  21.4970818  57.5469780  25.5882206  20.8488598  57.2700081
  26.7871647  22.7709103  57.1267014  27.5695648  23.3197784  57.4533424
  25.7406921  23.4483032  56.3035507  24.7987289  22.9000874  56.3197327
  25.4248943  24.8089848  56.9883270  26.3258896  25.4121208  56.8763733
  24.6266994  25.2198219  56.3701096  25.0026569  24.8927002  58.4630547
  23.6620274  24.7465515  58.8565025  22.9351635  24.6525173  58.0632629
  23.2336464  24.7292557  60.1543350  22.1992817  24.5321178  60.3943863
  24.2338982  24.9698524  61.1220055  23.9551811  24.8677731  62.4857063
  24.7920418  25.0493145  62.9196472  25.6530800  25.0340614  60.7916985
  26.3592339  25.1819172  61.5953674  26.0080700  25.0717297  59.4329224
  27.0336857  25.0978031  59.0955200  26.1796665  23.8049984  54.8459206
  25.4463215  24.5269527  54.0865097  27.4099178  23.5248585  54.4141312
  27.9320202  22.8751469  54.9845581  27.8904915  23.8965912  53.0378304
  27.5884666  24.8825378  52.6845665  29.4794197  23.9118481  52.9791260
  29.8847923  23.1156712  53.6035271  30.0328026  23.7781925  51.5773659
  31.0340252  24.2079678  51.6082535  29.9723415  22.7341633  51.2700424
  29.5118122  24.3256569  50.7919006  29.9446259  25.2587414  53.5104752
  29.8162479  26.0510979  52.7730522  29.4208775  25.4333172  54.4503212
  31.0201893  25.2490082  53.6870117  27.2954636  22.8838520  52.1261978
  27.3117733  21.7277794  52.4645271  26.7553844  23.2380981  50.9082146
  26.6694889  24.6209564  50.4866447  27.5736408  25.2287636  50.4522858
  25.9520473  25.1978397  51.0702400  26.1892529  24.6774998  49.0447273
  26.9894199  24.5763988  48.3115082  25.6345882  25.6067390  48.9144821
  25.4075012  23.3622532  49.0051880  25.2367992  22.9797459  47.9988823
  24.5036736  23.4696102  49.6049080  26.2552490  22.4102097  49.8432198
  25.6920509  21.5406170  50.1819153  27.3962612  21.7991695  48.9316635
  27.9599056  22.5369377  48.0917816  27.6704121  20.4688454  49.1916389
  27.0399551  19.9109650  49.7496643  28.5887356  19.6779900  48.3819962
  29.1824284  20.4300709  47.8623772  29.5575619  19.0560322  49.3408470
  30.3359222  18.7125645  48.6594582  30.2901726  20.0479069  50.2503815
  30.4628105  20.9513988  49.6655693  29.5811729  20.4588299  50.9691048
  31.2058487  19.6087837  50.6463737  28.9326077  18.0038300  50.2154541
  29.7407970  17.4190578  50.6547432  28.4992657  18.4630356  51.1039619
  28.3010521  17.3250313  49.6423302  27.8775005  18.8004150  47.3702927
  26.7940350  18.3945751  47.7435760  28.3905544  18.6628666  46.1952972
  29.2348061  19.1660957  45.9626999  27.8632355  17.9107075  45.0242081
  27.0492268  17.2846851  45.3897018  27.3770485  18.9078999  43.9285240
  27.1309605  18.3877506  43.0027847  26.2267342  19.7988949  44.4451523
  25.3545132  19.1855812  44.6713867  26.5525131  20.2903652  45.3619003
  25.9552155  20.6118832  43.7717781  28.2879200  19.8317909  43.5516396
  28.6022739  19.5343380  42.6947250  28.8944912  16.9866600  44.4367332
  30.1173992  17.3261967  44.3702736  28.5683918  15.7926569  43.9350700
  27.6117878  15.5488873  44.1485710  29.3851967  14.7354650  43.2591743
  30.4420090  14.9794598  43.3674088  29.2375660  13.4797258  44.0273170
  28.2191601  13.1537657  44.2387352  29.7841911  12.7250986  43.4617691
  30.1142082  13.6072426  45.6302834  29.0218010  14.0952225  46.2247734
  29.0860748  14.6944542  41.7219849  27.9412098  14.7058306  41.3641663
  30.1436501  14.5251322  40.9540825  31.0334511  14.6678762  41.4101295
  30.0564976  14.1035671  39.5036049  29.0850906  13.6266050  39.3732643
  30.1283722  15.3773212  38.6208878  29.8234558  15.1917515  37.5909882
  29.5240555  16.1625748  39.0750656  31.6101322  15.8581486  38.6194916
  32.0447388  15.9974718  39.6093445  32.2705727  15.1106806  38.1799316
  31.8293037  17.2602367  37.6067009  33.5390053  16.8690376  37.1141167
  33.8065300  17.5590191  36.3138313  34.2112503  16.9603996  37.9672546
  33.5067558  15.8236847  36.8070374  31.1178188  13.0374250  39.2432175
  31.8125839  12.5924177  40.1541672  31.0141163  12.4838629  38.0501900
  30.3370914  12.8677826  37.4064941  31.9724293  11.5178289  37.5563278
  32.5737419  11.2107725  38.4120369  31.2799721  10.2263527  37.0922585
  30.6820316   9.9137201  37.9483109  30.6830006  10.5243111  36.2303162
  32.2814598   9.1454287  36.6667824  32.7232628   9.4410629  35.7152023
  33.0443726   9.0408325  37.4382286  31.5300007   7.8244796  36.5179253
  30.6715603   7.7596011  35.6390076  31.6174812   6.9146533  37.4704323
  32.2259178   7.0725880  38.2609787  30.9156971   6.1907783  37.5304642
  32.8367996  12.2689400  36.5121193  32.2845688  13.0586615  35.7147179
  34.1307335  12.0915575  36.4923515  34.5561867  11.5142832  37.2035866
  34.9783401  12.7777367  35.6073990  34.6972923  13.7955141  35.3367691
  36.3711281  12.7184572  36.2291794  36.2376823  12.9623995  37.2831154
  36.7977066  11.7236853  36.1004982  37.4090500  13.7681932  35.6318970
  38.3760185  13.4346409  36.0084877  37.2675972  13.7387609  34.5515175
  37.1896820  15.2487526  35.9027824  37.6673012  16.1600018  35.1914177
  36.3014793  15.6142845  36.7672348  34.9870529  12.0123558  34.3299751
  34.8057404  10.7970266  34.2899475  35.0810471  12.7022953  33.2026749
  35.2330818  13.6906633  33.3445015  35.1231575  12.2012873  31.7866707
  34.1426811  11.8313932  31.4867706  35.2561607  13.3634710  30.8354721
  34.4103432  14.0351725  30.9821339  36.1842613  13.9090099  31.0060959
  35.3696327  12.9503736  29.3721123  36.3274117  12.4365959  29.2897205
  34.5680161  12.3056688  29.0117435  35.4481850  14.3183918  28.1478081
  36.0260162  13.3056364  26.7685242  35.2534294  12.5824718  26.5072918
  36.2194862  13.9511633  25.9118080  36.9563026  12.7530375  26.9000416
  36.1317139  11.0909843  31.5757771  37.2826195  11.2558298  31.9101448
  35.6863937  10.0040998  30.9234581  34.7135506  10.0467882  30.6554070
  36.5535011   8.8498669  30.6893997  37.1474953   8.6675358  31.5849590
  35.6654930   7.6112146  30.5712776  35.1363640   7.5131006  31.5191669
  35.0189857   7.7875686  29.7116032  36.4722748   6.3612990  30.3724689
  37.5793457   6.2624187  30.9175014  35.9405251   5.4250360  29.7776966
  37.4788170   8.9964781  29.3816357  36.9661026   9.3034143  28.2520294
  38.7986031   9.1208162  29.5912971  39.1716080   9.1192799  30.5298939
  39.7018623   9.5193996  28.5341015  39.1324844   9.5138559  27.6046505
  40.2140846  11.0027313  28.7309551  40.4469376  11.1677847  29.7829227
  41.5279999  11.2958193  27.9634800  42.4030914  10.6987009  28.2199249
  41.3899498  11.2055140  26.8860340  41.8003502  12.3364172  28.1397953
  39.2132835  12.0610580  28.3294868  39.6748772  13.0436954  28.4266949
  39.0057640  12.0042524  27.2609310  38.2998123  12.0021114  28.9212646
  40.8464966   8.5421410  28.3890209  41.4908218   8.2818327  29.3440571
  40.9900017   7.9760046  27.1783028  40.5093613   8.3934240  26.3941841
  42.1176300   7.0227551  26.9183540  42.1667824   6.3074174  27.7393169
  41.9356613   6.2841315  25.5493031  40.9371796   5.8509765  25.4900703
  42.0436783   7.1829143  24.2470436  41.7065620   6.6606727  23.3516598
  41.4172249   8.0308657  24.5238800  42.9988976   7.6469131  24.0013657
  42.9397964   5.2493615  25.4498215  42.5364914   4.5268803  25.9366150
  43.5804710   7.6140594  26.9565048  43.8879280   8.7658062  26.6002903
  44.5439415   6.9095550  27.5338631  44.4425468   5.9226618  27.7232323
  45.7763672   7.4084358  28.0907402  46.4515152   6.6073895  28.3917389
  46.2578278   7.9820051  27.2987041  45.6338768   8.3805618  29.2817307
  46.5683746   9.0206070  29.6633396  44.4648514   8.4465647  29.9192085
  43.7052422   7.9983597  29.4270630  44.1704025   9.3975620  31.0797482
  44.5615463  10.4099293  30.9786510  43.1106911   9.6367455  30.9908543
  44.4890633   8.6814384  32.4001312  44.6611176   7.4589696  32.4446831
  44.6483231   9.4655857  33.4597435  44.5805206  10.4711332  33.3935928
  44.8888245   8.9919205  34.8432961  45.7109566   8.2763596  34.8301659
  45.4125862  10.2010975  35.6354332  46.2449188  10.6050930  35.0591431
  44.5609512  10.8806553  35.6673393  45.8690567   9.8925695  37.0725098
  45.1610909   9.2831278  37.6341705  47.2185593   9.1023903  37.0528412
  47.9947815   9.6307402  36.4992867  47.5600166   8.8538904  38.0577049
  47.1478806   8.1526928  36.5225754  46.0268822  11.2706919  37.7863083
  45.0186920  11.6832476  37.7482529  46.3040276  11.2232075  38.8394165
  46.7563515  11.8227558  37.1936760  43.7627144   8.1941938  35.3959732
  42.5874405   8.4730787  35.1041336  44.1009178   7.1209049  36.1949158
  45.0453987   6.8151121  36.3807755  43.1002922   6.1872969  36.7806664
  42.1500511   6.4369345  36.3086205  43.4712486   4.6585326  36.4447861
  44.4164772   4.4341178  36.9390297  42.7652550   3.9249291  36.8340149
  43.5297852   4.3049173  34.9599457  44.3513298   4.8696475  34.5192146
  43.8501129   3.3114712  34.6460114  42.1757431   4.3445411  34.2890358
  41.6113014   3.5208504  34.7261200  41.7550316   5.3349943  34.4625435
  42.1678123   4.1427388  32.7689056  42.6550255   3.1869702  32.5759315
  41.1623154   4.2415895  32.3598747  43.0516129   5.0572534  31.9980965
  42.8236847   6.0108604  32.2405472  44.0379982   4.9062896  32.1541786
  42.9168015   4.8558459  31.0176067  42.9184303   6.3985538  38.2927971
  43.7675476   7.1316757  38.8940620  41.9230118   5.6830001  38.9343567
  41.3577805   5.0621171  38.3730049  41.6018181   5.6941481  40.4077187
  40.5163383   5.5963688  40.3912697  42.2945404   4.4836173  41.1577454
  43.3560715   4.7103729  41.0585175  42.0020409   4.3828154  42.2029152
  41.9047737   3.1558943  40.5841522  40.8957329   3.4311020  40.2772331
  42.4559021   3.0311563  39.6520576  41.9018135   2.0200386  41.5832710
  41.2842178   2.2989254  42.4370232  41.3384933   1.1935647  41.1500130
  43.2790565   1.5434045  42.0020218  43.7467346   2.2846990  42.6499863
  43.1983871   0.6719772  42.6517944  44.1954765   1.2112967  40.8667564
  44.2872696   1.9870981  40.2265968  45.1026077   0.9925798  41.2532578
  43.9460907   0.4377225  40.2671814  41.7720642   7.0602269  41.0733604
  42.6097870   7.0744390  41.9752998  41.2400398   8.1584930  40.5659409
  40.5828552   7.9935708  39.8169365  41.6211586   9.4761868  40.9302063
  42.2857857   9.4322376  41.7930183  42.2819290  10.0259094  39.6563797
  43.0823936   9.3361149  39.3889160  41.5549126  10.0003376  38.8446579
  42.7445717  11.7921352  39.7839317  43.6631584  11.5032301  40.7100143
  40.4885063  10.3302641  41.3706398  39.3529816  10.1912117  40.8539658
  40.6420288  11.1293011  42.4125137  41.4833946  11.0976238  42.9703712
  39.6055984  12.1021385  42.9048920  38.5919724  11.8536692  42.5903702
  39.4455070  12.0042295  44.4484901  40.4248238  12.0104513  44.9270248
  38.5099716  13.0722046  44.9533882  38.8960266  14.0842819  44.8318825
  37.5583572  13.1011667  44.4226418  38.2408485  13.0967102  46.0093575
  38.8288994  10.6280794  44.9363251  38.4148903  10.9019356  45.9067383
  38.0063858  10.3046427  44.2983932  39.9135437   9.6248417  45.2593498
  40.6409492  10.1612158  45.8686790  39.5728798   8.6593056  45.6332321
  40.4666023   9.3939848  44.3488922  39.9406433  13.5221119  42.4990387
  41.0947227  13.9007034  42.6817894  38.9943275  14.3161993  41.9843597
  38.0824699  13.8949022  41.8788986  39.2187843  15.7392626  41.7393646
  40.1737862  15.9952946  42.1981812  39.2508659  15.9204521  40.2124672
  38.3338737  15.4840593  39.8165016  39.2613029  16.9887257  39.9961700
  40.3772049  15.2085848  39.3954315  41.3687325  15.6079531  39.6086731
  40.4110489  14.1878510  39.7763023  39.9899826  15.2378864  37.9076538
  39.1955032  14.5085297  37.7497215  39.5406494  16.2105789  37.7074814
  41.1471710  15.0146856  36.9834595  41.7026825  15.8114691  36.7066154
  41.4595757  13.8791952  36.4326324  40.9085083  12.7663965  36.7903023
  40.3819542  12.7815762  37.6520538  41.2151031  11.9043322  36.3625870
  42.3190460  13.6679153  35.4997520  42.6060371  14.5452700  35.0898857
  42.4062729  12.7660141  35.0535812  38.1605606  16.5499134  42.4453697
  37.0146141  16.2411385  42.5109100  38.5407486  17.6984024  42.9560165
  39.5273399  17.8780022  42.8356705  37.8162346  18.7595711  43.6963272
  36.7773399  18.4552383  43.8235474  38.4934731  18.9115810  45.0890083
  39.5347443  19.1644707  44.8892403  38.1216354  20.0169773  46.0784721
  38.7475700  20.0062752  46.9707642  38.3666306  20.9846916  45.6407433
  37.0575981  19.9611702  46.3082886  38.3674316  17.6299934  45.9303513
  38.7988853  17.7148666  46.9277191  37.2907982  17.4825630  46.0153503
  38.7437973  16.7117043  45.4795799  37.8163605  20.0955257  43.0137253
  38.8327484  20.5198841  42.5562592  36.6748238  20.8110733  43.0897560
  35.8726578  20.2726364  43.3842354  36.3816948  22.1601048  42.5210266
  37.3067093  22.7038689  42.3292580  35.6134720  21.9227924  41.1608353
  36.4032326  21.4988918  40.5406036  34.9231339  21.0831642  41.0798759
  35.0011292  23.0914955  40.4008446  34.6040878  22.5883961  39.5191727
  34.1866837  23.5387230  40.9707298  36.0805550  24.3580837  39.7970047
  36.4472237  25.3934078  41.2749290  37.3266945  24.9477863  41.7397499
  36.7075806  26.3755322  40.8802795  35.5559959  25.5197239  41.8896294
  35.5242805  22.8825302  43.5418320  34.3040695  22.9463387  43.4637146
  36.1505127  23.5332947  44.5284996  37.1539917  23.4966831  44.4199295
  35.5615387  24.4444027  45.5384865  34.5931892  24.0075493  45.7825317
  36.5218086  24.4437370  46.7810364  36.8171196  23.4231453  47.0245132
  37.5167694  24.7320366  46.4418716  36.1224098  25.3008747  47.9944496
  36.1805573  26.3769360  47.8307114  35.0952110  24.9643002  48.1347237
  37.0149117  25.0339298  49.5681992  38.5725708  25.8648720  49.1114349
  39.2117653  25.8663788  49.9943504  39.0294342  25.2296791  48.3525505
  38.3355637  26.8964310  48.8510284  35.3525314  25.8831806  45.0641365
  36.0952415  26.2624416  44.1879921  34.4638901  26.6767998  45.6692772
  33.8539543  26.2755852  46.3672104  34.1561584  28.0753574  45.3615799
  35.0470810  28.4261646  44.8407211  32.9035568  28.1374741  44.4406509
  31.9810200  28.0707340  45.0173454  32.8167076  29.4197330  43.6038132
  32.3776436  30.1752300  44.2553825  33.8185844  29.5604401  43.1981659
  32.0754280  29.3067722  42.8127136  32.8671837  27.1462841  43.4515572
  33.4194946  27.5665321  42.7882729  34.0433617  28.8862228  46.7123909
  33.2903633  28.5126934  47.5740929  34.8699379  29.9087658  46.7958488
  35.3886108  30.1321392  45.9584808  34.9822044  30.8134098  47.9696732
  34.1475906  30.5711460  48.6275711  36.3624878  30.7440186  48.7496567
  36.4153290  31.4582748  49.5713310  36.5009956  29.3169346  49.3415871
  37.4552116  29.3314171  49.8682404  35.6597519  29.1945381  50.0238075
  36.5601578  28.4395790  48.6974907  37.4969673  30.8262997  47.7704239
  38.4489365  30.7893162  48.3000259  37.5306396  29.9706230  47.0960426
  37.3923607  31.8206215  47.3362770  34.7866783  32.2450867  47.5981216
  35.2061501  32.6974602  46.5011368  34.1696739  33.0083160  48.5330124
  33.9580650  32.6150093  49.4389000  34.2573013  34.4740334  48.5556946
  34.0193062  34.8618164  47.5651970  33.1770935  35.0666008  49.5169868
  32.2750015  34.4554176  49.5450020  33.4640999  34.9127083  50.5572014
  32.9761353  36.6299095  49.3026123  33.8647842  37.2061043  49.5602989
  32.7818375  36.6925735  48.2319031  31.6694889  37.2205963  49.9706612
  30.7054234  37.6157990  49.3146744  31.5880566  37.1473198  51.3032570
  32.4475212  36.9048576  51.7751045  30.6655064  37.2029991  51.7105637
  35.6547241  35.0200500  48.9803658  36.1810188  34.5023689  50.0053864
  36.2409172  35.8536568  48.1283760  35.6972084  36.1362000  47.3254738
  37.6624451  36.2544975  48.1916733  37.8297195  36.5872002  49.2160912
  38.6496506  35.0679970  47.8494949  38.6127357  34.4886703  48.7720604
  38.3711548  34.3975830  46.5356827  38.7505341  33.3797264  46.4454689
  37.3042374  34.2390480  46.3786774  38.6676559  34.9912872  45.6709900
  39.9764099  35.4458046  47.7203674  40.4917488  34.7099190  48.0587463
  37.8631859  37.4415474  47.2522163  37.3283806  37.5414886  46.1295853
  38.6013184  38.4565773  47.7570076  39.0079308  38.3353958  48.6735687
  39.1261139  39.5250282  46.8392181  38.4432144  39.7025261  46.0084076
  39.3195457  40.8780861  47.5784378  39.7020226  41.6432457  46.9029045
  38.3500404  41.1886520  47.9679337  40.2840424  40.9061661  48.7841339
  40.9538727  39.9219780  49.0983047  40.3093338  41.9840240  49.4752007
  40.4349785  39.1868210  46.1260033  40.8966103  40.0155525  45.4031334
  41.0603981  38.0344505  46.4274750  40.5410576  37.3947144  47.0115318
  42.4808273  37.6439705  46.1702652  43.1154594  38.5031166  46.3875465
  42.8639832  36.3910141  47.0116920  42.0774460  35.6425209  46.9156876
  44.1692276  35.6726646  46.4697113  44.9931946  36.3841362  46.5243530
  44.5321732  34.8625603  47.1022530  44.0813904  35.2210999  45.4815445
  42.9362907  36.6315689  48.5875931  43.7690239  37.3091698  48.7760506
  42.0920410  37.2519493  48.8883858  43.0454788  35.7463875  49.2141914
  42.7151489  37.3172302  44.6330452  41.9044800  36.6473694  44.0163918
  43.7498093  37.9987984  44.0373344  44.8140526  38.7545395  44.6717567
  45.4711189  38.0848541  45.2266273  44.3666191  39.5188637  45.3071365
  45.5971718  39.4228401  43.5010834  46.6119499  39.5254517  43.8855286
  45.1845398  40.3595963  43.1264915  45.5475235  38.3696976  42.4746017
  46.2875366  37.5908661  42.6587181  45.6926117  38.7245026  41.4542274
  44.0973206  37.8391647  42.6235428  43.5005989  38.4852371  41.9796371
  44.0748138  36.3295364  42.1728592  44.5527496  35.4344063  42.9246063
  43.5643539  35.9865494  40.9529533  43.2090607  36.8080215  40.4849243
  43.3497353  34.6753159  40.3769493  42.5019417  34.1981239  40.8685188
  42.9701996  34.7789345  38.9474983  42.2735519  35.5956116  38.7582245
  43.8311768  35.1263657  38.3764381  42.3957062  33.4928780  38.3116493
  43.2668571  32.8504715  38.1831551  41.6217613  33.0352554  38.9278450
  41.8380165  33.7528763  36.9168015  42.5556107  34.2866859  36.0265923
  40.6184731  33.4403725  36.6835327  39.9728584  33.2199631  37.4283180
  40.2276230  33.7463875  35.8039360  44.5822563  33.7004242  40.4906197
  44.4289131  32.5253868  40.6478729  45.8529625  34.2108574  40.3518906
  45.9599953  35.1953087  40.1531525  47.1046143  33.5034676  40.5311852
  46.8770332  32.4909286  40.1979065  47.9871254  34.1132889  39.4750900
  48.9375954  33.5855522  39.5538445  47.5317650  33.9197388  38.5038643
  48.3282242  35.6337433  39.7614861  49.1138115  36.2579384  39.0322952
  47.8332787  36.2055397  40.7709122  47.6651993  33.4757843  41.9594879
  48.6273766  32.6741180  42.1462860  47.0533180  34.1708221  42.9717255
  46.3449059  34.8339729  42.6915817  47.3567200  33.9560471  44.3571701
  48.4250908  33.7474365  44.4135399  47.2055130  35.3241615  45.0783005
  46.4103889  35.9188728  44.6286354  46.9741859  35.2285728  46.1391716
  48.5049553  36.2218170  45.0586128  49.3658485  35.5914803  45.2814102
  48.6956367  36.4925194  44.0201225  48.4946060  37.4225426  45.9972534
  47.5756073  37.5708656  46.8005295  49.4398613  38.2610435  45.8791618
  49.9927025  38.2581825  45.0339050  49.4908600  39.0277405  46.5346565
  46.6006927  32.8216743  45.0494843  46.9877472  32.2896652  46.0750847
  45.5136528  32.3866234  44.3917656  45.4335518  32.8300285  43.4878426
  44.7077065  31.2149467  44.7657356  44.2856979  31.3450184  45.7622757
  43.4582977  31.0439529  43.8379135  43.8884583  30.7591877  42.8777237
  42.5304413  29.8869591  44.2533379  42.2553596  29.8990440  45.3079872
  41.5448723  29.8753681  43.7879143  43.0725403  28.9484215  44.1376762
  42.6007423  32.2817307  43.5829353  43.1571503  33.0498276  43.0457764
  41.7754173  32.0224419  42.9198303  42.1261673  32.9594078  44.8775482
  41.4504051  33.7949867  44.6952019  41.7041054  32.1811028  45.5133171
  42.9794540  33.3431778  45.4367638  45.5671883  29.9965000  44.7850037
  46.2201996  29.7490253  43.7653427  45.5403519  29.1694908  45.8607941
  44.9405441  29.3996334  46.6401291  46.3818436  27.9589691  45.8821945
  47.2094917  28.1718903  45.2056160  47.1478767  27.8137150  47.2417183
  46.4162903  27.7868080  48.0492821  47.8192139  26.9554176  47.2147102
  48.0664558  29.0018940  47.5021095  48.6694298  29.0102043  46.5941162
  47.5135155  29.9348984  47.6110268  48.9794731  28.8228493  48.7616463
  48.5290833  28.2304993  49.5581169  49.9679756  28.4846706  48.4508438
  49.3454437  30.0672531  49.4794693  49.1293945  30.9875240  49.1237679
  49.6795464  30.1779461  50.7655983  50.1497192  29.1535549  51.4765778
  50.5431404  29.3644714  52.3825760  50.2194710  28.2372284  51.0575523
  49.7513428  31.3808041  51.2429886  50.0579033  31.5608044  52.1883621
  49.7395515  32.0874672  50.5214691  45.6662903  26.7156296  45.4504128
  44.7215919  26.2646637  46.1718788  46.0296898  26.0811729  44.3605347
  46.8098183  26.4161072  43.8134346  45.5229034  24.8166809  43.7893219
  44.6009331  24.5787964  44.3198700  45.3204002  24.9815025  42.2850227
  46.3432465  25.1044025  41.9289551  44.8730659  24.1122246  41.8030014
  44.5546837  26.1866550  41.8767357  43.2069244  26.3941631  42.0377350
  43.0165558  27.6236439  41.5385017  42.1152229  28.2148190  41.4712830
  44.1546707  28.2104397  41.1032829  44.2458763  29.1741886  40.8152390
  45.1537933  27.3095474  41.3701019  46.1912384  27.5710220  41.2226639
  46.3883324  23.6416054  44.1554260  47.6278534  23.6963844  43.8765373
  45.8002357  22.5153828  44.6957169  44.7927628  22.4787483  44.6344299
  46.4516945  21.3794174  45.3351173  47.4872246  21.7196007  45.3276405
  46.1397972  21.2703285  46.8759613  45.0623436  21.1604023  46.9988976
  46.6945648  20.0430107  47.5978012  46.3204079  19.9164715  48.6137238
  46.2522736  19.1277256  47.2044373  47.7783546  20.1592007  47.5970650
  46.6245995  22.4994431  47.5461540  47.7061348  22.3708878  47.5031204
  46.4639511  23.4416122  47.0221214  46.3141289  22.5814819  48.5877724
  46.4502411  20.0327263  44.6780090  45.3938637  19.3487816  44.6377907
  47.5916862  19.5595684  44.1802979  48.4036255  20.1203423  44.3956718
  47.6713676  18.2341499  43.6039314  46.7445831  17.6630306  43.6586342
  47.9890251  18.2226753  42.1068878  48.9776001  18.6663132  41.9885330
  48.0208511  17.1996460  41.7320557  46.9278145  18.9145412  41.2800636
  46.7123947  20.3181477  41.3913765  47.3975945  20.8949814  41.9948349
  45.7534866  20.9772186  40.6742821  45.6697502  22.0539627  40.6775894
  45.0200119  20.1791058  39.7514839  44.0683327  20.7806454  39.0442696
  43.8765831  20.3473682  38.2093468  45.2627754  18.7942429  39.5063667
  44.7299461  18.2437477  38.7451515  46.2026558  18.1384182  40.3851280
  46.3702927  17.0744610  40.3058090  48.6389275  17.3265400  44.4034920
  49.7079849  17.8034916  44.7564850  48.2397003  16.0399246  44.6324310
  47.4247437  15.6391306  44.1904984  48.7555809  15.1071968  45.6643944
  49.7660866  15.4389830  45.9029274  47.8326607  15.2053442  46.9159622
  46.7853928  15.1532707  46.6182747  47.9626846  14.3086987  47.5219460
  48.0738792  16.4309578  47.7573013  47.8978653  17.2077560  47.0131874
  47.0239334  16.6870575  48.8522263  46.9235649  17.7485142  49.0788002
  46.0291748  16.4116516  48.5019341  47.2412338  16.2183704  49.8120270
  49.4300194  16.5456715  48.3748589  50.2296753  16.3257656  47.6675491
  49.5174942  17.5282402  48.8385506  49.6110420  15.8279085  49.1749535
  48.9615936  13.6929073  45.1898232  48.5062675  13.3597937  44.1076584
  49.6277771  12.8358631  45.9386902  49.9835548  13.1110182  46.8430214
  49.9054985  11.3670959  45.5487175  50.6316261  10.9980917  46.2730637
  48.7486534  10.5036526  45.9864922  47.8872604  10.8961678  45.4460869
  48.9081383   9.4553528  45.7340393  48.3502808  10.4965897  47.4851952
  47.9961472  11.4927568  47.7504120  47.4531250   9.8868885  47.5923691
  49.5463905  10.0166159  48.3979950  49.5957108  10.3861637  49.5799217
  50.4296379   9.4174547  47.7707367  50.5236778  11.1933556  44.1469612
  51.4513512  11.9862671  43.7942352  50.0677185  10.2633133  43.3671188
  49.3583031   9.6215706  43.6911507  50.5134048  10.1073656  42.0063515
  51.6000023  10.1595287  41.9379311  49.9735985   8.7448730  41.5043221
  48.9110527   8.6892948  41.7409897  50.0734253   8.7067299  40.4195671
  50.7552605   7.5495310  42.0920486  51.7159195   7.4491367  41.5869217
  50.9306259   7.6018629  43.1665764  49.9819183   6.2150168  41.8576126
  49.0365944   6.2345619  42.3999062  49.7546349   6.1232009  40.7955360
  50.8346100   5.0110574  42.2513771  51.7648354   4.9330268  41.6886292
  51.1247826   5.2955489  43.2627945  50.0348969   3.7329321  42.2314720
  49.6307411   3.7343228  41.3058586  50.5861588   2.9540868  42.5625496
  49.2969475   3.8121610  42.9164925  50.0898628  11.3511496  41.1033401
  50.6541786  11.4605427  40.0056915  49.0937424  12.1697540  41.5000572
  48.6719513  11.9595995  42.3933792  48.3957901  13.1596403  40.6583900
  48.0312729  12.6290951  39.7787590  47.0800323  13.6607084  41.3077278
  46.3122978  12.8993931  41.4458694  47.1401176  14.2069893  42.2490387
  46.7151299  14.3631487  40.5583725  49.3043060  14.2920218  40.1941109
  48.8509903  15.0628242  39.3472977  50.5746880  14.3888903  40.5572166
  50.9193878  13.6880808  41.1976471  51.5446472  15.3734961  40.1302452
  51.2124748  16.3358421  40.5196724  52.9171371  15.0988216  40.6848450
  53.6946526  15.5237722  40.0500259  53.0087395  15.7450581  42.0694427
  54.0119438  15.6510315  42.4851799  52.6998177  16.7894268  42.0251808
  52.2287598  15.3721142  42.7332497  53.2472458  13.5962734  40.6913719
  52.7440720  13.1136217  41.5292130  53.0762749  13.1463728  39.7133865
  54.3095741  13.5545073  40.9318085  51.6843491  15.5107841  38.6067924
  52.0341225  16.5585594  38.1646233  51.3854141  14.4965916  37.8440056
  51.1867104  13.6581974  38.3709908  51.4434586  14.4242010  36.3705673
  52.3981438  14.8078260  36.0107002  51.2571716  12.9188995  36.0138626
  51.9164429  12.2904654  36.6126366  49.9073296  12.2343006  36.3278732
  49.1291313  12.6899052  35.7155533  49.9113655  11.1887398  36.0198364
  49.5565758  12.3035812  37.3575706  51.5714073  12.5846987  34.5621605
  50.8145905  13.0046968  33.8996429  52.5079956  13.0222788  34.2165718
  51.5783386  11.5145397  34.3552513  50.3652229  15.3076620  35.6635895
  50.5650558  15.8434124  34.5900116  49.2820816  15.5755005  36.4169617
  49.2424088  15.2906885  37.3851585  48.1369400  16.3398876  35.8715439
  47.9789543  15.9769287  34.8559647  46.8624649  16.2558308  36.7504005
  47.0651093  16.6813431  37.7332420  46.1578217  17.0008926  36.3809967
  46.2657738  14.8690529  36.8461571  46.9633141  14.1755142  37.3157845
  44.9724655  14.8439331  37.6936302  45.0353508  15.5158691  38.5495758
  44.0511551  15.1435719  37.1941223  44.7685928  13.8466301  38.0834045
  45.7485657  14.2891264  35.5603752  45.7093277  13.2096949  35.7065887
  44.7140808  14.5795431  35.3770752  46.4370461  14.4415178  34.7291870
  48.5643387  17.8294907  35.6661034  48.0318108  18.4308071  34.7104912
  49.5280304  18.3788891  36.4340897  49.8941040  17.7819557  37.1619377
  49.8784981  19.8678265  36.4096642  49.5731010  20.2588062  35.4391136
  49.0863800  20.6155148  37.5349464  49.3337860  20.1270924  38.4774628
  49.3304710  21.6777382  37.5209045  47.5394783  20.4977074  37.4618721
  47.1896057  19.4673290  37.5252151  47.0958595  20.9025650  38.3714828
  46.7735252  21.2069912  36.3220749  46.9825134  20.7267323  35.3661613
  45.7360725  20.9928036  36.5788231  46.9828339  22.6725693  36.3829689
  47.8939133  23.0149441  36.1131325  46.3658600  23.6243839  37.1159554
  45.1194534  23.4153881  37.4601173  44.6307602  24.1521072  37.9485130
  44.5189743  22.6247978  37.2744026  46.9865761  24.8011951  37.2584648
  46.4972420  25.5732136  37.6881714  47.8740501  24.9232864  36.7920074
  51.3974342  20.0358696  36.5437508  51.8555183  20.1823368  37.6653709
  52.1362877  20.0556946  35.4622231  51.8465500  19.4658737  34.2084007
  51.3280983  20.2204323  33.6168365  51.1532745  18.6275330  34.2766190
  53.1685104  19.1430759  33.4617004  52.9392090  19.1663818  32.3963509
  53.6126671  18.2237740  33.8434296  53.9646339  20.3526535  34.0420761
  53.7342987  21.2107067  33.4105759  55.0540886  20.3184223  34.0380287
  53.4939919  20.6351089  35.4320030  54.1628571  20.0750179  36.0854683
  53.6438980  22.1566181  35.6841812  54.6844597  22.5783634  36.2026672
  52.5511322  22.9061871  35.4763908  51.6975403  22.4078999  35.2685585
  52.3446159  24.3494282  35.5102386  53.1422348  24.9091625  35.0217667
  51.1219521  24.7153969  34.6447830  51.1664619  25.7920818  34.4808655
  51.2532539  24.3078671  33.6423950  49.8825302  24.2095947  35.2816162
  49.9023361  22.9436245  35.3335762  48.9363861  24.9793377  35.5051880
  52.3801422  24.9627972  36.9557800  52.5496979  26.1517391  37.1780052
  52.1834564  24.0337372  37.8946457  51.8082809  23.1323757  37.6360130
  52.2340050  24.3736763  39.3253784  52.2643242  25.4528484  39.4755974
  50.9841843  23.8922901  40.1017380  51.0683250  22.8066406  40.0529251
  50.9830818  24.1148605  41.1687737  49.5670662  24.3369465  39.5369034
  49.2258301  23.8258896  38.6366310  48.5950089  23.8956051  40.6479530
  48.5472488  22.8149643  40.7822380  48.7909698  24.3945961  41.5970078
  47.6680183  24.3031502  40.2445869  49.4846916  25.9277153  39.4858551
  48.4488792  26.2670345  39.4936562  49.9837914  26.2745514  40.3906746
  49.9733849  26.3348503  38.6006851  53.5600204  23.8855190  39.9676285
  53.5277176  23.7129326  41.1687889  54.6003036  23.7940750  39.2222824
  54.5036316  24.0758018  38.2571983  55.8807411  23.2764168  39.7325745
  55.8425674  23.3747787  40.8174591  56.0927963  21.7764187  39.3722572
  55.2005959  21.2974644  39.7755966  55.9346352  21.5404873  38.3199081
  57.2869530  21.2576790  39.8907585  57.5923424  20.5359268  39.3363113
  57.1240578  24.1572800  39.3364601  57.2048225  24.5075378  38.1409264
  58.0273323  24.4931355  40.2415085  57.9323425  24.1086235  41.1706085
  59.2760925  25.1811466  40.0205307  59.6811600  25.3109131  41.0241165
  60.3884659  24.4526138  39.1937866  60.0806999  24.5249348  38.1506424
  61.3611832  24.9443188  39.2057915  60.5191727  22.9246826  39.5018539
  59.5371590  22.4758701  39.6512337  61.1035728  22.2927132  38.3201332
  60.4383583  22.4384556  37.4690399  61.9900169  22.8122749  37.9563065
  61.3145485  21.2485733  38.5511360  61.5283737  22.6948185  40.7001648
  61.0427513  22.9698467  41.6364555  61.7599106  21.6312332  40.6429176
  62.4031067  23.3308601  40.5645409  59.0749626  26.6207752  39.4262009
  59.7972450  26.9938011  38.4261932  58.0842133  27.4087505  39.9007912
  57.6661644  27.1436958  40.7811775  57.5862350  28.5766506  39.2709579
  58.0556297  28.6411438  38.2893219  56.1123619  28.6003666  38.8357849
  56.0572739  28.0036030  37.9253235  55.1048088  27.8943043  39.8275757
  54.0834351  27.9014702  39.4469757  55.4101830  26.8752785  40.0651245
  55.1993599  28.4722710  40.7468758  55.5933838  29.8994064  38.7086258
  55.7640076  30.2501564  37.8314362  57.9577217  29.7203808  40.0329514
  57.9978752  29.6128273  41.2815628  58.1497231  30.8622227  39.3532639
  58.2145920  30.7641068  38.3501358  58.3065376  32.1523743  39.9068184
  59.2735977  32.1794815  40.4089699  58.3129311  33.2615585  38.7106171
  57.7966118  32.8319893  37.8521423  57.6625938  34.1053200  38.9413300
  59.6947708  33.6519432  38.3765411  60.2901497  32.7785454  38.6426353
  59.8868599  33.8870659  37.3296814  60.1344185  34.9425468  39.1769333
  59.6431274  35.7797852  38.6811829  59.8333092  34.9001274  40.2236595
  61.6471176  35.1635170  39.0673904  62.1961136  34.4640350  39.6978111
  61.9639091  35.0881767  38.0271645  62.0215950  36.5276909  39.4542427
  63.0228386  36.6541634  39.4945183  61.7677040  37.2111130  38.7552605
  61.6115532  36.7149811  40.3580627  57.3382072  32.5019150  41.0242958
  57.6014900  33.2520790  41.9827347  56.1187859  31.9753971  40.9261742
  55.8997421  31.5202579  40.0515518  54.9901505  32.3895798  41.8026314
  54.9679642  33.4762268  41.7201309  53.6675415  31.9172783  41.1849174
  53.6722069  32.3361282  40.1786156  53.6191483  30.8367500  41.0499420
  52.3356743  32.1467056  41.9037285  52.2924156  32.3211594  43.1100540
  51.2591820  32.1646461  41.1802444  51.2865410  31.9713039  40.1893005
  50.3993073  32.4788475  41.6068535  55.1747551  32.0054703  43.2767982
  55.2578964  30.7899876  43.5629311  55.3200798  32.9708366  44.1797943
  55.1381264  33.9338646  43.9357338  55.7534981  32.8433571  45.5512581
  56.6066132  32.1667671  45.6014442  56.1134796  34.2013931  46.1857147
  56.3888206  33.9044228  47.1976929  57.0907784  35.1091537  45.5310287
  56.8642616  35.1145821  44.4648399  57.0230865  35.9687309  46.1978493
  58.0566444  34.6248932  45.6748848  54.8657494  34.9123421  46.2874794
  54.6402206  35.0493202  47.2105026  54.7384720  32.1875229  46.4953880
  55.1231308  31.8232193  47.6062546  53.5173531  31.9536591  46.0903702
  53.2990913  32.3885422  45.2052994  52.4676208  31.2815876  46.8123245
  52.5333977  31.6836128  47.8233376  51.0943375  31.6868420  46.4070396
  51.0041237  31.4347305  45.3504372  50.3291550  31.0776787  46.8881989
  50.6517067  33.1772728  46.7114944  51.3309288  33.9767838  46.4156303
  49.6797028  33.2626801  46.2256737  50.3395081  33.3506584  48.1816635
  49.3241920  32.7792244  48.7312088  51.1147804  34.0657425  48.8866959
  52.6147156  29.8163776  46.8755188  52.4294739  29.2267838  47.9538956
  52.8058777  29.1921139  45.7290230  52.9858398  29.7986145  44.9417038
  52.8570061  27.7303581  45.3766670  51.8842201  27.3945312  45.7358398
  52.8388901  27.5898762  43.8283997  53.6370201  28.2122421  43.4237404
  52.9474983  26.5130825  43.6986694  51.5478249  27.8650475  43.0511627
  51.0391769  28.7381134  43.4599800  51.8701172  28.0784817  41.5352516
  50.9920769  28.3029976  40.9296608  52.6249771  28.8584003  41.4351883
  52.3548775  27.1634197  41.1950111  50.6329422  26.6487999  43.1036415
  49.6379890  27.0020618  42.8327522  50.9427032  25.9671783  42.3114662
  50.4785004  26.1941719  44.0821915  54.0339661  27.0395374  45.9570541
  53.8445930  26.1178303  46.7819595  55.1107445  27.3313942  45.5330353
  24.9764404  40.5623093  51.2507858  24.1513824  41.0609474  51.5520248
  25.2116756  39.8413963  51.9179039  25.6696167  41.2968521  51.2425537
  24.8876190  39.8757248  49.8763084  24.0474205  39.1828270  49.8309402
  24.6527519  40.9862289  48.7869720  23.7475090  41.5194855  49.0772667
  25.4429131  41.7330437  48.8645325  24.5950699  40.4155388  47.3547478
  24.2924786  41.1618690  46.6202202  25.5880432  40.0666847  47.0711899
  23.5688705  39.0061684  47.1512260  22.0092697  39.8353119  46.9492645
  21.1913452  39.1301231  46.8015823  21.7968807  40.3522491  47.8850899
  22.0647888  40.5686493  46.1447563  26.2087479  39.0915031  49.4777908
  27.2667122  39.7024727  49.3206787  26.0485439  37.7348442  49.5157089
  25.1465359  37.3395424  49.7397995  27.0279522  36.7268639  49.0251846
  27.7924461  37.2685432  48.4681969  27.6427059  35.9331245  50.1716766
  28.2888184  36.6324921  50.7022667  26.9555454  35.5496979  50.9259338
  28.4769516  34.7557487  49.7241135  27.7813778  33.9904404  49.3797531
  29.2241650  35.0103874  48.9724922  29.3742752  34.1125069  51.0722466
  30.0322056  32.5152550  50.4697952  30.8137741  32.6379128  49.7199898
  30.4468632  32.0448990  51.3613815  29.1601257  32.0103111  50.0543213
  26.3206711  35.9097824  47.8524094  25.0791645  35.7077599  47.8348618
  27.1331310  35.2994766  46.9785500  28.1214104  35.5035095  46.9364166
  26.6789837  34.2352333  46.0445709  25.6974335  34.5158463  45.6625710
  27.6233444  33.9679680  44.8276978  28.5816956  33.6393929  45.2298241
  27.0496540  32.9913902  43.8100853  27.4158096  32.0199890  44.1423683
  25.9596844  32.9833908  43.8114014  27.5158043  33.0608521  42.8272438
  27.9701939  35.2110443  44.0137444  28.6130772  35.7691078  44.6944542
  28.6261654  34.9729195  43.1764259  26.8888035  36.1466827  43.5413017
  26.2971935  35.5828133  42.8200874  26.3427181  36.6383591  44.3463745
  27.2610245  36.9889908  42.9581451  26.6275063  32.9594002  46.8477211
  27.5805511  32.7019463  47.5915184  25.5389347  32.1270218  46.7748871
  24.7335320  32.4015694  46.2307816  25.3399830  30.8828545  47.4815636
  26.3475246  30.6231213  47.8063698  24.4053020  31.1404095  48.7917671
  23.4349098  31.3902149  48.3627739  24.3372421  30.1763573  49.2958260
  24.9511452  32.2055702  49.7097588  25.4231548  33.0368958  49.1861115
  24.0867271  32.5869942  50.2532616  25.8626614  31.6655998  50.8195496
  25.4838104  30.7449894  51.2634506  26.8319530  31.4818382  50.3560791
  26.0886974  32.6353073  51.8752022  25.6696987  33.5490150  51.7768288
  26.9329262  32.5896950  52.8375816  27.7483215  31.6541862  52.9948273
  28.6117077  31.7395687  53.5119095  27.5842876  30.8988647  52.3446846
  26.9140434  33.6275749  53.6085854  26.0951653  34.2173424  53.5671692
  27.4744873  33.5896606  54.4479675  24.7885838  29.6980534  46.6291924
  23.9440231  29.8442154  45.7284431  25.1154175  28.5005550  47.0358353
  25.8524895  28.4902802  47.7262840  24.5587063  27.2355881  46.5927925
  24.2543583  27.2925339  45.5476952  25.2688274  26.4104042  46.5389519
  23.3573971  26.7010307  47.4062424  23.3621445  26.7612095  48.6324615
  22.3578892  26.2055950  46.6851463  22.4844608  26.2359982  45.6835670
  21.0074024  25.8579807  47.1871643  21.2716732  25.7356758  48.2375450
  19.8908596  26.9090347  46.9915771  19.4636879  26.9207382  45.9888382
  18.8570137  26.2903099  47.9321365  17.9615459  26.9117851  47.9299698
  18.3999882  25.3642673  47.5833168  19.2231827  26.2197247  48.9563637
  20.3619328  28.3100090  47.2794266  20.8585377  28.3850002  48.2468262
  20.9806175  28.5980816  46.4295197  19.1985207  29.2726154  47.3585815
  19.5091839  30.3149300  47.2866173  18.5633621  29.0799484  46.4939651
  18.6901817  29.2425003  48.3223152  20.6690292  24.5023422  46.5668716
  20.4640903  24.4347458  45.3288918  20.5719604  23.4419899  47.3838310
  20.7207451  23.6069012  48.3691063  20.4029198  22.0650749  46.9527245
  20.6346493  22.0040417  45.8893929  21.4738274  21.1705093  47.6682243
  21.4261379  21.2826405  48.7513924  21.2380295  20.1432686  47.3902397
  22.9581013  21.4806709  47.2677956  22.9743748  21.3963280  46.1811867
  23.3229542  22.4632015  47.5671539  23.8743916  20.4638538  47.9086075
  24.9199142  20.7344742  47.7611313  23.9108276  20.3761482  48.9944649
  23.6032391  19.1855850  47.2169418  23.4720535  19.2780857  46.2197800
  23.6352425  17.9808083  47.6657333  24.0606766  17.6261444  48.8516083
  24.6188221  18.2775154  49.3847961  23.9853439  16.6597900  49.1354790
  23.1434135  16.9848843  46.9545517  22.7822742  17.2678471  46.0547714
  23.0190678  16.0628624  47.3476372  19.0341339  21.4007225  47.0214386
  18.2316227  21.7557602  47.8653717  18.7801495  20.4064140  46.1844368
  19.4231129  20.2567616  45.4200401  17.7759171  19.4289551  46.5338097
  17.6888618  19.3416634  47.6168137  16.7918854  19.8785667  46.4010086
  17.7812462  18.1116867  45.8519478  18.6334457  17.8896294  44.9259949
  16.8885365  17.1488380  46.1674919  16.1241264  17.4706841  46.7438507
  16.9252262  15.7932014  45.5971069  17.0572948  15.8450775  44.5163803
  18.0058365  14.9541950  46.2168579  18.4045372  14.3156748  45.4285507
  18.8595543  15.5451059  46.5486565  17.6562271  14.2945232  47.0110283
  15.5046902  15.1405582  45.5889740  14.6448784  15.5624189  46.3835983
  15.3540115  14.1479063  44.6771584  16.1930752  13.7245693  44.3072166
  14.0137262  13.4400520  44.4920845  13.6196661  13.1471815  45.4652443
  13.0084648  14.3502712  43.8659821  12.9216461  15.3302612  44.3352203
  13.3659124  14.6250334  42.4382629  12.6108494  15.2033873  41.9058380
  14.3023615  15.1818867  42.4054222  13.4482737  13.7063704  41.8574219
  11.6935558  13.7834167  43.8269844  11.0671768  14.4324207  43.4982834
  14.2866497  12.1170988  43.7076149  15.4185152  11.8559008  43.2881432
  13.2262993  11.2963781  43.3785820  12.2817297  11.5647783  43.6149101
  13.3396597   9.9155798  42.7839317  14.2269859   9.8776302  42.1520119
  13.3996649   8.7734442  43.8698235  13.4649420   7.8467755  43.2996254
  14.6188908   8.8012247  44.7908974  14.5807486   9.6484165  45.4756737
  14.5960016   7.8566904  45.3344307  15.5582457   8.7939091  44.2380333
  12.2780523   8.9026251  44.7333565  11.5931597   8.3598328  44.3359909
  12.1850166   9.6258087  41.7998238  11.1210613  10.2595367  41.8239059
  12.3628731   8.6360235  40.9376564  13.2846823   8.2353296  40.8386002
  11.2827921   8.0070620  40.1866989  10.3160505   8.2688951  40.6167641
  11.2666025   8.4281235  38.6574554  10.3778410   8.0156927  38.1798515
  10.9517717   9.8651447  38.6026955  11.5253963  10.5143871  39.2641602
  11.1196251  10.3139200  37.6236534   9.9377203   9.9690971  38.9886971
  12.5886936   8.0076113  37.9451981  12.6295900   8.4635878  36.9560013
  13.4263906   8.1780033  38.6214600  12.4230289   6.9573088  37.7053490
  11.4374876   6.5205817  40.3042374  12.5138168   5.9454427  40.4756050
  10.3303967   5.8580594  40.1723633   9.4619665   6.2980990  39.9034767
  10.3889332   4.3484216  40.0598259  11.1738338   3.9150438  40.6796761
   9.0951223   3.7367983  40.5086555   8.3584929   3.8716655  39.7166405
   9.3876171   2.6984274  40.6646538   8.6007662   4.1301947  41.8826523
   8.1821899   5.1089139  41.6481247   7.7814922   3.4702554  42.1679077
   9.6814966   4.0625691  42.9243431   9.7578335   4.9761786  43.7660446
  10.2853317   2.9907675  43.0210266  10.7833261   3.7723413  38.6632233
  11.3374176   2.6735258  38.5621796  10.5286503   4.5989227  37.6659050
  10.2672777   5.5446434  37.9054794  10.6328783   4.1870923  36.2970085
  11.2198658   3.2822461  36.1395302   9.3325195   3.6834230  35.7047806
   9.4907684   3.2256639  34.7283020   9.0511446   2.9271057  36.4375229
   8.2203007   4.7229347  35.5262299   8.0066891   5.1589909  36.5021019
   8.5532742   5.4444561  34.7801476   6.9183378   4.3182173  34.9340248
   7.2063913   3.8742745  33.9811134   6.4483995   3.6108162  35.6172905
   6.0369534   5.4355674  34.7227898   6.3253808   6.3216405  35.1123848
   4.8370137   5.4978695  34.1584740   4.2339025   4.4723315  33.6536980
   4.7689166   3.6295183  33.5002975   3.3298786   4.5173254  33.2055740
   4.1457963   6.5574040  34.2258224   4.4397569   7.1956573  34.9513016
   3.2114885   6.6200652  33.8473473  11.1893759   5.2171693  35.4071274
  11.0775471   6.3976984  35.6876373  11.9539967   4.7815723  34.3769302
  12.0705633   3.7862999  34.2506561  12.6959248   5.6189108  33.4105835
  13.1395111   6.4999475  33.8743820  13.9133673   4.8574138  33.0182381
  14.4922361   4.6522899  33.9187622  13.5534534   3.9261520  32.5808449
  14.8435678   5.5257807  31.9860687  14.8745785   6.7828751  32.0092239
  15.5278492   4.9206905  31.1191158  11.8530741   6.0305462  32.1505661
  11.6056070   5.1922040  31.2392483  11.2142935   7.1482377  32.3522644
  11.4248962   7.6137223  33.2235107  10.4945211   7.8725781  31.2966785
  11.0845900   7.8005319  30.3830433   9.0806971   7.3493900  31.0719395
   9.0957975   6.4153714  30.5102615   8.2286119   7.2896562  32.3491554
   8.6940670   6.6588697  33.1064949   8.0915728   8.3162489  32.6889038
   7.2522807   6.8724976  32.1024704   8.2672024   8.1291752  30.2216358
   8.5704212   8.0158453  29.3178577  10.3931818   9.4093828  31.5834274
  10.3635626   9.8846302  32.7807312  10.3939753  10.2725830  30.5262413
  10.2344913   9.9148016  29.5952969  10.3881922  11.7767086  30.6692429
  11.0898819  12.1650953  31.4074097  10.6980076  12.5022907  29.3286972
  11.0082550  13.5094261  29.6071281  11.5906487  12.0754700  28.8714046
   9.5000906  12.5595913  28.2953529   8.5600595  12.7401609  28.8167324
   9.6486797  13.4323788  27.6595364   9.4666901  11.2544460  27.4315853
   8.6457052  10.3012571  27.5028419  10.2731533  11.3500376  26.5216999
   9.0822897  12.3007307  31.2584057   9.0565929  13.3795061  31.8582230
   8.0586357  11.5000029  31.1578426   8.1837978  10.5858612  30.7470169
   6.7566514  11.6542053  31.9312496   6.2646298  12.5886183  31.6612644
   5.7921586  10.5375204  31.5160713   5.7656817  10.5636759  30.4267063
   6.2399368   9.5882254  31.8100796   4.3715639  10.5466642  32.2010040
   3.8730364   9.6044941  31.9732170   4.4613261  10.5273161  33.2871284
   3.4253423  11.6476078  31.7475872   2.1889594  11.6174755  32.1576309
   3.8966498  12.6817875  31.1850986   6.9598556  11.5873919  33.4218712
   6.1169438  12.0149918  34.2525253   8.0706491  10.9895782  33.8692398
   8.7220583  10.6360302  33.1831131   8.3351507  10.9025364  35.3012047
   7.4859719  11.2461538  35.8918991   8.7008085   9.4339628  35.7113914
   9.5045204   9.1086626  35.0508385   9.1024961   9.5793247  36.7141953
   7.6115665   8.4079819  35.6390572   7.0869298   8.4268398  34.6838074
   7.9893746   7.3884192  35.7155952   6.5754766   8.3973866  36.6763496
   6.6292133   8.8538771  37.8585052   5.5953145   7.7279181  36.3482361
   9.5202885  11.8373690  35.6667213   9.2383032  12.7966805  36.4606400
  10.6624393  11.5149908  35.0750046  10.6144133  10.7296972  34.4416733
  11.8914671  12.2830467  35.3041840  12.1629076  12.2891617  36.3598289
  13.0536919  11.6692667  34.4741364  12.8080969  11.6142349  33.4135933
  14.4288340  12.3380394  34.6258430  14.2383614  13.3936882  34.4323540
  14.8495998  12.0770159  35.5968857  15.1300421  11.9561796  33.8838234
  13.3339062  10.2289734  34.8165817  13.7942877  10.1102972  35.7974319
  12.3451824   9.7906771  34.9523087  14.2247105   9.4429855  33.8012009
  13.6925898   9.4713068  32.8503342  15.2799435   9.7121878  33.7552071
  14.2132492   8.4374228  34.2216911  11.7617054  13.7561960  34.9882584
  12.1527939  14.5828180  35.8106422  10.9858274  14.2125168  33.9550133
  10.4144859  13.5016861  33.5209770  10.7896471  15.6734715  33.8958664
  11.7010746  16.2326050  34.1074524  10.2487316  16.1895905  32.5993805
   9.2456532  15.8092146  32.4063797  10.2305212  17.2643757  32.7799530
  11.2042589  15.8171425  31.4548779  11.4070425  14.7472525  31.5029831
  10.5618629  16.1331654  30.1259956  11.3271980  15.8759069  29.3937511
   9.6745872  15.5026217  30.0689144  10.2593966  17.1628914  29.9355183
  12.5379095  16.5182667  31.6384754  12.3017092  17.5771103  31.5328064
  12.9735527  16.3816109  32.6282425  13.2877970  16.2069416  30.9112587
   9.8248358  16.2889004  34.9007339  10.1074047  17.1913300  35.6517410
   8.6444349  15.6887445  35.1000519   8.4468393  14.8567924  34.5625458
   7.6546984  16.0353317  36.0894470   7.2673860  17.0344582  35.8898468
   6.4354739  15.0381336  36.1284943   6.6975451  13.9938412  35.9585762
   6.0659065  15.0901299  37.1526146   5.3742237  15.5319262  35.2156029
   5.1897492  16.6047440  35.2715645   5.7570529  15.3843832  34.2057648
   3.9963286  14.8595829  35.4067459   3.5436184  14.6357250  36.5267944
   3.3267875  14.3003378  34.4243813   3.6775961  14.5518732  33.5112762
   2.5376871  13.7251158  34.6823349   8.2579536  16.1335812  37.4993362
   8.0207195  17.1256790  38.2269974   9.0136147  15.1369438  37.9919815
   9.1612940  14.3584242  37.3657227   9.5119762  15.1631355  39.3928604
   8.6667089  15.3226976  40.0623131  10.1483631  13.7942371  39.7011108
  10.8437510  13.5195560  38.9079628  10.8168736  13.9110870  40.5540733
   9.2628489  12.6116705  40.0917511   8.8105679  12.1688480  39.2043686
   9.9485197  11.8461628  40.4550056   8.2383423  13.0010099  41.2095490
   8.7845306  13.3945980  42.0667953   7.5071430  13.6994495  40.8025703
   7.4614377  11.7464333  41.6788330   6.6680646  12.0095901  42.3784103
   7.0496569  11.3893538  40.7348862   8.3092051  10.6844559  42.2889214
   7.9414167   9.7787476  42.0349045   9.2545929  10.7995815  41.9526329
   8.2133303  10.7169285  43.2938385  10.5572786  16.2398548  39.6137047
  10.4936066  16.8784485  40.6605110  11.3969603  16.4084110  38.6315117
  11.2863121  15.7235298  37.8974876  12.3694916  17.4722576  38.5684814
  12.9796104  17.4197083  39.4702034  13.2619171  17.4206963  37.3428078
  12.6769619  17.5605278  36.4337578  14.3907824  18.5603275  37.1910973
  14.9823923  18.3198452  36.3077660  13.9663610  19.5296688  36.9296684
  15.0305500  18.6416016  38.0698395  14.0498295  16.2422218  37.4132652
  13.7914991  15.6312752  36.7192841  11.7757654  18.8885918  38.5408440
  12.1932144  19.7960148  39.2893753  10.6971579  19.0766754  37.7898979
  10.4533186  18.3346786  37.1495209   9.7904167  20.2578392  37.7895470
  10.3888569  21.1010361  37.4445953   8.5698357  20.1562328  36.7656898
   8.8612289  19.5691681  35.8947487   7.8041945  19.5233803  37.2144661
   8.1004019  21.5146961  36.3251610   7.9316573  22.0941906  37.2328033
   8.9719286  21.9696274  35.8544426   6.8333659  21.4054070  35.4820366
   7.0176554  20.9224319  34.5224152   6.0661297  20.7977085  35.9617767
   6.3206697  22.8377953  35.1699333   7.2301164  23.4258766  35.0467644
   5.8396177  22.8459435  34.1918602   5.4813099  23.3806610  36.2741776
   5.9157267  23.4240952  37.1849442   5.1969814  24.3199596  36.0354805
   4.6677680  22.8193302  36.4819260   9.2699652  20.5406303  39.1933708
   9.3834190  21.6585369  39.7224274   8.6993513  19.5347900  39.8709831
   8.6286612  18.6772804  39.3420410   7.9324617  19.6883850  41.0608139
   7.1360455  20.4219189  40.9353256   7.2676144  18.3534241  41.4397316
   8.0636168  17.6356144  41.2416725   7.0498266  18.3164635  42.5071144
   6.0196199  17.9370613  40.6457405   5.1066718  18.4701023  40.9112473
   6.2031946  18.0390472  39.5761604   5.6983590  16.4247551  40.7593269
   6.1445241  15.6716452  41.6911011   4.9665918  15.8680449  39.7690620
   4.8955517  16.3539963  38.8865051   4.7696266  14.8800249  39.8406296
   8.8851566  20.1252308  42.2691612   8.7129889  21.1974602  42.8827209
  10.0313311  19.4627228  42.3976974  10.1758804  18.6820469  41.7733955
  11.1519680  19.8565254  43.2986984  10.9446421  19.6054096  44.3389168
  12.2896662  18.9025173  42.9730186  12.0166397  17.8603859  43.1389046
  12.5183325  19.0525131  41.9178848  13.4936676  19.0772877  43.9068794
  13.7053957  20.1452065  43.9600143  13.4067268  18.4757366  45.2662048
  14.3465910  18.6094818  45.8018074  12.6560240  19.0588436  45.7996216
  13.1567879  17.4174023  45.3407516  14.7184219  18.4262314  43.2946281
  15.5948296  18.6610050  43.8986931  14.5692539  17.3555202  43.1552429
  14.9411335  18.9160423  42.3466911  11.5155010  21.3304977  43.0831528
  11.5485611  22.1310978  43.9793053  11.8986149  21.6562805  41.8604355
  11.8201590  21.1235542  41.0059509  12.2884588  23.0526371  41.5240898
  13.1984806  23.0766678  42.1235809  12.5906687  23.1689320  40.0094109
  11.8365526  22.5532818  39.5191193  12.4306087  24.1915073  39.6676216
  13.9701529  22.6580105  39.5837173  14.1831236  21.7411613  40.1333847
  13.9661608  22.2821236  38.0877266  14.9863815  21.9910374  37.8376846
  13.2549582  21.4687366  37.9438744  13.5494204  23.0270443  37.4098473
  15.1070948  23.6273975  39.6437340  15.2615089  24.0538368  40.6348953
  16.0103474  23.1905537  39.2178230  14.8830748  24.4582386  38.9746933
  11.3521643  24.1310825  42.1668816  11.8339291  24.9858341  42.9511909
  10.0225983  23.9784546  42.0235405   9.7039404  23.2185936  41.4394417
   9.0632658  24.8935757  42.6183472   9.4330978  25.9077110  42.4671745
   7.6725664  24.7626152  41.9048958   7.3462543  23.7268600  41.9988823
   6.8760257  25.3611145  42.3469734   7.5670972  25.0549183  40.3658562
   7.7083359  26.1153069  40.1567421   8.3750000  24.5879784  39.8025017
   6.2543168  24.5184040  39.8629189   5.1812706  25.0082684  40.3684540
   6.2942772  23.8361034  38.8122635   8.7377520  24.6808357  44.1021996
   8.3958197  25.6314259  44.7444305   8.9642792  23.5740032  44.6861572
   9.1500130  22.8089695  44.0534401   8.9763441  23.3346958  46.1781578
   8.0491848  23.8316364  46.4636841   8.9140892  21.8623028  46.4028587
   8.2528849  21.4612827  45.6346817   9.8984776  21.4288578  46.2262115
   8.4441481  21.4445896  47.8010902   8.5928240  20.3690205  47.8967361
   9.1804304  21.9094868  48.4567375   7.0141268  21.9100437  48.1851540
   6.9055524  21.7274666  49.2542572   6.9105735  22.9727631  47.9660492
   5.9569821  21.1891308  47.4731560   5.8970456  21.5322418  46.4403038
   6.2409377  20.1399918  47.3908195   4.6476831  21.4495449  48.0946579
   4.4818907  22.4448471  48.0500107   3.9123983  20.9809551  47.5848694
   4.6097789  21.0571747  49.0245552  10.1300669  23.9277992  46.8909340
  10.1153975  24.4614677  48.0324020  11.2762880  23.9086018  46.2112198
  11.3501463  23.3231277  45.3915443  12.4722099  24.7079391  46.6159363
  12.5499706  24.3379822  47.6382790  13.8046026  24.3460941  45.9378548
  13.6586409  24.6388588  44.8980980  14.9849730  25.0776711  46.5797958
  15.9488344  24.7754936  46.1702156  14.8254776  26.1549034  46.6270523
  15.0077066  24.7647591  47.6236687  14.1132946  22.8768291  45.8549461
  14.6398973  22.6070042  46.7703629  13.2731009  22.1891956  45.9516144
  15.1490612  22.4789047  44.7172394  15.3608418  21.4114113  44.7781258
  14.6294918  22.6567307  43.7756844  16.0727196  23.0555744  44.7663345
  12.2458906  26.1882820  46.4326668  12.5448227  26.8886471  47.3436089
  11.8028059  26.5877991  45.2778778  11.6577902  25.9258366  44.5289612
  11.5952988  28.0530262  45.0941429  12.5584249  28.5586739  45.1635208
  11.1459131  28.2511024  43.6664238  10.4212437  27.4492722  43.5249062
  10.4492474  29.5872593  43.5135612  10.2049589  29.6970234  42.4569740
   9.5177107  29.7324333  44.0606117  11.1318359  30.3931198  43.7833214
  12.3715115  28.1000252  42.6283264  12.8809996  29.0636253  42.6278381
  13.0711269  27.3992100  43.0838470  11.8881836  27.8325348  41.2114067
  11.3385296  28.6768284  40.7952995  12.7234306  27.7170238  40.5206680
  11.3077059  26.9105587  41.1781425  10.6458931  28.5950298  46.1365776
  10.7898502  29.7521191  46.5789337   9.5333910  27.8731632  46.4202232
   9.4330931  26.9173317  46.1096954   8.5882339  28.3177299  47.4479218
   8.2036028  29.3155975  47.2371559   7.3960624  27.3690376  47.6492424
   6.7138042  27.4412670  46.8022423   7.8605604  26.3997536  47.8304443
   6.4765663  27.6391048  48.8720016   5.8986149  26.7185688  48.9537849
   7.0892386  27.7373848  49.7681427   5.5430851  28.9476662  48.7197037
   4.4696279  28.9702892  49.3487816   5.8396831  29.8257866  47.8918915
   9.3467236  28.5056095  48.7867241   9.4060116  29.6661625  49.3002968
   9.9970255  27.4341850  49.2818146   9.9942932  26.5760250  48.7492256
  10.7337370  27.4169769  50.5473175  10.0023565  27.5837669  51.3381195
  11.4969912  26.0639153  50.6694641  10.6887980  25.3327847  50.6888313
  12.1212120  25.8799000  49.7950592  12.3737049  25.9998131  51.9105415
  13.1178293  25.2245083  51.7281113  12.9077024  26.9478817  51.9746933
  11.6937904  25.8142433  53.2620773  10.5705709  26.3917694  53.5054016
  12.1672258  25.0639248  54.1400757  11.7802801  28.5735245  50.5551720
  11.7590628  29.1659279  51.6008797  12.6713114  28.8307114  49.5883751
  12.6198549  28.2397785  48.7709122  13.7006140  29.8217850  49.6429520
  14.1780682  29.8084888  50.6227303  14.8278131  29.3488102  48.6844597
  14.3488617  28.8470936  47.8436317  15.5055571  30.1076965  48.2934914
  15.5273466  28.1583176  49.3951912  16.4077358  28.4889069  50.2001648
  15.2075491  26.9085331  49.1453171  15.7006884  26.1934147  49.6606026
  14.4047480  26.6840057  48.5750580  13.1811962  31.2658806  49.3060265
  13.8879986  32.2290001  49.5969849  11.9828262  31.4457932  48.7050285
  11.3815632  30.6374969  48.7773933  11.3554888  32.5996590  48.0599060
  10.4053087  32.2065735  47.6983185  11.0444250  33.6604538  49.1246948
  11.9181061  34.2223549  49.4549179  10.3786135  34.4060593  48.6900978
  10.4519835  33.1225166  50.4152946   9.2094879  32.5741692  50.5418930
   8.5647974  32.3698158  49.7917519   9.1126862  31.8345318  51.6851997
   8.4183979  31.0170879  51.8122864  10.2407017  32.0780525  52.3644409
  10.4978209  31.5682812  53.1975822  11.0768499  32.9537621  51.6203003
  12.1197920  33.2051163  51.7448044  12.1052780  33.1252174  46.8517036
  12.2166576  34.3197136  46.6190987  12.6583500  32.1663551  46.1089554
  12.6841660  31.2679558  46.5697327  13.6114502  32.5163841  44.9780731
  14.2368345  33.3024750  45.4012260  14.3127728  31.2191734  44.5912361
  13.6192102  30.4913673  44.1700745  15.4355984  31.2226887  43.5429840
  16.0438004  30.3239460  43.6452255  14.9163952  31.0318089  42.6037865
  16.1526909  32.0417480  43.5979996  14.9540329  30.5136814  45.6630859
  15.7510157  30.9971352  45.8926277  12.9501696  33.0704346  43.7678261
  11.7963591  32.7896118  43.5010986  13.6921148  33.8223648  42.8889999
  14.6704206  34.0096703  43.0561371  13.1756039  34.2537155  41.6047592
  12.2540321  33.7168579  41.3798370  12.5449896  35.6919746  41.8049240
  12.1275854  35.9981499  40.8456879  11.7207394  35.7489586  42.5158844
  13.5259333  36.7527390  42.2984238  14.1071854  36.5105133  43.1881294
  14.2835989  36.8632889  41.5226517  12.8204823  38.1474304  42.4889030
  12.1317120  38.3681412  41.6734352  12.2021093  37.9441261  43.3631935
  13.7640820  39.3705215  42.4753036  13.2265282  40.2916794  42.7002563
  14.4129620  39.2705956  43.3454056  14.4890661  39.4077339  41.2570801
  15.2886744  38.8152695  41.4294510  13.9357910  39.1092644  40.4665680
  15.0537863  40.2271385  41.0845528  14.1681976  34.1275520  40.4210396
  15.3015060  33.8883705  40.6621475  13.6703882  34.1942711  39.1357956
  12.3184357  34.1285477  38.5557556  11.7059298  35.0096741  38.7469368
  11.7962646  33.2457809  38.9247627  12.5210629  33.9256439  37.0859108
  12.2183781  34.7670860  36.4626503  11.8631401  33.1032104  36.8051147
  13.9149084  33.5274506  36.8859825  14.2639122  34.2167358  36.1170998
  14.0486326  32.4639435  36.6880684  14.6616888  33.8483963  38.1166916
  15.1951942  32.9418716  38.4024963  15.8043747  34.8907890  37.8939819
  16.8841019  34.4859772  37.4584770  15.5877380  36.1838455  38.1602364
  14.7781572  36.5004387  38.6744843  16.6119099  37.2334061  37.8575401
  16.8639660  37.1340179  36.8017540  15.9938354  38.6336823  37.9663582
  15.6625862  38.8903542  38.9725876  16.7406292  39.3914833  37.7294312
  14.7433205  38.9488640  37.0618782  14.7024813  40.0322456  37.1746254
  14.8956432  38.7839127  35.9952507  13.4489193  38.3370361  37.5424995
  12.7188025  37.6629372  36.7582016  13.1431189  38.6196747  38.7342033
  17.8408756  37.1521721  38.8053398  18.9473152  37.5859032  38.4458542
  17.6565418  36.5641937  40.0327301  16.7516899  36.2593842  40.3620186
  18.6541576  36.3943558  41.0127983  19.1824875  37.3458366  41.0731850
  18.0212975  36.1365852  42.3733521  17.5350132  35.1610794  42.3771935
  18.8760319  36.1320610  43.0497437  17.1024017  37.1793900  42.8542709
  16.8537006  37.1905136  44.1217384  16.5846481  37.9673805  42.0424232
  19.6769562  35.2329636  40.7110748  20.7589626  35.2523155  41.3448906
  19.4537582  34.4108658  39.6716576  18.6110630  34.5656967  39.1368752
  20.1232872  33.1848755  39.5446320  20.2046165  32.8304863  40.5721970
  19.2053528  32.1210480  38.8690796  18.9780540  32.3702164  37.8325691
  20.0378017  30.7910805  38.9387894  19.4189224  29.9090919  38.7739220
  20.7069111  30.9052448  38.0859375  20.5898190  30.7617760  39.8782158
  17.9108620  32.0209541  39.6571159  17.5291939  32.9571075  40.0646019
  17.1910458  31.4663868  39.0551033  18.2084904  31.3953686  40.4986382
  21.5002995  33.2998619  38.8031540  21.5408001  33.9003944  37.7479553
  22.5811710  32.7144470  39.3330383  22.4777966  32.2262764  40.2111664
  23.8890896  32.7490616  38.6702080  24.0852623  33.6578064  38.1011696
  25.0401192  32.7470055  39.6741676  24.9708881  31.9203491  40.3812370
  26.3652077  32.5719681  39.0388145  27.1055298  32.3713341  39.8132629
  26.3086205  31.7746773  38.2977142  26.6195526  33.5204277  38.5656967
  25.1149940  33.9776840  40.5786514  25.4030323  34.8860283  40.0494614
  24.1662712  34.1667976  41.0809097  25.7603588  33.7919197  41.4371910
  23.9492702  31.5695114  37.6532211  24.3488178  31.7703838  36.5225945
  23.5900803  30.3830471  38.0985222  23.3035698  30.2677345  39.0601425
  23.4453602  29.1305351  37.3422165  23.0265617  29.4042702  36.3738251
  24.7658558  28.3843956  37.2139359  24.5679379  27.4505005  36.6878471
  25.5285530  28.8436947  36.5850983  25.5971375  28.0611267  38.4463310
  25.8421268  29.0100594  38.9234123  24.9878979  27.5087280  39.1617241
  26.8486519  27.2303314  38.2630539  27.3302116  26.8235416  37.2074623
  27.5378780  26.8265343  39.3663177  28.4122524  26.3361740  39.2433510
  27.0763645  27.0595303  40.2339706  22.5051098  28.1678600  38.0390549
  22.2467079  28.2891769  39.2257805  22.0913677  27.0918884  37.3011703
  22.3415508  27.0615635  36.3231163  21.4982090  25.8467369  37.8602333
  21.6239834  25.7693100  38.9401817  20.0447636  25.9012947  37.5036774
  19.5900593  26.3963242  38.3617516  19.8149376  26.6840096  36.7807388
  19.3055706  24.5247059  37.3063126  19.6066589  24.0864811  36.3547859
  19.6391602  23.9219513  38.1510048  17.4824810  24.5472622  37.4065781
  17.0458527  26.1917934  36.8761940  17.3694229  26.8753147  37.6611824
  17.5319595  26.4967613  35.9494820  15.9648933  26.1109467  36.9906158
  22.2201996  24.5976543  37.2872162  22.5695324  24.4965973  36.0911522
  22.4766502  23.5391788  38.0831604  22.1556568  23.6653481  39.0324478
  23.0576439  22.2311802  37.7598000  23.0449734  22.2665348  36.6704445
  24.4836998  22.0725384  38.3590546  24.2582283  22.0943756  39.4252586
  24.7788467  21.0556431  38.1003532  25.5631886  23.1139393  38.1800346
  25.3501873  24.1402931  38.4789200  26.7800541  22.6568508  39.0294647
  27.0546246  21.6283493  38.7951584  27.7351341  23.0782814  38.7159042
  26.5799465  22.9089985  40.0708466  25.8690624  23.1808605  36.6219521
  26.4411888  22.2887688  36.3671036  24.9819355  23.1245766  35.9911270
  26.3441296  24.1370277  36.4025040  22.1157837  21.0564156  38.2109642
  21.4152813  21.0578289  39.2460403  22.0625801  20.0173264  37.3919868
  22.7684593  19.8927898  36.6804237  21.1372757  18.8835144  37.4374428
  20.6196976  18.8038940  38.3934097  20.0098896  18.9731274  36.3924866
  20.4379005  18.9942055  35.3902588  19.5010681  18.0162582  36.5091324
  19.0307159  20.1609745  36.5824509  19.2743702  20.6289196  37.5362625
  19.3908348  21.2629890  35.5885811  19.1405983  20.8834801  34.5979004
  18.7878933  22.0991135  35.9427795  20.4526558  21.4855824  35.6938972
  17.5432854  19.7349720  36.4416580  17.3395500  19.0095425  35.6540337
  17.3063316  19.2495403  37.3883934  16.8729000  20.5335388  36.1238937
  21.8901501  17.5958481  37.1873741  22.7075253  17.4440498  36.2757721
  21.5397873  16.6503391  38.0183411  20.7520256  16.7111053  38.6474991
  22.1374474  15.3228979  38.1268044  22.7390957  15.0448141  37.2614746
  23.0777016  15.3118839  39.3627777  23.9365005  15.9493284  39.1524696
  22.5740776  15.6137581  40.2811127  23.5473900  13.9944839  39.4504395
  24.2476978  13.9722338  40.1066971  21.1387520  14.2678738  38.1997604
  20.0234604  14.5769939  38.6670265  21.4126377  13.0537329  37.7578545
  22.3281441  12.8425274  37.3872604  20.6349602  11.8576326  38.1387787
  20.1551819  11.9259758  39.1151199  19.4467850  11.7457352  37.0818672
  18.6618347  12.3666735  37.5135918  19.6482983  12.1414194  36.0864143
  19.0823116  10.7187786  37.0569458  21.4626846  10.6021385  38.2971458
  22.6197224  10.6650333  37.8025780  20.9530888   9.5117044  38.8720245
  20.0540085   9.6476660  39.3116455  21.6686420   8.2344427  38.9730606
  22.6775665   8.4602356  39.3182983  21.1900673   7.3844247  40.1615372
  21.9103222   6.5707059  40.2463570  21.1938858   8.0742588  41.4612503
  20.3814068   8.7944107  41.5579720  21.0546894   7.3637528  42.2760544
  22.0703526   8.6989822  41.6333733  19.8884029   6.7738690  39.9154243
  19.9254169   5.8301740  39.7431755  21.6868553   7.3797855  37.6975975
  20.7079105   7.2591224  36.9740791  22.8001595   6.6421666  37.3574371
  24.0777092   6.5492387  38.0752106  23.9980965   5.9913182  39.0082092
  24.5079708   7.5148315  38.3409500  25.1526947   5.9334831  37.1574669
  25.8668995   5.3641229  37.7523155  25.5413761   6.7802620  36.5917892
  24.3107491   5.1439137  36.2706032  24.1516247   4.2286830  36.8407974
  24.7950230   4.9452763  35.3145027  22.9466820   5.8767009  36.1502075
  22.9789238   6.5261059  35.2753716  21.9912300   4.7572527  35.7647362
  22.1609497   4.2467737  34.6593781  21.0449867   4.5308814  36.6327820
  20.8409996   5.2078938  37.3539925  19.8720284   3.7407870  36.1304626
  20.2889023   2.8039796  35.7607117  18.9001846   3.4043946  37.3056107
  18.2494869   4.2339444  37.5822716  18.2709274   2.5459161  37.0707703
  19.5378323   2.9706926  38.6216354  19.7827530   3.9822383  39.3044395
  19.7480488   1.7544640  38.9322433  18.9988689   4.3929167  35.0533752
  18.3332138   3.5997894  34.3806763  19.0073318   5.7493024  34.9180717
  19.7100868   6.2345791  35.4572754  17.9879456   6.5938430  34.2038918
  17.0688248   6.0551057  33.9734993  17.6896324   7.8415704  35.0812073
  18.6061687   8.4161978  35.2148628  17.0514259   8.5582542  34.5643349
  17.0357151   7.4196310  36.4501228  17.8283138   6.9012485  36.9897232
  16.6678905   8.6086245  37.3875809  16.1510048   9.3105774  36.7332153
  15.9962063   8.3275776  38.1987267  17.5747604   9.1634531  37.6281013
  15.6804476   6.6781363  36.2386665  15.9520321   5.7312427  35.7720528
  15.3424835   6.4257884  37.2437515  15.0411978   7.3375473  35.6516075
  18.6057301   7.1401100  32.9059219  19.7294140   7.6365285  32.7837486
  17.8443241   7.0753932  31.8127403  16.9096050   6.7038536  31.9041672
  18.3576508   7.3955164  30.4853420  19.1285286   8.1644573  30.5361156
  18.8625088   6.1633849  29.6765575  18.0413113   5.4657950  29.5119209
  19.2204418   6.5166626  28.7095108  19.9970474   5.4289446  30.2806129
  21.1225681   6.0269399  30.8320274  21.3777351   7.0040488  30.8162746
  21.7897682   5.0710211  31.5378132  22.6127663   5.1549678  32.2320938
  21.0746593   3.8973329  31.3675499  21.3020763   2.9989684  31.7691994
  19.9230919   4.0764952  30.5912952  19.1303329   3.3938687  30.3230495
  17.3675442   8.0755920  29.5303822  17.8434334   8.4847584  28.4479103
  16.0504227   8.1663218  29.8490181  15.7464991   7.9728365  30.7925720
  15.0039463   8.5661898  28.8668404  15.0466156   8.0180998  27.9256306
  13.7000322   8.2146702  29.5244560  13.5764561   7.1367717  29.6291618
  13.6172352   8.8235512  30.4247398  12.8928404   8.3902092  28.8133106
  15.1169252  10.0400667  28.4082756  14.5572004  10.3964891  27.3564568
  15.7499943  10.9404411  29.1080914  16.3576927  10.4917316  29.7785110
  15.7811050  12.3915005  28.9470119  15.8379030  12.6329641  27.8856106
  14.5352354  13.0641308  29.5595055  13.7208738  12.4046288  29.2595558
  14.3444738  13.1826706  31.0586815  14.2435913  12.1939287  31.5062466
  15.2137403  13.7313766  31.4211693  13.4698162  13.7811871  31.3133488
  14.1687784  14.4040260  28.8509464  14.9718199  15.1119375  29.0560818
  14.1234140  14.2663956  27.7706223  13.1881828  14.7025309  29.2216568
  17.0937824  12.8943510  29.5885334  17.5457687  12.4378309  30.6223030
  17.6010151  14.0677605  29.1336098  17.1748867  14.4246931  28.2903347
  18.5155315  14.9477539  29.9860001  19.1514149  14.2555218  30.5378761
  19.3550110  15.8721313  29.0826950  18.6324730  16.4689579  28.5260658
  19.8645210  16.6646194  29.6308441  20.3579483  15.1806850  28.1859570
  21.5561333  14.9250278  28.7441807  21.7099915  15.2359743  29.7669468
  22.5716953  14.3101788  27.9944649  23.6054192  14.3869495  28.2976437
  22.3370914  14.0715961  26.6688881  23.0348625  13.6271572  25.9746323
  21.1123581  14.4698219  26.0670586  20.9283905  14.3879690  25.0059948
  20.0626316  14.9759369  26.8449745  19.1175747  15.3196306  26.4510956
  17.6112366  15.8476114  30.8954659  16.7919731  16.5918770  30.3330364
  17.6715221  15.8488073  32.2582016  18.5471230  15.1172247  33.0817413
  19.4728718  15.6446304  33.3118134  18.6063747  14.1784821  32.5309677
  17.7475777  14.8025274  34.3630791  18.3915062  14.6626387  35.2313461
  17.2169762  13.8607702  34.2228813  16.6533070  15.8266411  34.3999672
  16.8824444  16.6883488  35.0269089  15.7182503  15.3633213  34.7147751
  16.5110588  16.2707005  32.9872818  15.6520920  15.7318726  32.5873528
  16.2784328  17.7807693  32.8457108  15.1459742  18.1933384  33.2289505
  17.2162857  18.5716457  32.2845573  18.0621624  18.2178745  31.8609562
  17.1373997  20.0298233  32.1898422  17.3629322  20.3687153  33.2009735
  18.2253342  20.5519447  31.2908211  19.2214775  20.4830341  31.7279243
  18.2275925  20.0520496  30.3222141  18.1070061  21.6263428  31.1502171
  15.8264437  20.6351128  31.5758743  15.4582415  21.7408123  32.0169449
  15.2685299  19.9357777  30.6038113  15.7481480  19.1114635  30.2712860
  14.0940619  20.3441353  29.7216606  14.4073086  21.2461548  29.1959820
  13.7721834  19.2040062  28.8042507  13.5905676  18.2976227  29.3818188
  12.8274450  19.4140511  28.3028030  14.8354378  18.8984680  27.7469120
  15.3086567  19.8189316  27.4049911  15.5851669  18.1924629  28.1040840
  14.1837788  18.2103081  26.5571156  14.0576000  17.1493130  26.7726746
  13.2532387  18.6726131  26.2277660  15.0708456  18.3389492  25.3402805
  15.2204342  19.3718853  25.0260086  16.0265007  17.9844608  25.7264957
  14.5976868  17.5662727  24.1753807  13.9344225  18.0266209  23.5685368
  15.3876667  17.3137894  23.5989399  14.0618982  16.7512417  24.4375973
  12.8863640  20.7532978  30.6153259  12.1829109  21.7250309  30.2384052
  12.7628717  20.1272869  31.8075581  13.4062243  19.3653316  31.9676323
  11.7476435  20.4826145  32.7703438  10.7761650  20.3399410  32.2970734
  11.8817396  19.6073189  34.0147667  11.0679693  19.8068466  34.7119560
  11.8889217  18.5438824  33.7757072  12.7936230  19.8277340  34.5697327
  11.7461071  21.9986820  33.1245575  10.6505814  22.5762081  33.3108902
  12.8949318  22.6521721  33.2052689  13.6967506  22.0503941  33.0825882
  13.0782843  24.1131115  33.5857811  12.7723541  24.1941299  34.6288261
  14.5598841  24.4937744  33.5354156  14.9107685  24.1048393  32.5795288
  14.7937546  25.9546890  33.7998276  15.8341570  26.1883640  34.0257912
  14.5635271  26.3992805  32.8316116  14.1149063  26.2708263  34.5918655
  15.2500086  23.7873783  34.6915054  16.2823849  24.1369114  34.7026520
  14.7432842  24.1520481  35.5850105  15.2726068  22.7100086  34.5276070
  12.1293344  24.9431686  32.6486320  11.3969183  25.7749004  33.1596375
  12.0767040  24.7448235  31.3745480  12.6754189  24.0991631  30.8798141
  11.2735014  25.4554844  30.4656143  11.4567986  26.5299511  30.4704132
  11.6174488  24.9988022  29.0368671  11.3009253  23.9560165  29.0594540
  11.0365963  25.4477577  28.2311687  13.0909796  25.1020126  28.6803303
  13.3784180  26.1516247  28.6187153  13.7331505  24.6832180  29.4551392
  13.4817657  24.4063206  27.3190880  13.1920233  23.3674431  27.4768353
  12.9440279  24.9266338  26.5264874  14.9719687  24.6037235  27.1402512
  15.5044594  25.0370979  27.8810215  15.6928101  24.2850628  26.1102524
  15.0669222  23.9165421  25.0744820  14.0649967  23.8186665  24.9928226
  15.5586863  23.6269341  24.2411785  17.0014019  24.3197956  25.9849720
  17.4673500  24.1833134  25.0993233  17.5358047  24.6674023  26.7683525
   9.7844391  25.3095036  30.5544662   9.0383606  26.0267544  29.9096069
   9.3407097  24.3677883  31.4315624  10.0471935  23.8657303  31.9501343
   7.9846749  24.2399769  31.8122711   7.3030281  24.5770664  31.0313568
   7.6864796  22.7953739  32.2324066   8.0759268  22.4744473  33.1985512
   6.6095247  22.8306065  32.3968124   8.0880013  21.7497768  31.1510487
   9.1772881  21.7122269  31.1389580   7.7145214  20.7594376  31.4115162
   7.6004519  22.1042881  29.7498379   6.5286441  22.6960182  29.5493889
   8.1269875  21.4596977  28.8058472   7.5845366  25.1656933  33.0218468
   6.3689375  25.2824554  33.3107719   8.5642071  25.8847294  33.5802231
   9.5039139  25.7891083  33.2225838   8.3210516  27.0225544  34.4584351
   7.2977657  27.0562763  34.8324013   9.4162884  27.0241032  35.6217957
  10.3636913  26.9678249  35.0857353   9.3615475  28.0156059  36.0712776
   9.3517618  26.0524597  36.8009491   8.3032093  26.0395985  37.0984039
   9.8707256  24.6699657  36.4525185  10.7382669  24.6968822  35.7931747
   9.9894457  24.0590057  37.3473587   9.0844698  24.2753029  35.8089790
  10.1932182  26.5821800  37.9892197  10.3344545  27.6604538  38.0632782
   9.6940794  26.2620792  38.9038200  11.1787233  26.1164799  37.9871712
   8.4252872  28.3837738  33.6816177   9.1933985  28.4783516  32.6661263
   7.7485518  29.4506168  34.1038742   7.2568455  29.3947983  34.9843369
   7.7861319  30.8124123  33.4812469   7.5796261  30.6527615  32.4229584
   6.6657882  31.5675983  34.0988693   5.8009987  30.9077511  34.0292969
   6.8784304  31.6437092  35.1652145   6.4611187  32.7616577  33.4424286
   6.5515056  33.5046005  34.0436516   9.1519728  31.5265217  33.8235016
   9.6516333  31.6051426  34.9819794   9.7240133  32.1676941  32.7767830
   9.2205343  32.2070580  31.9021053  10.9253168  33.0157051  32.8033714
  10.9599075  33.4832420  31.8193436  10.7772970  33.7130051  33.6279755
  12.2277327  32.2634430  33.1281395  13.3234148  32.7127113  32.8289337
  12.1890001  31.1079941  33.7976570  11.2716589  30.7506618  34.0232658
  13.3190966  30.3198528  34.0084610  13.9417582  31.0023651  34.5868835
  12.8188801  29.2272224  34.9395561  11.8839560  28.7554607  34.6371346
  13.5900373  28.4570103  34.9258461  12.6771879  29.5609379  36.3637962
  11.5730982  30.0341740  36.9767570  10.5591459  30.2149906  36.6517868
  11.9181890  30.3889198  38.2372589  11.2050858  30.5192451  38.9405365
  13.2048206  30.0953846  38.5988884  13.9014549  30.2641335  39.8182144
  13.4283800  30.8166962  40.6165085  15.1936550  29.7555256  39.9099426
  15.7307415  29.8662148  40.8403664  15.7514153  29.1435757  38.7642593
  16.6767120  28.6030293  38.8985481  15.0840216  29.0782509  37.5045395
  15.5050516  28.5357380  36.6709824  13.6951256  29.5325031  37.4094467
  14.0502090  29.8265572  32.7741928  15.1718493  29.3711071  33.0457153
  13.5014658  29.9738998  31.5292797  12.5221338  30.1760082  31.3872910
  14.2979565  29.7589283  30.2765369  14.5560789  28.6999435  30.2816830
  13.4016171  29.9510555  29.0630169  14.0299006  29.8062115  28.1841660
  12.6389256  29.1821098  29.1860008  12.7086220  31.3328896  28.9620705
  12.0994778  31.7742519  29.7508945  13.5136881  32.0408020  28.7649956
  11.7558241  31.3757381  27.7254200  12.0910702  31.0866337  26.5868664
  10.5694962  31.8275337  27.9340267  10.1952620  32.0810013  28.8372440
  10.0284414  31.8909416  27.0835323  15.5813303  30.5595417  30.0354061
  16.5291691  29.9996395  29.4469471  15.7622328  31.6889801  30.7258263
  14.9941587  31.9877281  31.3097038  16.9324017  32.6165848  30.7625885
  17.4113483  32.6851730  29.7858562  16.5268211  34.0161629  31.1600761
  16.2403641  33.9941025  32.2115288  17.3807812  34.6810417  31.0304985
  15.4235067  34.6531944  30.3150616  15.4860277  34.8154716  28.9384689
  16.3794785  34.5677567  28.3845882  14.3633633  35.1768036  28.1315804
  14.4603224  35.2697639  27.0599670  13.1726179  35.3999405  28.8631439
  12.0976906  35.7589836  28.1458149  12.3925085  35.9527893  27.2529984
  13.1279831  35.3180847  30.2899303  12.2235441  35.4694138  30.8604488
  14.2467661  34.9780846  30.9893246  14.2458324  35.0266495  32.0682297
  18.0342026  32.1491165  31.7263584  19.1718102  32.4938049  31.5035782
  17.7182426  31.2709999  32.6891937  16.8542080  30.7591934  32.5814934
  18.6966553  30.7050648  33.5811577  19.2052708  31.5124741  34.1079483
  17.9705048  30.0234184  34.7742844  17.3881397  29.1742649  34.4166679
  18.9466305  29.6700211  35.8877716  19.5533886  28.8133678  35.5943527
  19.5451069  30.5028095  36.2570839  18.4465408  29.2244263  36.7476845
  17.0176182  30.9868317  35.4763527  16.5901775  30.5014725  36.3537445
  17.4353676  31.9539261  35.7561989  16.2639580  31.2000084  34.7182961
  19.7390633  29.7913837  32.8276825  19.2589588  28.9996090  31.9999428
  21.0665798  29.8657379  33.0037575  21.6604557  31.0213470  33.7411385
  21.5095100  30.9519901  34.8184090  21.3481064  31.9459686  33.2557373
  23.1903076  30.8701096  33.5629807  23.6474495  30.2181339  34.3073273
  23.7054482  31.8302765  33.5343742  23.3206081  29.9470215  32.3324547
  24.2947521  29.4792614  32.1898117  23.1729851  30.6282310  31.4944439
  22.0841694  29.0211143  32.3115196  21.8578281  28.7800484  31.2728863
  22.0563030  27.7786713  33.1329727  22.1378784  27.7735176  34.3206787
  21.8124752  26.6561699  32.4299278  21.6936111  26.8023129  31.4376526
  21.7791462  25.2952690  32.9958458  22.1973190  25.3640919  34.0000839
  20.3273907  24.6944656  33.0634079  20.2486877  23.8630733  33.7639122
  19.2730789  25.6288490  33.6067543  18.3828850  25.0002842  33.6302719
  19.5752983  26.1289024  34.5269203  19.1271687  26.4627228  32.9201202
  19.8618107  24.0579491  31.7065086  20.4068642  23.1327991  31.5191116
  18.8023243  23.8475266  31.8524895  19.9947720  24.7741489  30.8956547
  22.7244854  24.3771210  32.2480278  23.2032051  24.6569786  31.1359081
  23.1130543  23.2952404  32.9399300  22.8116322  23.2917709  33.9038963
  23.7983418  22.0538273  32.3478584  23.3172092  21.8642826  31.3883343
  25.2844486  22.3322201  32.0627670  25.3433723  23.1789074  31.3788433
  26.1770935  22.5731812  33.2645149  25.6147270  23.1658516  33.9860306
  26.3015862  21.5602379  33.6473312  27.0829334  23.0495510  32.8895149
  25.8281860  21.1607323  31.4661617  25.8879604  20.4669991  32.1270409
  23.6348858  20.7543106  33.1550636  23.8676300  20.8069916  34.3431282
  23.1622372  19.6989880  32.4997330  22.8838024  19.8244076  31.5370045
  23.2999096  18.3564644  32.9839020  22.7670898  18.1753426  33.9173889
  22.5073128  17.4528866  32.0076523  22.9895382  17.5622578  31.0362606
  22.6069756  16.3903236  32.2293091  20.8203716  17.8764973  31.7914181
  21.0205536  18.8900566  30.9443531  24.7453976  17.8953857  33.1738091
  25.6404724  18.3461914  32.4885368  25.0033474  16.9451103  34.1103897
  24.2046528  16.7027931  34.6791344  26.3002968  16.3208523  34.4507637
  26.8340454  16.1588287  33.5143013  27.1129627  17.2703533  35.3859406
  28.1486931  16.9415779  35.4711990  27.2260475  18.1919041  34.8149261
  26.5291195  17.6365719  36.8010635  25.4612484  17.4220886  36.7592392
  26.8966503  16.9410133  37.5555267  26.6602688  19.4222775  37.2092400
  28.4248886  19.5759888  37.4519424  28.7300148  19.1397324  38.4030838
  28.9910049  19.1507645  36.6232109  28.6471863  20.6428108  37.4760513
  25.9534950  15.0038061  35.1109848  24.9182091  14.7376623  35.7434883
  26.7257767  13.9879246  34.7669983  27.5281563  14.1627388  34.1790123
  26.6394100  12.6290884  35.2932320  25.5821819  12.4529858  35.4916229
  26.9932537  11.6075048  34.2379189  26.4569359  11.9205103  33.3420982
  28.0780811  11.6659966  34.1494255  26.5834084  10.0983734  34.6050644
  26.7331810   9.4355021  33.7528496  27.2156982   9.5538969  35.3063889
  25.1591167  10.0120125  35.1339607  24.1522942  10.3055038  34.4871025
  25.0104599   9.5421848  36.3497467  24.0516300   9.6888237  36.6312408
  25.8029270   9.2359219  36.8959122  27.4209099  12.4333925  36.5550194
  28.5013485  13.0138006  36.7282944  26.8529587  11.7376642  37.4980774
  25.8666840  11.5347338  37.4194336  27.5212078  11.2772312  38.7284851
  28.4933777  11.7697926  38.7477608  26.7869415  11.7810488  39.9616051
  27.4586086  11.5662766  40.7927704  26.5839882  12.8503799  39.9028854
  25.4414711  11.0771475  40.3040962  24.5552540  11.6084146  39.9569969
  25.3776340  10.1295261  39.7692680  25.1289082  10.9909782  41.7911224
  25.5204334  11.8862514  42.5735855  24.2766151  10.0999327  42.0653038
  27.7781906   9.7598124  38.7578430  27.2309303   8.9499197  37.9790688
  28.6247082   9.3722363  39.6559944  28.6425838   9.9540844  40.4813690
  28.9939651   8.0267458  39.8698235  29.2434139   7.6152067  38.8918076
  30.3420963   7.9942431  40.6790123  30.6880970   6.9624844  40.6168709
  31.0773296   8.7206926  40.3328896  30.0342293   8.3815708  42.1305008
  29.4318180   9.2899714  42.1334305  29.4670506   7.5636134  42.5747490
  31.4920216   8.6211510  43.1866760  32.2493172   6.9507833  43.2832603
  33.0385780   7.0816283  44.0235634  31.4616756   6.2205839  43.4690857
  32.7069778   6.7195382  42.3214035  27.8360157   7.2923889  40.5094681
  27.0263844   7.8252754  41.2969551  27.8157864   5.9746218  40.2652550
  28.3832436   5.5838990  39.5267220  27.1170692   5.0101132  41.1895981
  26.1869011   5.4414325  41.5595322  26.8938332   3.7780743  40.3255997
  26.2866592   4.0058079  39.4494820  27.8388195   3.3265011  40.0236244
  26.0384922   2.7125018  41.1342354  26.1105995   1.4866868  40.7548065
  25.3293514   3.0633273  42.0549316  28.0431232   4.7105813  42.3853989
  29.3137455   4.7798066  42.2996178  27.4315624   4.1609392  43.4570198
  26.4245052   4.0845737  43.4672165  28.1549950   3.8250394  44.6093826
  29.1840496   3.5315742  44.4019547  28.2802181   4.9246154  45.6396255
  27.3106461   5.4221754  45.6180420  28.6876602   4.6260667  47.0728111
  29.7151604   4.2654901  47.0245857  28.7767715   5.4901700  47.7312088
  27.9100780   4.0104909  47.5250740  29.2549152   6.0502629  45.1462517
  30.2643661   5.7163715  44.9062195  28.6846085   6.6231022  44.4150124
  29.4098167   6.7704225  45.9496651  27.5112572   2.6050813  45.2329979
  26.2895985   2.4702435  45.1529579  28.2662354   1.7360504  45.9102440
  29.2631245   1.8773146  45.9899788  27.7650909   0.3695181  46.3061905
  27.2425365  -0.0391992  45.4413300  28.9931660  -0.4831106  46.7004547
  29.4781265  -0.1673732  47.6241570  28.5519524  -1.9557705  46.8131294
  28.2782669  -2.4044232  45.8581886  29.4302788  -2.4688933  47.2047195
  27.7680397  -2.1113553  47.5543251  29.9911346  -0.4191450  45.6774101
  29.5441265  -0.5232185  44.8342323  26.6513767   0.4059583  47.3655586
  25.8435383  -0.4782831  47.3649521  26.5497284   1.4062405  48.1973343
  27.2688503   2.1001470  48.3438225  25.4292450   1.6272026  49.1841278
  24.8259163   0.7406721  49.3794785  25.9198761   1.8165703  50.1388626
  24.4979877   2.8125753  48.8246384  23.6225948   3.0200536  49.6126213
  24.6004124   3.4479542  47.6351967  25.2460117   3.0484602  46.9690857
  23.9013538   4.6502633  47.3074951  24.0732441   5.4377308  48.0412865
  24.4486141   5.0449629  46.4514427  22.3612957   4.4630046  47.0031319
  21.9242363   3.4191658  46.4958534  21.5443630   5.4922385  47.2012215
  21.9077721   6.2888803  47.7046089  20.1179962   5.5656528  46.8021469
  19.5961971   4.7464952  47.2969246  19.4672356   6.8638144  47.3574295
  19.6565323   6.8765612  48.4307938  20.0915451   7.7159328  47.0886612
  18.0051785   7.0980468  46.8689957  18.0030441   7.1249933  45.7793312
  16.9687366   6.1079240  47.3724709  15.9944010   6.4201560  46.9965897
  17.1814575   5.0911875  47.0421715  16.8385124   6.1880541  48.4516983
  17.6885872   8.5145378  47.3749046  17.8636036   8.6319456  48.4443359
  18.3036709   9.2720299  46.8891296  16.6693039   8.8725882  47.2301331
  19.8480587   5.3354869  45.2805901  20.2245007   6.2644844  44.5005074
  19.1679173   4.3270707  44.7499428  18.8897514   3.5353575  45.3120041
  18.8966370   4.2804298  43.2586212  19.7448483   4.6640115  42.6916122
  18.6692829   2.7865467  42.9020081  17.8654766   2.4845157  43.5734062
  18.3643417   2.5854073  41.8750458  19.9243851   1.8911145  43.0849228
  20.0511074   1.7837049  44.1621895  19.6449547   0.8642663  42.8491211
  21.2173347   2.3856332  42.3077316  20.9134369   2.9514792  41.4270668
  21.8945522   2.9017215  42.9882698  21.8685303   1.1199806  41.8439484
  21.6177311   0.2618194  42.4674568  21.4336300   0.9890336  40.8530846
  23.3092861   1.1416867  41.8334656  23.7053795   0.3254947  41.3895721
  23.7102375   1.9691519  41.4155655  23.7205620   1.2355037  42.7511559
  17.6596127   5.1429658  42.7700615  16.7810040   5.5215278  43.5649147
  17.6649761   5.4286480  41.4523468  18.4718971   5.0375471  40.9875679
  16.7632179   6.2547302  40.6154137  17.2928600   6.3991246  39.6737480
  15.4488478   5.5007205  40.2870712  14.9737282   5.4186778  41.2646332
  14.7785053   5.9845610  39.5766907  15.6371279   4.0528564  39.7653389
  16.2681789   3.9181268  38.8868599  16.0803185   3.4092371  40.5252342
  14.2774506   3.3819063  39.4321098  13.6855564   3.2936978  40.3431435
  13.8375864   3.8464000  38.5495720  14.6710958   2.0273900  38.9539337
  15.4608955   2.0362144  38.2027740  15.0631180   1.5465392  39.8501472
  13.5854053   1.3001425  38.3183136  13.9359837   0.5257065  37.7729301
  12.9419813   0.8874625  38.9784698  13.0888891   1.9119877  37.6864777
  16.5524693   7.6024246  41.3242149  15.4478540   8.1127987  41.4078140
  17.6379910   8.1781235  41.8597374  18.5800953   7.8950076  41.6308556
  17.6156254   9.5155296  42.4186707  16.5732670   9.7900238  42.5806541
  18.3131580   9.6011515  43.7680550  17.9027424   8.8620625  44.4561005
  19.3525467   9.3533192  43.5527534  18.2291927  11.1957016  44.6363945
  18.8503361  11.9820223  43.7527771  18.0565510  10.7142754  41.4311752
  18.6685677  10.4669180  40.3780632  17.6477776  11.9540014  41.6910248
  17.0238647  12.0344954  42.4811859  17.7612362  13.1855478  40.8926468
  18.5884781  13.0350676  40.1990128  16.4639969  13.5529127  40.0907974
  15.7448177  13.8970089  40.8340874  16.7286472  14.8410645  39.2316055
  15.8474493  15.2442923  38.7326050  16.9294376  15.7252426  39.8365974
  17.4374542  14.5700045  38.4491577  15.8352280  12.3611155  39.3262978
  16.5828342  12.0627804  38.5913277  15.8221302  11.4528580  39.9287910
  14.4028149  12.5500479  38.8441582  13.6808729  12.5980148  39.6593895
  14.2845087  13.5005589  38.3239326  14.1582050  11.7145519  38.1882515
  18.2954826  14.2396231  41.9414368  17.7055225  14.3477430  42.9852257
  19.3560772  15.0141954  41.6096344  19.7683239  14.8294706  40.7062912
  20.1146908  15.9040327  42.5277557  19.6156712  16.1260452  43.4710426
  21.5001144  15.3578138  42.9185600  21.9466648  14.7870693  42.1043434
  22.0965195  16.2472229  43.1219101  21.6069603  14.4508581  44.2237167
  21.3013706  15.0144873  45.1052132  21.0256824  13.5358610  44.1096992
  22.9936390  13.9832249  44.5466080  23.7138367  14.4913359  43.9053230
  23.1961193  14.3044214  45.5683403  23.2591190  12.5606070  44.3084488
  23.9036236  12.2888994  43.5798264  23.0645733  11.6080847  45.1269684
  22.4714203  11.8221483  46.2597656  22.5604267  11.1762695  47.0311394
  22.3770905  12.8038664  46.4775505  23.3526859  10.4015446  44.7744789
  23.0579739   9.6191797  45.3411789  23.7038250  10.2271519  43.8436775
  20.2242279  17.2118301  41.7823257  20.7121830  17.2133923  40.6571655
  19.7155876  18.3151245  42.3652573  19.4160175  18.2718143  43.3288383
  19.8291721  19.6474686  41.7278175  20.5806179  19.5164452  40.9491920
  18.4745522  20.1727390  41.0983086  18.6137905  21.0553493  40.4740372
  17.9318562  19.1972198  40.1253204  17.5454025  18.3454533  40.6850014
  17.1042042  19.6068497  39.5462723  18.7116184  19.0560570  39.3768921
  17.5080967  20.5950012  42.2860641  16.5022869  20.6908836  41.8770981
  17.6054554  19.8922749  43.1135902  17.8879356  21.5843201  42.5411568
  20.5320244  20.6507435  42.5811043  20.6536007  20.4874210  43.7746391
  21.0071316  21.7215099  41.9479790  20.8285503  21.8430805  40.9613533
  21.6458569  22.9104557  42.6013107  21.4459000  22.9480534  43.6721535
  23.2048759  22.7065163  42.5032196  23.3999825  21.7965260  43.0706291
  23.3912735  22.4055538  41.4723091  24.0422592  23.8622818  42.8852692
  25.0983086  23.6861362  42.6807404  23.7000008  24.6791077  42.2498512
  23.8224926  24.2984257  44.6314507  25.4061871  23.7894287  45.4081764
  25.4531155  22.7095203  45.5485077  26.2603798  23.9530544  44.7511520
  25.5744247  24.3705730  46.3148613  21.2495594  24.1829262  41.8226852
  21.4062462  24.1638775  40.6070480  20.6557865  25.1210918  42.4964981
  20.6348286  24.8551903  43.4706421  20.5966492  26.5530148  42.0588112
  20.6421757  26.6530323  40.9743652  19.2239723  27.0696373  42.5725136
  18.9319553  26.6569767  43.5381927  19.2929554  28.1518612  42.6827011
  18.1059151  26.7778549  41.5741501  18.3628769  27.4514217  40.7566071
  18.1173210  25.7679825  41.1641159  16.4285583  27.2489147  42.2464371
  16.2434807  25.9499741  43.4289284  17.0023346  25.9697590  44.2111359
  15.3516407  26.1869850  44.0090561  16.1776447  24.9394016  43.0258064
  21.7349300  27.4057713  42.7223167  21.7670593  27.5105171  43.9571533
  22.6626854  28.0082378  41.9522705  22.5615444  27.9135952  40.9518127
  23.5565891  29.0235023  42.4898071  23.7536354  28.6872673  43.5077591
  24.9122448  29.1317501  41.7375374  24.7118683  29.4600792  40.7176628
  25.8287716  30.0404892  42.5496559  25.2791157  30.9798965  42.4904861
  25.9919014  29.7617550  43.5907097  26.7948627  30.1965618  42.0696449
  25.6198292  27.8537922  41.6575508  26.0631599  27.7533703  42.5031128
  22.7923069  30.4193687  42.4102821  22.4158211  30.9122162  41.3811188
  22.3887272  30.9840374  43.5865936  22.7130089  30.5408039  44.4342308
  21.6870041  32.2470284  43.6743126  21.5990486  32.7194443  42.6959534
  20.2740765  32.0374870  44.3525734  20.4243698  31.7376652  45.3896942
  19.3897877  33.3043709  44.3381958  19.7605057  33.9370613  43.5317383
  18.3788910  32.9266129  44.1849518  19.3962994  33.8009605  45.3084793
  19.6060467  30.8521900  43.6055374  18.5295715  30.9187717  43.7632332
  19.7821102  30.9345360  42.5330048  19.9862633  29.9035168  43.9844246
  22.4127674  33.2533112  44.4792900  23.0334339  33.0211029  45.4900093
  22.3044415  34.5135574  44.0084152  21.8993015  34.5605812  43.0844269
  22.7753773  35.6788483  44.7369652  23.6693192  35.3529205  45.2687073
  23.1922131  36.8144951  43.7622833  23.9679337  37.4792480  44.1423645
  23.5467834  36.3864937  42.8246269  21.9357872  37.7223587  43.3901215
  21.0754890  37.0606270  43.2896271  21.7845516  38.4842873  44.1547699
  22.1182575  38.3889847  42.0245399  22.3157387  39.5651970  41.9595261
  21.8995686  37.7100220  40.9282990  21.7588005  38.2214775  40.0688210
  21.5376587  36.7692680  40.9923439  21.8650913  36.1339226  45.8979797
  20.6869202  36.4089890  45.6226807  22.2226429  36.0223618  47.2037964
  23.2029228  35.8701591  47.3934898  21.3376102  36.3041954  48.3464890
  20.6960125  37.0992508  47.9665680  20.4676685  35.0486755  48.6181107
  20.0834141  34.6692772  47.6712685  21.2619305  33.8589706  49.1866417
  22.1365261  33.7188683  48.5513802  21.6815033  34.0728645  50.1696510
  20.6311207  32.9838715  49.3427887  19.4922314  35.3278046  49.4974632
  18.7532177  35.6292114  48.9639740  22.0177994  36.9686661  49.5497398
  23.1096764  36.6245613  49.9340668  21.2962093  37.8897514  50.1936874
  20.3687057  38.1632042  49.9020386  21.7059002  38.3727608  51.5752106
  22.7420940  38.7068939  51.5226555  20.8165054  39.5243187  51.9463959
  19.7959576  39.2608414  51.6686172  20.8112240  39.6352119  53.0307274
  21.1324463  40.9051208  51.3012962  20.1276321  41.6243973  51.1966705
  22.2701817  41.2063942  51.0386314  21.6352196  37.2733498  52.6417122
  22.1321983  37.4098434  53.7339859  20.9049988  36.1686745  52.3617439
  20.4715405  36.0942879  51.4525261  20.6019249  35.1638680  53.3695679
  20.1167088  35.7458420  54.1531334  19.5547905  34.1602516  52.8775253
  19.9775753  33.6677780  52.0018387  19.3200970  33.0052681  53.8721237
  20.2277851  32.4199677  54.0191689  19.0697842  33.3292427  54.8823166
  18.5114136  32.3386803  53.5724792  18.2261333  34.7843437  52.6117058
  18.4305573  35.6592102  51.9945068  17.6965199  34.0339012  52.0248108
  17.6547661  35.0195007  53.5096703  21.8600883  34.4342995  53.9081230
  22.4358692  33.6279411  53.1478004  22.2267952  34.3383369  55.1910477
  21.7357559  35.2096443  56.2496262  20.8035221  34.7497368  56.5775375
  21.5860577  36.2088432  55.8406181  22.8153820  35.2694244  57.3331070
  22.3278389  35.4329872  58.2941780  23.5255947  36.0883598  57.2189064
  23.3240147  33.8538780  57.2465973  22.5655689  33.2339821  57.7247047
  24.2470436  33.6512527  57.7897911  23.3397751  33.5577812  55.7115021
  24.2374477  34.0273285  55.3092422  23.1903572  32.0314255  55.5928268
  22.1111450  31.5110188  55.3619118  24.3673515  31.3656197  55.5712776
  25.2751656  31.8063183  55.6132469  24.4418240  29.9743614  55.0469704
  24.2586784  30.1029186  53.9801865  25.9119511  29.6305370  55.2521286
  26.4626808  30.2006207  54.5039291  26.2863102  30.0194588  56.1990738
  26.3107090  28.1237392  55.1171837  25.8382874  27.6580601  55.9820862
  26.0304642  27.6589146  54.1719322  27.8351994  27.9825115  55.2317085
  28.3773308  27.5736465  56.2122307  28.5425758  28.1736012  54.1706886
  29.5149460  27.9381008  54.3090401  28.1403236  28.5655918  53.3312645
  23.5481014  28.9682598  55.6889648  23.0316677  28.0815086  55.0493736
  23.3526249  29.1393700  57.0140190  23.8626003  29.8942928  57.4500427
  22.5398846  28.1188583  57.8227272  22.9144592  27.1183128  57.6066170
  22.8275433  28.2131348  59.3526421  22.0459251  27.5627193  59.7452431
  23.7490406  27.6853790  59.5984497  22.6961613  29.5894623  60.0800247
  23.2793007  30.5634632  59.6030617  22.1803265  29.7001762  61.2180710
  21.0381889  28.3193932  57.6174202  20.3052616  27.2941170  57.6104088
  20.5886269  29.5713387  57.3219566  21.2836628  30.3036842  57.3483467
  19.1913986  29.8247299  57.0089226  18.5590687  29.2640038  57.6972847
  18.8534966  31.2649651  57.3120193  19.5169449  31.9707890  56.8122673
  17.8401146  31.5872841  57.0727158  18.9841042  31.5947342  58.8534584
  18.2141075  31.1051693  59.4497223  19.9645290  31.2895775  59.2191772
  18.9478474  33.0569801  59.1507034  17.9828911  33.7925377  58.8334122
  19.9642563  33.6793594  59.6379089  20.8551006  33.2406960  59.8224945
  19.9713287  34.6813774  59.7644539  18.8308468  29.4436398  55.5303726
  17.6178360  29.4992714  55.2378998  19.7617016  29.0970249  54.6277885
  20.7321682  29.1598339  54.9004669  19.4740047  28.5922794  53.3209190
  18.6768436  29.1766376  52.8613968  20.6784630  28.6101341  52.3564186
  21.6174641  28.5272827  52.9036980  20.5593872  27.6792068  51.1740265
  21.3878384  28.0021076  50.5435448  20.7012081  26.6171551  51.3741074
  19.6122131  27.8072910  50.6500359  20.6985683  30.0447769  51.7415466
  20.0215111  30.1371040  50.8923302  20.2606354  30.7613602  52.4363976
  22.1052685  30.5391312  51.3840370  22.6955681  29.7134056  50.9867592
  21.9358463  31.3776226  50.7085190  22.6365967  31.0004387  52.2164993
  18.8981266  27.1348763  53.3382530  19.6069298  26.2126675  53.8161430
  17.7279682  26.8623466  52.7817307  17.3243752  27.5557461  52.1682091
  16.9052925  25.6680908  52.8276596  17.0674171  25.1097317  53.7496452
  15.4386272  26.1107826  52.8877563  15.0480433  26.4107571  51.9153595
  14.9146109  25.1864986  53.1310806  15.1896610  27.2480354  53.9342613
  15.7095251  28.1689091  53.6699982  14.1652203  27.6034851  53.8234634
  15.2722206  26.8502426  55.4191017  16.2943020  26.5359955  55.6305237
  15.1242285  27.7193203  56.0601196  14.3211107  25.7011089  55.6933594
  13.4040709  25.7732620  55.2763100  14.7726831  24.5133247  56.0477295
  16.0221329  24.0902042  56.1857681  16.1860561  23.2412777  56.7078362
  16.7835445  24.7537937  56.1845627  13.8573122  23.6173935  56.3061562
  13.9944248  22.7084846  56.7247086  12.9154816  23.8685741  56.0416374
  17.1845875  24.7069435  51.6830215  16.7439747  24.9269142  50.5650368
  17.8740578  23.5978031  51.9481468  17.9720192  23.3320217  52.9176140
  18.1707916  22.5287628  51.0116882  18.2137985  22.8624210  49.9749031
  19.5769081  21.9838371  51.4063606  19.4283562  21.5225449  52.3827019
  19.8960266  21.1955090  50.7245979  20.7113419  22.9754257  51.4832840
  21.3226166  23.5156097  50.3587494  22.1771793  24.4575634  50.8106270
  22.7899818  25.0088501  50.1127968  22.3138199  24.3080330  52.1751709
  22.8026867  24.9974365  52.7281952  21.3371868  23.4567451  52.6071930
  21.1037960  23.2300415  53.6370201  17.1036148  21.4632931  51.0801430
  16.9372387  20.9385433  52.2192650  16.3065052  21.2100716  50.0155373
  16.5982399  21.5807495  49.1224594  15.0350733  20.4783611  50.0703583
  14.7155724  20.4095879  51.1102066  13.8225489  21.3010197  49.5914345
  13.8691397  21.3575916  48.5038986  12.4819994  20.6322327  50.0333748
  12.5674582  20.4043217  51.0958481  11.6395769  21.1883488  49.6220818
  12.3755789  19.6931362  49.4903526  13.7358341  22.8111229  50.0909348
  13.5716124  22.8926258  51.1654015  14.6091938  23.3716526  49.7575417
  12.8523865  23.2408791  49.6187706  15.1221056  19.0882568  49.4208336
  15.6123648  18.9872913  48.2826309  14.5673971  18.0605717  50.0376244
  14.1667337  18.2322712  50.9487190  14.6716642  16.6525059  49.6619835
  14.9907351  16.6628799  48.6197815  15.6296701  15.8848753  50.6232033
  15.2722111  16.0593700  51.6380310  15.5353308  14.8379927  50.3346863
  17.1229210  16.3479519  50.4959183  17.5230675  17.5603294  51.0807266
  16.9498672  18.2444592  51.6888428  18.8530979  18.0767632  50.7935791
  18.9936771  19.0729179  51.1864204  19.7706947  17.3104153  50.0871277
  20.9887905  17.7819328  49.8354683  21.5435619  17.2319183  49.2775116
  19.4202309  16.0821514  49.5306854  20.1971931  15.5960617  48.9593277
  18.0892410  15.6069746  49.6888161  17.8550701  14.6195841  49.3191910
  13.2992287  16.0544777  49.6859512  12.6726198  15.9968510  50.7655945
  12.8072128  15.6048727  48.5207138  13.3040724  15.6709938  47.6438675
  11.4639492  14.9480486  48.4037018  10.9717131  15.1263866  49.3597336
  10.6046610  15.6488380  47.3013840  10.7483702  15.2889843  46.2825851
   9.5774603  15.3669281  47.5326576  10.5895596  17.2136745  47.3169556
  11.6326599  17.4931030  47.1687660   9.9135695  17.9731045  46.1122017
  10.3565636  17.6987495  45.1548195   8.8350677  17.8154221  46.1037483
  10.1854553  19.0280437  46.1479988  10.0595932  17.7062702  48.6381073
  10.1259413  18.7903824  48.7297249   9.0374422  17.5016251  48.9565849
  10.6380539  17.2569275  49.4453087  11.6380358  13.4358912  48.1968040
  12.7472162  12.9040232  47.8817482  10.5177794  12.7937918  48.1819153
   9.7559099  13.4450064  48.3067169  10.3489285  11.4091148  47.9156570
   9.3632078  11.1564465  48.3063164  10.5343714  11.0701666  46.4283638
  11.5801592  11.2221861  46.1613121  10.2195759  10.0429478  46.2444420
   9.8088102  11.8415537  45.3805466   9.9637203  12.9158020  45.4810143
  10.1190176  11.4807892  44.3998718   8.3265991  11.5514450  45.6616592
   7.6555343  12.0256853  46.5815048   7.7423778  10.8018312  44.8622551
  11.2696018  10.5374508  48.8345985  11.5589371  10.8584709  49.9994164
  11.7951450   9.4428625  48.2275200  11.4170961   9.2657394  47.3078423
  12.6646242   8.4367285  48.8073730  12.1864128   8.2371941  49.7663307
  12.9156027   7.2525163  47.8494148  13.1115494   7.4963489  46.8052635
  13.6887074   6.6078076  48.2674713  11.6837435   6.3832045  47.6905441
  11.4296932   5.9591341  48.6619987  10.8743505   6.9662333  47.2511597
  11.8608274   5.1742091  46.7458267  11.9183645   5.5872436  45.7387581
  12.6811237   4.4807806  46.9312248  10.5195398   4.4075804  46.8489876
  10.4303818   4.0625391  47.8790855   9.6153278   4.9481268  46.5691490
  10.4440489   3.2749338  45.8970528  11.1337547   2.5470312  46.0177307
   9.5523815   2.8160684  46.0173531  10.3930321   3.7360969  44.9999313
  13.9941511   9.1637716  49.1543274  14.6738338   8.7228575  50.0713081
  14.2871189  10.3841972  48.6351700  13.5328245  10.7995920  48.1073570
  15.5009069  11.1446190  48.8620872  16.2604084  10.3939962  49.0807686
  15.8358107  11.9657793  47.5983772  15.0530548  12.7052326  47.4292336
  16.7057190  12.5530033  47.8925362  16.0401173  11.4729090  46.6478844
  15.3986120  11.9628172  50.1681023  16.4577427  12.3622656  50.6651268
  14.2260809  12.0527315  50.7975349  13.3689432  11.8783703  50.2925453
  14.0587139  12.8090687  52.0618782  14.2407751  13.8789234  51.9600754
  12.5882044  12.7177629  52.5165672  12.0335016  12.8833771  51.5929985
  12.2609873  11.3668718  53.1036377  11.1832180  11.2640190  53.2298965
  12.6315975  10.5942612  52.4299736  12.7055931  11.1789131  54.0809288
  12.0493603  13.6765213  53.5235252  12.5979204  13.6630020  54.4653320
  12.0926533  14.6733742  53.0847664  11.0052204  13.4500303  53.7393265
  14.9715958  12.3931141  53.2733879  15.2825480  13.1973095  54.1646309
  15.5431585  11.1842623  53.2200928  15.4171696  10.5698547  52.4284286
  16.6071396  10.7017832  54.1440430  16.2225895  10.9645004  55.1295395
  16.7147312   9.1251154  53.9816666  17.4546013   8.7328835  54.6794128
  15.2889624   8.4862013  54.1952744  15.4152966   7.4042854  54.2353516
  14.9522152   8.8587399  55.1627045  14.5699205   8.7891836  53.4341698
  17.1447983   8.6628895  52.6132545  16.9886265   7.5852494  52.5642319
  16.6103573   9.1299343  51.7860031  18.2121964   8.8670416  52.5290909
  18.0098610  11.2641745  54.0327721  18.8205853  11.1580982  55.0163422
  18.3136978  12.0034447  52.9183998  17.6541920  12.0090494  52.1534691
  19.5555134  12.7503309  52.6616936  20.4781914  12.2904682  53.0156631
  19.7596378  12.7737274  51.1366463  18.9468212  13.3833752  50.7419853
  20.7155991  13.2818155  51.0097923  19.9305325  11.4522963  50.3127213
  19.1593781  10.7004013  50.4803009  19.9466915  11.7850065  48.8788071
  20.7428951  12.4959936  48.6582336  20.0178967  10.9010372  48.2450676
  19.0719261  12.2779341  48.4546547  21.2760582  10.7648926  50.5819435
  22.0911770  11.4264069  50.2885475  21.4816818  10.6185856  51.6423264
  21.3328400   9.7739725  50.1314316  19.6112728  14.1372461  53.2327614
  20.7317200  14.6743279  53.2312241  18.5516987  14.6848602  53.9012032
  17.6865196  14.1640215  53.9183083  18.3975563  16.1584396  54.1679535
  18.5879822  16.7442017  53.2686615  16.9902115  16.5280266  54.6607475
  16.9912815  17.6135120  54.7598267  16.1946259  16.2881374  53.9553413
  16.6273670  15.8995733  56.0089531  16.9639263  14.8631220  55.9845047
  17.1153316  16.3497486  56.8734360  15.1652679  16.0886765  56.3224258
  14.9058800  17.1433659  56.4143372  14.5936184  15.6327009  55.5140953
  14.7449856  15.4220676  57.5820503  14.4998016  16.0367928  58.3450050
  14.7940969  14.1203518  57.9063873  15.0699577  13.2197514  56.9681816
  15.0661373  13.4371977  55.9818726  15.1282787  12.2661972  57.2959518
  14.4560051  13.7217665  59.0647545  14.2719889  12.7484055  59.2617493
  14.1765547  14.3791409  59.7788010  19.4506378  16.7434826  55.1459236
  19.5590401  16.1929550  56.2518921  20.1473007  17.8875656  54.8953438
  20.2773037  18.4667225  53.5926399  19.3662243  18.9786110  53.2827988
  20.4737854  17.6692657  52.8760071  21.5253582  19.3911533  53.7005234
  21.5262299  20.1271725  52.8965492  22.3497715  18.7039223  53.5103645
  21.5110226  19.8631191  55.1758041  20.9734058  20.7903748  55.3739624
  22.5362072  20.1239910  55.4385643  20.9263878  18.6155930  55.9273148
  21.7735252  17.9927731  56.2146416  20.2580853  18.9797935  57.2384033
  20.9781742  18.9393749  58.2541008  18.9167500  19.1494160  57.2941818
  18.5285835  19.2598515  56.3683128  18.1317291  19.3193932  58.5242538
  18.4191647  20.2159348  59.0735245  16.6593189  19.5390491  58.1750565
  16.2902946  18.7261314  57.5496864  16.0228481  19.5311050  59.0598946
  16.4718094  20.9177876  57.4214821  17.3030891  21.8540688  57.4772034
  15.4276123  21.0884151  56.7568016  18.2557564  18.1695309  59.5609970
  18.1765156  18.4393921  60.7426949  18.4843407  16.9772053  59.0585136
  18.6929188  16.8549538  58.0778770  18.7703800  15.8742132  59.9576416
  18.1683483  15.9451704  60.8635216  18.3242397  14.5319099  59.2450104
  17.2441998  14.4647226  59.1142464  18.8068810  14.5952291  58.2697411
  18.7698650  13.2610445  59.9588242  19.7966957  13.3931236  60.2998199
  17.8010807  13.0620918  61.0954704  17.9814892  12.0787687  61.5297775
  17.9270954  13.8456125  61.8426743  16.7536049  13.0715857  60.7941284
  18.7627316  12.0904102  58.9537354  18.7333603  11.0522871  59.2846947
  17.8559418  12.0906792  58.3488922  19.5897446  12.0971022  58.2437248
  20.1986847  15.9854231  60.6797447  20.3161602  15.5773420  61.8552437
  21.2531891  16.5861740  59.9966850  21.1726818  17.0886078  59.1242294
  22.5868530  16.7965183  60.5720634  22.9114761  15.8355150  60.9710541
  23.6170712  17.1623783  59.4737701  23.6597290  16.3876133  58.7082520
  23.3363686  18.0278625  58.8735619  24.9315128  17.3531227  60.0674057
  25.4725914  17.8090725  59.4186020  22.5398579  17.7492332  61.7259521
  23.0754814  17.4785538  62.7696304  21.7819004  18.8736877  61.5539093
  21.4705715  19.1408920  60.6309929  21.4228020  19.7694359  62.6452103
  22.3981686  20.1591740  62.9365311  20.4264202  20.7758923  61.9644699
  21.0729885  21.4971333  61.4646072  19.8329372  20.2276535  61.2328186
  19.5021381  21.5477276  62.9694023  18.9513397  20.8336830  63.5816650
  20.2968998  22.4745674  63.9012032  19.6104145  23.1676693  64.3874664
  20.9374828  21.9375401  64.6007462  21.0218563  23.0938225  63.3729439
  18.4485950  22.3357391  62.1895027  17.9329052  21.7868004  61.4015770
  17.6504707  22.6013985  62.8827019  18.8156338  23.3039932  61.8491096
  20.8164463  19.0653496  63.7915077  21.2938652  19.1968575  64.9165726
  20.0061684  18.0639782  63.5649071  19.7424335  17.9993649  62.5920906
  19.1151352  17.3222027  64.4982224  18.7511444  18.0143929  65.2574921
  17.9150677  16.6567593  63.7564240  18.2250423  15.9273205  63.0081367
  16.9473534  15.9037733  64.6354141  16.1935635  15.3302975  64.0959473
  17.5355358  15.2603464  65.2897415  16.4410763  16.5401478  65.3612289
  17.2135468  17.6697540  63.1523552  17.5737324  17.8406448  62.2790489
  19.9026947  16.3230934  65.2943039  19.6580410  16.2378788  66.4915237
  20.8209457  15.5166597  64.7389450  20.8452244  15.6160526  63.7341423
  21.7537613  14.6664476  65.4602814  21.1872768  14.2308979  66.2833786
  22.2391529  13.4885769  64.6062164  22.8846035  12.8366556  65.1948547
  21.4148655  12.8765612  64.2400436  23.0508957  13.9660740  63.3606377
  22.6541576  13.3392763  62.5620003  22.7262726  15.0000010  63.2435226
  24.6005325  13.9254532  63.5947075  24.8641815  14.3719864  64.5534515
  25.0397835  12.9445200  63.7761726  25.3076000  14.7042322  62.5043678
  25.1503143  14.2294455  61.5358963  24.9148540  15.7206602  62.4773521
  26.7167835  14.9785566  62.8247261  27.2013874  15.3436136  62.0172577
  26.8761406  15.5798416  63.6204414  27.2223492  14.1218481  62.9995232
  22.7998505  15.4768076  66.2229691  23.3019276  14.9986506  67.2605820
  23.1322918  16.7337570  65.7641983  22.7070827  17.1063519  64.9272614
  24.0081234  17.6603107  66.5414429  24.7307682  17.0062141  67.0293350
  24.7244377  18.5231018  65.5271301  24.1064320  19.0445576  64.7962036
  25.1510811  19.3909149  66.0300980  25.8033924  17.6827049  64.8152313
  26.0608063  16.5015182  64.9906616  26.4675579  18.4200001  64.0077209
  26.1660557  19.3601665  63.7949181  27.3129215  18.1479816  63.5266113
  23.3134041  18.4729958  67.6169128  23.9954319  19.2420826  68.3531647
  22.0190868  18.2265835  67.8602448  21.6253643  17.5953674  67.1771240
  21.1287060  18.9870148  68.8028412  21.7898808  19.3555889  69.5871277
  20.4761486  20.1374435  68.1593094  19.8558464  20.6099854  68.9209061
  21.3544197  21.2822590  67.6116562  20.7354298  22.1066322  67.2575836
  21.8653393  21.6646671  68.4953003  21.9259853  20.9117680  66.7606888
  19.6388969  19.7293720  67.0392685  20.2135220  19.6048641  66.2803879
  20.0648956  18.1593189  69.5412445  19.6621780  18.7784462  70.5565796
  19.5693588  17.0277271  69.0825500  19.9945583  16.6740398  68.2374420
  18.1906433  16.5155888  69.3979797  17.9638081  16.9009781  70.3920212
  17.0814724  17.0513039  68.4177475  17.5232105  17.4794350  67.5179291
  16.3386879  16.2919960  68.1731491  16.3027878  18.1761036  69.0269318
  16.9118710  18.7531052  69.7227783  15.8989935  18.7650719  68.2034225
  15.0776749  17.7657528  69.8624039  13.9380293  17.6674347  69.3824387
  15.1987705  17.7070847  71.1224289  18.1109333  15.0028296  69.6059265
  17.4017506  14.5332003  70.5295181  18.9352322  14.2152939  68.8397598
  19.5344448  14.5978107  68.1223145  19.1004333  12.7041521  69.0161285
  18.1420345  12.3074999  69.3511581  19.4323273  12.1115446  67.6062698
  20.3903790  12.5784597  67.3777466  19.7548351  11.0790157  67.7403564
  18.3056545  12.3172531  66.5440292  17.8662109  13.3093481  66.6476746
  18.8890915  12.1235952  65.0924454  19.7417297  11.4446650  65.0798416
  18.0681324  11.7609892  64.4738693  19.2705135  13.0971117  64.7844086
  17.2502136  11.2850456  66.8527451  17.0071297  11.3527308  67.9131317
  16.3960915  11.4773607  66.2034454  17.6090603  10.2830334  66.6175842
  20.0175209  12.2906961  70.1087112  19.5078487  11.8155489  71.1242142
  21.2797947  12.4675798  69.9923096  22.3141003  18.6388454  25.7341213
  21.8203106  17.6765938  25.6167698  23.2397137  18.7304249  25.1698666
  21.9117737  19.6174507  26.5256996  22.6057224  20.9425488  26.6665268
  22.0687008  21.8496246  27.1935234  23.7751045  21.0272274  26.4433823
  20.7055035  19.5146008  27.2338581  19.4199066  19.8025665  26.6408234
  18.6268330  19.8814850  27.3944778  19.1252613  18.6473866  25.7546482
  19.4944725  17.6458607  25.9647827  18.2611942  18.7509632  24.6704197
  17.6447430  20.0662231  24.3613720  16.8100033  20.1549625  23.6687469
  18.1994305  21.2023106  24.8690586  17.6031322  22.1051693  24.7559071
  19.3470974  21.1547527  25.9577866  20.3105793  21.3401775  25.4673615
  19.1671448  22.2504826  26.8313160  19.7747784  21.9009857  27.5061207
  17.9443741  17.6299477  23.7537632  18.4411736  16.5045586  23.8531551
  17.1227932  17.7936726  22.8936501  44.6117363  17.9187870  34.5479202
  44.9359818  17.3642883  33.6698952  45.3226624  18.7061234  34.7891884
  43.5319977  17.5831280  35.2163391  43.0818710  18.2546844  36.5138702
  43.3910065  19.3390064  36.9871597  42.3381882  17.6089439  37.2901993
  42.7611008  16.4979954  34.8113213  41.7235985  16.7687626  33.8876762
  41.1459656  15.8378162  33.8341331  42.4253693  16.9856682  32.5572510
  42.6885490  16.0990849  31.9843330  42.7184906  18.1987743  32.0842628
  42.1702957  19.4302349  32.6894569  42.6620827  20.3408031  32.3526917
  41.3661346  19.3381653  33.7832909  41.0489120  20.2231026  34.3308220
  40.8540955  18.0053692  34.2530327  40.6974068  18.0254669  35.3384972
  39.5546379  17.6813736  33.8060379  39.1600342  17.1074848  34.4855003
  43.7197189  18.2790565  30.9870186  44.4193993  17.2979317  30.7195797
  43.9698715  19.3665142  30.4418621  24.0435486  13.1764879  50.8290215
  23.5156059  13.9353943  51.4024887  24.6108475  12.4275570  51.3774757
  24.0210915  13.3001785  49.4690018  23.1277390  14.3425159  48.8672447
  22.6178417  15.3132458  49.4920883  22.9231892  14.2293530  47.7107773
  24.6113873  12.4144621  48.5974083  25.8373985  11.6578932  48.8233528
  26.0929680  11.1576347  47.8812218  25.5025024  10.4443207  49.6246834
  24.5167274  10.0172129  49.4533501  26.4026737   9.8108692  50.4809074
  27.7325497  10.4577894  50.6784935  28.4270210   9.8497305  51.2550087
  28.1224480  11.6405001  50.1454468  29.1221733  12.0229874  50.3398323
  27.1043282  12.4554243  49.4065170  26.7355194  13.1423674  50.1780624
  27.7160206  13.2499399  48.4063263  27.1303806  14.0172482  48.2838783
  25.9651814   8.5690861  51.2176094  26.7553024   8.0799408  51.9807625
  24.8430843   8.1335678  51.0025330  10.7085228  51.0100060  71.6079407
   5.1102500  51.9285278  16.2156754  34.6723785  48.2607040  13.9843473
  71.9748764  68.0461807   1.4973429  40.4789810   9.2081537  71.4885483
   2.5063217  27.9938087  49.0378990  26.7203712  15.7622786  70.0175171
  51.2425461  26.6298389  53.0232315   2.7638488  60.3287277  35.3271828
  12.4312925   4.1423836   8.0074692  12.6983080   4.1422858   8.9266729
  11.8781309   4.9185190   7.9188251  24.4366455  46.3836441  61.8722305
  25.0879383  45.7784195  61.5176201  24.5424232  46.3201180  62.8214455
  62.7804489  59.2415237  57.1912918  63.4997139  59.7584038  56.8283463
  62.1212311  59.8896294  57.4395370  42.2597961   2.0329399   8.5053253
  41.7780838   2.6775315   7.9869747  43.1731071   2.1492147   8.2434540
  55.4818611   9.4326572  32.0497208  54.7458992   9.5572987  32.6489372
  56.0025482   8.7370739  32.4513168  16.9652710  64.1827087  45.4193344
  17.7578049  64.3857269  44.9224396  16.2932301  64.7492065  45.0403023
  15.2119379  69.5188828  58.4380112  15.2628651  69.6317368  57.4888535
  15.0876188  70.4048996  58.7782288  74.7610626  31.5420265  55.1229553
  74.8728561  32.3890686  55.5545311  75.4669495  30.9992542  55.4741783
  33.5398750  51.3185081  35.8517532  33.0056229  50.5242805  35.8550873
  33.5191231  51.6173058  34.9426193  27.5387421  12.4842358   9.4630003
  28.4788170  12.6631145   9.4852037  27.2118244  13.0111666   8.7338228
  12.8470163  36.8741608  57.1343765  13.7667522  37.1143036  57.0219078
  12.7052422  36.9055862  58.0804977  38.9069633  61.9201317  82.6709061
  38.1664314  61.8481483  82.0686951  39.3602028  62.7181320  82.3988724
  67.9636612  52.0680618  63.4909554  67.8024750  51.2097969  63.0989914
  67.1810608  52.2435455  64.0134354  70.0268326  11.1554642  42.3490524
  69.7500000  10.7709341  43.1807556  70.9826736  11.1089182  42.3700333
  60.2446327   9.2899942  27.0669861  60.9851456   9.7288198  27.4856834
  59.4793625   9.7927485  27.3459702  17.9599113   3.1957443  87.8527985
  18.6807194   3.8230174  87.7962570  17.7400227   3.1668653  88.7839508
  47.8745384  34.0807877  87.7199097  47.9539795  34.0596771  88.6735764
  48.3944855  34.8388329  87.4529800  76.5780563  49.9980659  68.5085373
  76.6071472  49.0473175  68.4014816  75.6446381  50.2100372  68.5138931
  79.3603821  22.4252243  67.7990036  79.5205002  23.3279209  68.0741959
  80.0872116  22.2217922  67.2103119  71.6353836  36.8764381  34.1863594
  72.0941162  36.9496803  35.0232811  70.7871094  36.4939919  34.4108467
  79.3334274  -0.2143685  42.6980133  79.9542465  -0.0076237  43.3966331
  79.2744751   0.5909114  42.1839333   6.3451571  69.4492645  29.3167839
   5.9432411  69.5472260  30.1799755   5.6340299  69.6237488  28.7002735
   2.9317181  48.8207130  86.0816574   2.9159358  49.0790176  85.1601028
   2.0616212  48.4558716  86.2430725  16.5615005  56.3094330  19.2804432
  17.0024433  55.7901535  19.9528656  15.6286049  56.1792793  19.4507351
  44.0250015  32.8033485  72.2694550  43.1905365  33.2605133  72.3738403
  43.8042870  32.0106544  71.7804260  16.4851933  49.1054077  36.7599983
  17.0482063  49.8105507  36.4405975  16.8060112  48.3218727  36.3134727
  37.2680893  43.0846786   8.1439619  37.3378067  43.5688248   7.3211780
  37.9488869  43.4610176   8.7017365   0.2782954  32.4948044  25.9991455
  -0.5668827  32.1874771  26.3269501   0.9052982  32.2374153  26.6750526
  63.7844925   3.9098005  81.7224731  63.7201462   4.8641777  81.6870422
  62.9382439   3.6253443  82.0677032  48.2051353  62.3506126  83.0475769
  47.7949638  61.8967133  83.7837601  47.4775887  62.7738495  82.5917511
  64.6230621   7.2494569  70.6962585  63.8315887   7.7068834  70.9800873
  64.7685242   6.5831733  71.3679276  51.6158905   9.6042500  38.0389824
  50.8101120  10.0278749  38.3347702  51.3173447   8.8672915  37.5060730
  35.6168480  44.7715530  41.1726074  35.4087143  45.6767082  41.4041481
  36.0050621  44.8308334  40.2996750  47.1252251  70.7643585  53.4897194
  47.5462799  70.5720367  52.6518898  46.3389473  70.2184753  53.4935150
  83.6338272   5.0748010  11.5183439  84.3332291   5.6368217  11.1848688
  83.4765778   5.3905540  12.4081774   4.4449410  25.6487961  43.5544624
   4.5812402  25.0607433  42.8115959   4.3639131  26.5174370  43.1605949
  36.8924637  33.2024193  75.9029007  37.0286713  32.8661308  76.7886734
  37.7328300  33.0694046  75.4643555  70.9467850  20.8874359  64.7655029
  70.9488144  21.6983891  65.2740097  70.0904236  20.8749104  64.3380432
   0.5962135  34.8585587  11.9303141   0.6288830  35.2864342  12.7859344
   1.2743639  35.2976112  11.4169149  46.3563118  17.5384426   4.7411413
  47.1783791  17.5089588   4.2516785  46.5843010  17.9658966   5.5666943
  63.8605843  31.6362972  72.4471283  63.8812981  30.8080788  72.9265671
  64.5146790  31.5296574  71.7564621  27.3964310  54.5114441  46.9709549
  27.8563175  54.3799171  46.1418343  26.5899811  54.0037804  46.8806877
  41.9830780  23.8554096  79.0222015  41.2543678  23.2422581  78.9259644
  41.6299553  24.5646896  79.5592880  76.8008881   3.0043726   7.6799726
  77.3472214   3.7805755   7.5564399  75.9636002   3.3479428   7.9916387
  45.3453217  43.6604118   9.3571243  46.2046051  43.6974907   8.9370232
  45.0746078  44.5756454   9.4299097  11.7806396   6.3236928  56.1475716
  12.6732798   5.9838452  56.2102509  11.2846088   5.8134952  56.7877960
   9.3340502  16.7785511   1.4626607   8.4340162  17.0165215   1.2400832
   9.7496681  16.5983887   0.6194322  32.7557564  10.8894777  70.3063354
  32.7832260  11.2858400  69.4354858  32.1369972  10.1642790  70.2200089
  49.6894379  64.8390808  46.4538689  49.9111938  64.2324371  45.7474442
  50.1239395  65.6570740  46.2123489  83.9214554   0.3802287  53.6042023
  84.8347778   0.0938061  53.5986404  83.9127350   1.1635346  53.0541229
  57.3907509  22.5313034  36.1004524  56.4635620  22.7293491  35.9688187
  57.5794220  22.8448601  36.9849396  45.2626305  58.0730095  54.8101883
  44.9747200  58.3902664  53.9542160  45.9338264  58.6981316  55.0839615
  27.5222397  11.0361776  76.4685211  27.1579113  11.1438065  75.5899353
  26.7591915  10.8923712  77.0282669  52.0517464  67.0454254  42.5377769
  52.0994339  66.3121872  41.9243317  51.6505356  67.7535248  42.0339317
  31.3117313  11.4596405   3.4636188  31.6070747  11.3593836   2.5586586
  31.4767189  12.3799076   3.6688497  30.9813232  64.1898270  66.8673172
  31.5958672  63.5946121  67.2966080  31.0914688  64.0146790  65.9327469
  36.8057480  63.4919014  65.3078842  35.8935776  63.6963539  65.1020279
  36.7547112  62.8926048  66.0525131  44.7947807   4.0941133  70.2137833
  45.3565102   4.4833803  70.8839798  43.9380989   4.0180097  70.6339417
  18.6147518  32.1781693  82.0550308  18.6901035  32.1004906  81.1039658
  17.9004307  31.5850983  82.2879333  58.1341515   9.9699774  71.4153748
  57.4573250  10.3040276  70.8266983  58.8408852   9.6902685  70.8335495
  25.9834423  65.7847290   2.2911687  25.0502014  65.8041077   2.0792329
  26.4229851  65.8481674   1.4432243  71.2721481  37.4237709  61.6980209
  70.7366104  38.0578346  62.1748848  72.1060181  37.8722343  61.5574188
  49.3922005  66.0196609  32.8541145  49.8022194  65.3527145  33.4048386
  50.1149063  66.5882645  32.5883713  44.0432930  33.6244469   4.5400219
  43.7224464  33.2127953   5.3424129  44.6484222  34.3011894   4.8434582
   5.9115133  36.4134407  83.8576431   5.6143861  37.3151512  83.9795609
   6.4269648  36.4380455  83.0514526  84.7186203  10.1623259  32.6618347
  84.1282654   9.4140663  32.5734406  84.4023132  10.6267395  33.4367523
  85.3227615  61.1283836  89.1300964  84.7501068  61.5554504  89.7671967
  85.5566025  61.8232231  88.5146637  17.2980328  55.5490646   7.9383965
  16.5941429  55.7157211   7.3115034  16.8462048  55.3460693   8.7574663
  15.4969587  35.6757507  75.2132416  15.6004648  35.3608170  74.3152771
  16.0093517  35.0642014  75.7421036  42.2233047  69.9491730  73.8244095
  41.4514389  70.0326233  74.3843155  42.7671852  69.2944412  74.2623138
  82.8248672  32.3150940  80.5862198  83.2691727  32.8553314  81.2396469
  82.3276138  32.9391518  80.0575180  50.6416740  71.0597763  35.3486977
  51.2416420  71.0868073  36.0940437  50.9565125  71.7480621  34.7627182
   3.1936872  51.2884026  58.7324944   2.9142351  51.9827499  58.1358185
   4.0382719  51.5875473  59.0692749  61.3009453  13.6152525  27.2703476
  60.3714066  13.3954086  27.2082443  61.3370972  14.3237019  27.9130173
  27.7063446  64.6067810   9.4748402  27.4798851  63.9751816  10.1575031
  28.6595249  64.6800156   9.5229635  66.4396515  56.6186867  69.4439697
  66.2775421  56.3482323  68.5401993  66.4420624  57.5753136  69.4109344
   2.8908172  69.0305252   9.7889442   2.7709823  69.2354736  10.7162352
   2.6563556  68.1053696   9.7158842  28.0559807  57.8759346  13.1176023
  28.8613510  58.2586327  13.4656725  27.8162403  57.2024498  13.7541361
  49.8211136  21.2974873  66.6652832  48.9685173  21.5766373  66.9990311
  50.3104935  22.1116600  66.5475540  67.2257004  14.9935389  82.0160980
  66.5755920  14.7782116  82.6848450  66.7980499  15.6531086  81.4699173
  13.6984854   8.1326027  82.3083496  14.1559601   7.5146322  82.8784943
  14.3604546   8.4089069  81.6745682  60.5961990  29.2535477  53.4650536
  60.3619804  29.2263832  52.5373497  60.4546204  30.1648960  53.7212372
  83.8360138   1.2477496  47.4513931  84.4482803   1.5637392  46.7869263
  83.9023514   0.2940278  47.4040031  14.3409834  47.8082390  30.8390961
  14.4694901  46.9665413  31.2764301  13.9719906  47.5808449  29.9856510
  52.0281105  59.0417328  71.7131577  51.6158714  59.7034340  72.2685318
  51.8555107  58.2128868  72.1597672  18.2989559  44.7705879  74.6250229
  18.0201111  44.1617432  75.3089676  18.2960033  45.6275406  75.0514679
  30.1598167  61.0919266  54.4096336  30.0356827  62.0055733  54.1525917
  30.4561024  60.6564026  53.6104088   0.8257759   4.6601515  57.0022469
   0.7329456   5.6119738  57.0428467   0.1137518   4.3742557  56.4299545
  13.9615698  58.6733856  81.6239471  13.9876270  57.7814865  81.2774353
  14.8448429  58.8257256  81.9598846  66.1362228   4.3423829  23.0427876
  66.3078003   5.1613545  23.5076294  65.5949097   3.8333623  23.6462021
   9.4162254   5.3012142   6.4191089   9.5234728   6.2164397   6.6781292
   9.9793377   5.2019868   5.6514568  69.9416199  13.0139399  21.1689243
  70.1492538  13.7099075  20.5454254  70.0945816  12.2035646  20.6829948
  84.1652527  41.2970276  26.3869381  84.5258026  42.1811676  26.3196259
  83.9742584  41.1865196  27.3183575  56.0125427  18.2808361  89.0783539
  55.9635582  17.3735580  89.3794861  56.5942955  18.2500343  88.3188553
  22.9510326  45.6471138  13.6437874  22.9519272  46.6040573  13.6659927
  23.8724213  45.4090691  13.5407820  17.1551342  38.8153496   3.1430302
  16.3948784  38.8484688   3.7236731  16.9225006  38.1646271   2.4807072
  27.2970104  56.7702522  10.5996990  26.5293007  57.3293457  10.4802475
  27.6961746  57.0818443  11.4119854   6.9254479  60.5108948  77.2340927
   7.7532897  60.1427574  77.5429382   7.0882664  60.7301292  76.3166733
  19.9749851  15.8724775  21.6577835  20.7775536  15.7587910  22.1668930
  19.3597622  16.2789936  22.2680931  49.5729370  29.5767136  82.0495529
  50.1417122  28.8081608  82.0042191  49.8830605  30.1460590  81.3453445
  14.6859417  60.5021744  88.1670456  14.5101080  60.6066666  89.1021347
  15.6375971  60.4162788  88.1104126  16.5377312  54.9533958  42.1092873
  16.6953716  54.5592537  41.2513618  17.4116917  55.0829887  42.4775658
  27.3378468  41.9476204  51.9173050  26.7208176  42.6571808  52.0962715
  28.1489754  42.2219658  52.3451347  64.7952499  54.7593765  70.3825912
  65.5178757  55.3627052  70.2092896  64.8303909  54.6086273  71.3271942
  42.2177086  59.9571533  80.4102020  42.6482086  59.1037827  80.3586578
  41.3080292  59.7537575  80.6278000  40.8410378  47.0943222  23.1695690
  40.7330246  46.8271141  22.2567902  41.7831841  47.2308922  23.2692699
  77.0680389  42.8890877  84.5373535  76.6005020  42.7897491  85.3666763
  76.4190445  43.2600174  83.9394760  53.7538452   1.3583019  28.6198883
  53.8410454   2.1267025  29.1839714  53.0725937   1.5983399  27.9917870
  62.8661079  58.9901810  26.5436363  63.4622307  58.4721718  27.0844994
  62.7935867  59.8275452  27.0016670  23.0908375  31.2583790   8.6803036
  22.4185238  31.6613388   8.1308947  22.6015263  30.8338127   9.3849659
  82.3731766  64.6733551  84.3860474  82.2015152  65.6049500  84.5234909
  83.2894669  64.6365814  84.1116562  53.5258255   5.5482860  80.3573151
  53.6652222   6.1742630  81.0679169  54.3929443   5.1791353  80.1897736
   7.6872959  50.9837456  28.7767811   7.9314027  50.0642052  28.8820877
   6.8195643  51.0483894  29.1756477   8.9514513  21.5579872   7.6517696
   8.1412268  21.1705990   7.9829764   8.8094864  21.6404686   6.7087564
  22.4138641  42.1092529  61.2038765  22.5304718  41.2119560  60.8916359
  21.4658794  42.2127724  61.2865982  59.0277100  65.6421280  81.8629990
  58.9632950  64.9446487  81.2106171  58.3965836  65.3964310  82.5394211
  76.2056808  10.9704542  84.7732315  75.4097061  10.7074423  84.3111877
  75.9001846  11.5687180  85.4551315  65.8431396  10.2298088  63.7108192
  66.0124512   9.5487633  63.0598640  66.4741440  10.0557661  64.4092255
  42.0197144   6.0150914  12.1933813  41.2832527   6.3944373  12.6729136
  41.9892960   6.4370704  11.3347540  79.7829437  54.0365982  32.6603088
  79.5569687  53.2243881  33.1136131  80.7030411  53.9285088  32.4195480
   5.6821752   9.7048883  55.6969261   5.1318674   9.4791765  54.9469604
   5.6829162  10.6619349  55.7140427  75.3843842  67.4093781  28.1067429
  74.6108704  67.9726639  28.1316051  76.1230240  68.0132751  28.1839409
  75.3539352  69.8483810  44.8093643  75.8437347  69.9121017  43.9894485
  75.9411850  70.2183075  45.4685440  27.7099915  65.1076660  56.2873116
  28.0503750  65.8469086  55.7834244  28.4909458  64.6447830  56.5907631
  21.2865658  39.6614685  23.0801067  22.0991802  40.1037064  22.8345222
  20.7089520  40.3666382  23.3722172  79.1882095  28.7992306  67.2991638
  79.8008804  29.3066673  66.7668304  79.5664139  28.8131275  68.1783676
  12.3975048  46.3179054  76.9940491  11.6365633  46.8710060  76.8171844
  12.5567179  46.4224091  77.9321136  55.3795052  57.1967964  51.4103279
  55.2682991  57.3935699  52.3404617  55.0003967  57.9509735  50.9589691
  11.7423248  67.4064865  17.1997814  11.7434282  66.4885559  16.9284420
  10.8739061  67.7271576  16.9563618  40.9203148  26.7142658  78.8339233
  40.2138329  26.5113182  79.4470444  41.2645416  27.5551586  79.1349792
  78.1487732  16.6799126  66.3068924  77.5166702  17.2769833  66.7071152
  78.2011414  15.9432173  66.9158020  64.8643570  36.2889175  41.3635788
  64.1601334  35.8989067  41.8814545  64.8349152  35.8214569  40.5288086
  58.5386467  56.1169586  79.0354156  57.9220276  56.8325653  78.8807678
  59.0176239  56.3792038  79.8215714   8.9811144  14.1496725  25.0691528
   8.4794827  13.9856319  25.8677082   9.7971048  13.6654081  25.1951656
  64.0669708  33.8920860  30.8200092  64.0898972  34.6467400  30.2316208
  63.5941696  33.2199554  30.3291664  12.9122610  16.8357677  21.4050827
  12.5498524  16.1805153  22.0013504  13.8376474  16.6035500  21.3278446
  72.5843811  44.5872040  36.4136124  72.1563721  44.5090904  35.5610046
  73.5177765  44.4954948  36.2223473  30.5313396  58.2189636  25.0621624
  30.2158203  57.3638306  24.7698879  31.0135612  58.0337105  25.8680000
  32.9405251  66.2301483  26.2632961  32.1403008  66.4430771  25.7831573
  33.2487144  67.0714264  26.6002121  63.2653122  42.0534859  85.2439194
  62.6495895  42.4068031  85.8860168  64.0863724  42.5122490  85.4217682
  70.5440140  10.8796062  82.2179108  70.9332428  11.7533140  82.1809235
  70.4877396  10.6818514  83.1527634  44.2462311  53.4159851   7.9544272
  43.8685036  52.5429840   8.0612764  43.4907379  53.9900322   7.8281946
  78.1115036  56.9520416  69.1154556  79.0138168  56.9972496  69.4317169
  78.1381454  57.3700867  68.2547836  80.0402832  18.9708519  29.0838718
  80.2960205  18.0557652  28.9679203  80.6425323  19.4606571  28.5238552
  19.1070442  47.9257317  48.4297218  18.1822033  47.9557991  48.1847801
  19.2178326  47.0691223  48.8422432  65.8356705   5.9554076  28.6850681
  65.1208420   5.8671932  29.3155270  66.6260910   5.9965448  29.2233753
  73.6142502  68.6407623  40.5537834  73.5646057  68.4494095  41.4903450
  73.6166611  67.7808075  40.1334229  60.4464378  52.6719818  57.9533463
  60.9767914  53.3777275  57.5833702  60.1159706  52.1960487  57.1914330
  13.5967617  47.1061745  73.7888489  14.2837515  47.5073471  73.2565536
  13.4207859  46.2682419  73.3609085  34.5550957  31.4003830  84.3760071
  34.1662521  31.5349789  83.5117645  35.4715004  31.1903286  84.1962509
  40.5534821  40.3413086  23.3783894  40.9941483  39.5261841  23.6184330
  40.2761230  40.2057991  22.4723320  27.8430901  71.0801086   3.1301103
  28.6700172  70.7112961   2.8196161  27.7684536  70.7735596   4.0338206
  67.8405991  18.7342911  22.5287609  67.6666412  19.2581005  21.7467155
  67.1745453  19.0134029  23.1570187  32.5268784  64.5631409  36.6574631
  31.5841007  64.5870438  36.8212662  32.6075897  64.6585922  35.7084618
  55.7157249  34.8257332  37.4257393  55.5001869  35.1657524  38.2941628
  55.0456924  34.1639252  37.2545624  77.3004074  42.2908020  25.0082054
  76.3635864  42.3586578  24.8238049  77.3679810  42.4170799  25.9546299
  42.6312752  62.2689514  79.0542145  42.3665619  61.3494568  79.0279541
  42.6964989  62.4728661  79.9871597   8.5532541  21.1535511  65.4819107
   9.3912687  20.8249073  65.8074188   7.9663639  20.3986912  65.5263977
  86.7435226   0.9805429  20.8692970  86.9435501   0.5209661  20.0538139
  86.8671570   1.9061610  20.6591110  34.4203606  66.6100540  21.2047138
  34.8734665  67.0051880  20.4598694  34.9055290  66.9171524  21.9705658
  55.4526443   5.9899621  29.5131721  54.9669609   6.3876157  30.2358170
  55.2852554   6.5653844  28.7667789   6.4169006  43.8485527  25.0521431
   6.6672482  44.2161751  24.2045517   6.0503659  44.5889854  25.5355110
  72.4840546  58.7123375  32.2935715  71.7220917  58.2262688  31.9783173
  72.3675079  58.7510033  33.2428627  67.4591980  48.9497604  25.2714062
  68.0226593  49.1806946  24.5328846  67.8088379  49.4537964  26.0062084
  73.6371078  20.6499443  75.3260345  74.4761581  20.6127949  75.7852097
  73.8573837  20.9661102  74.4498215   1.6851937  61.5263329  86.8043976
   1.9233730  62.3654442  86.4101868   0.7372289  61.4665642  86.6859818
  57.1999359  19.0302029  16.7102222  56.3200340  19.1621704  17.0631981
  57.3817368  18.1025562  16.8607349  85.5724030  70.6771774  13.8682737
  85.1567764  70.3692780  14.6736851  86.4961624  70.4494019  13.9732494
  26.3424129  45.5346680  40.2113152  25.7774696  44.8339005  40.5368805
  26.2298260  46.2456856  40.8421936  67.5854492   3.6454856  33.7913399
  68.5375900   3.6983109  33.8743057  67.2857056   3.3552277  34.6528130
  72.7165222   5.7211685  38.1797829  73.4075089   5.0621424  38.2464523
  73.1137695   6.4351096  37.6810684  38.5785103  31.1957474  80.6864243
  39.5310326  31.1671982  80.7765198  38.3304825  30.2949066  80.4785919
  26.1127491  37.0891190  15.9174433  25.5208950  37.0752983  15.1652813
  26.4483681  37.9852257  15.9416924  85.6894226  61.7602501  19.6930218
  84.9750137  62.3894157  19.7930145  86.0697327  61.6885643  20.5684967
  64.9420624   7.9300466  33.4038811  64.2498856   7.3293242  33.1277351
  65.3300095   7.5114398  34.1723213  56.9022675  25.2813244  24.1469917
  57.4516373  25.2087917  23.3665028  56.5379257  26.1653328  24.1021252
  55.5101471  60.8010178  56.3472176  54.8425369  60.5319481  55.7162399
  56.2000923  61.1942902  55.8128548   0.4047418  16.2224331  55.7935143
  -0.1350012  16.2072086  56.5838776   0.4681230  17.1496906  55.5645905
  61.1314163  20.6861572  56.5030670  61.7691841  20.2878914  55.9107285
  60.6713943  21.3286228  55.9628372  22.8340969  10.3718758   2.7439713
  22.5394688   9.4981623   2.4869664  23.1796837  10.2573366   3.6292291
  11.7986078  18.2810326  19.3621120  10.9286604  18.5482388  19.6587963
  11.9790630  17.4744644  19.8449345  27.0216179  49.1715775  13.0771122
  27.7399387  48.8183784  12.5522337  26.4997768  49.6808853  12.4570160
  45.0535126  21.6235199  33.5602188  45.3153000  21.0426903  32.8458443
  45.7877808  22.2298813  33.6572113  28.1069374  49.0454826  53.4864731
  27.5822601  48.5935593  52.8256302  27.5487957  49.7632446  53.7856865
  45.1626434  44.1207504  24.1739445  44.4647751  44.7043266  23.8761921
  44.9240990  43.9022903  25.0748367  71.5121231  71.2174835  15.3477230
  71.3914642  72.1333847  15.0971413  71.7110062  70.7685699  14.5260448
   6.4748187   2.6270480  23.8984070   5.8601642   3.3406944  23.7277012
   7.3389988   3.0299091  23.8139839   3.2447743  12.8890419  41.6853409
   3.3259420  13.0154982  40.7400093   3.0669010  11.9540806  41.7875214
  45.3692398  30.5395603  61.7266350  45.9768448  30.6478539  60.9949799
  44.7115364  29.9241524  61.4027023  25.5896931  14.6221094  54.6047783
  25.0584526  15.4065514  54.4681435  26.0448856  14.7821093  55.4314766
  31.6617870   3.9234726  78.0425873  31.3510838   4.8278627  78.0004730
  30.8924274   3.4178669  78.3046570  73.2781143   7.1107779  53.5763741
  72.9925079   6.9610581  54.4776230  73.1206894   8.0430479  53.4269791
   4.1339302  52.0218315  13.9713917   4.7972584  51.5634804  13.4555035
   3.8423271  52.7367668  13.4056473  70.5626221  55.8351173  67.9449997
  69.8891830  55.7480812  67.2703629  70.1414948  55.5221634  68.7455902
  61.0054054  55.6795807  66.7184219  61.7394829  55.6969643  67.3324738
  60.5289574  56.4915009  66.8916550  56.1349068  25.9454098  54.9279404
  56.3671417  26.8217907  54.6209335  56.8272667  25.3802662  54.5851784
  77.5444412  60.2840195  74.2254715  77.2036743  60.6360512  75.0477753
  77.9859467  61.0258904  73.8120346  67.9848633  27.6496315  33.9852753
  67.1673737  27.9571114  34.3769455  68.2885284  26.9597855  34.5753021
  58.5361366  37.9535522  84.9712372  58.3878136  37.2217827  85.5701904
  59.4084053  38.2758255  85.1982193  14.7826176  65.1038589  10.6381731
  14.4361887  65.6588669   9.9394693  14.6586180  64.2103500  10.3180285
   1.5783736   6.1321969   2.1889513   2.0575321   6.2698703   1.3718313
   1.9773284   6.7449327   2.8067069  23.5282345  58.8849983  33.0750656
  24.1675396  59.1198654  33.7476387  23.6041431  59.5786247  32.4198189
  49.4301071   9.7598143  53.1004639  49.3533363  10.6985016  52.9295731
  50.1986198   9.6813288  53.6656723   2.7466869   1.6702273  55.3433838
   1.8108141   1.8692486  55.3157349   2.9927073   1.8023523  56.2589417
  63.6545029  61.4839783  86.8705292  64.1250229  61.6777267  86.0597916
  62.7710915  61.2510414  86.5849457  49.0935135  20.6702137  28.2146530
  49.4045982  20.9612370  29.0718365  49.7215309  19.9992180  27.9470882
  77.9004745  60.1932182   0.0328707  76.9675140  60.2903786   0.2236045
  78.1120300  59.3044434   0.3184523  41.9805183  43.9984055  74.5400772
  41.0575981  43.8621140  74.7542725  41.9702072  44.6531906  73.8419495
  82.1296463  40.8817520  24.5198040  82.3021622  40.1206398  23.9655685
  82.9372025  41.0022354  25.0193729  33.1809082  60.2546196  36.7361526
  32.2506294  60.2795334  36.9602013  33.5611534  59.6366348  37.3604431
  55.5901756  44.2379189  66.4264832  55.3463974  44.5493698  67.2981491
  55.4121475  44.9799080  65.8485641  12.9831572   0.9299102  54.0316086
  13.2091570   1.7510073  54.4685936  13.3263626   0.2485656  54.6097183
  83.1213608  60.7209282  25.0804901  83.7788010  60.0259323  25.0491161
  83.3107605  61.2644920  24.3157024  39.5094795  35.3216438   3.7867563
  38.8829041  35.8659821   3.3099597  40.3566856  35.5314064   3.3937273
  73.8733749  24.1779613  49.1956673  74.3086548  24.1316109  50.0469093
  74.3367157  23.5385933  48.6546021  57.0104942  26.2021160  36.1780777
  57.7580566  26.7584839  35.9593582  57.3652267  25.5516720  36.7841492
  86.6869354  59.1572723  52.6089439  86.0482025  58.8423386  53.2485275
  87.4495392  58.5924339  52.7339478  10.5835733  69.9826813  10.3150120
  11.4534626  70.2077255   9.9850397  10.5903921  69.0274734  10.3763332
  22.6775284  57.5901604  69.3835220  23.6195068  57.4729347  69.5066681
  22.4282894  56.8988113  68.7702103  74.3275146  33.4381218  27.4521275
  74.0971909  34.3655472  27.5074444  75.2704697  33.4349174  27.2876034
   2.5928926  71.2311020  20.9129868   2.4943826  71.9329605  20.2696209
   2.1621561  71.5652237  21.6997890  72.4715805  46.4749832  52.7546272
  72.9617767  46.0876846  52.0294113  72.6522369  45.9012833  53.4992485
  60.5507164  11.8306255  71.6007309  61.0625191  12.0554447  70.8237228
  60.7253265  10.9000826  71.7415619   9.6378574  46.4093132  40.9398956
   9.0967321  45.7062721  41.2992706   9.3165693  46.5256538  40.0457649
  60.2512970  42.3314400  74.0701065  59.6954384  42.8736610  73.5104218
  59.7055168  41.5765953  74.2904892  26.1742306  63.2964783   2.9473729
  25.5831814  63.1977882   3.6938007  26.2323627  64.2421722   2.8112967
   1.2683797  57.7630997  82.4561081   0.5047604  57.3393250  82.8479462
   1.6706928  58.2464142  83.1777573  70.7481918   1.4523480  40.1476593
  69.8016281   1.5946366  40.1450043  70.8772049   0.7103669  40.7384644
  72.2510452  11.1659460  61.1234169  72.2566147  12.0936871  60.8878365
  71.5475998  10.7888737  60.5950203  28.4065456  63.8220253  67.2873459
  28.1634617  64.7272949  67.0933609  29.3626957  63.8347321  67.3303299
  37.6230278  70.9041595  19.2013969  37.4949074  71.3529434  18.3656883
  38.5432701  70.6408691  19.1932621  54.4634209  52.4676552  88.8892822
  54.6369553  51.5982285  88.5284271  54.6949005  53.0707245  88.1829147
   6.8203716  39.3863106  12.5529089   6.9181128  39.4214706  13.5044565
   7.2373972  38.5628166  12.2995682  72.3428268  20.6926365  26.4372768
  72.3062897  21.6240425  26.2196083  72.4971771  20.2566910  25.5992088
  13.9640245  28.2850666  69.5951843  14.6115189  28.9717579  69.4356918
  14.1312952  28.0022984  70.4942398  74.8429337  57.3740501  60.5338478
  74.0741119  57.2989731  61.0990982  74.9826660  56.4876862  60.2005806
  39.4998322  69.0933762  46.9456024  39.5084915  68.6730652  46.0856628
  38.6602592  69.5518341  46.9796677  18.9324131  20.3024616   4.8778954
  18.0110970  20.5564880   4.8242316  19.4120445  21.1294575   4.8303318
  13.6117907  32.4073982   0.7973313  13.6231585  32.4097862  -0.1597982
  13.8465996  33.3025475   1.0418824  55.4819260  55.7431221  71.4446640
  55.8535118  56.6069832  71.6232758  56.1451836  55.3022156  70.9137039
  61.3661690  61.2164078   1.9115741  61.5141792  61.2737198   2.8555236
  60.8358803  61.9860840   1.7051169  21.5014477  44.7899284   7.5097432
  20.7607689  44.9236298   6.9183474  21.9293251  43.9986343   7.1826243
  26.2416439  71.5027771  87.9287186  26.1904163  71.7877579  88.8410797
  27.1003151  71.0861282  87.8557892  13.4914961  21.1790009  12.2640743
  13.6021318  21.8310223  12.9560728  13.0492601  21.6511707  11.5585852
  10.0086699   2.8882799  87.7947388   9.3089046   2.2998996  87.5112457
  10.3753757   3.2339165  86.9809265  58.2537079   1.1984223  64.7646408
  58.9258575   1.6093283  65.3083420  58.5684280   0.3046135  64.6294098
  30.2840157  44.3155899  66.5129318  30.4198570  44.6949272  65.6446686
  31.1647720  44.2323494  66.8784027  40.9290047  44.8216057  44.4885483
  41.5120125  44.2777443  45.0182152  40.4714851  45.3718376  45.1242790
  47.3412971  39.8107300  57.8144646  47.1929512  39.2297096  58.5605469
  46.5560913  40.3568344  57.7763367   3.7293217  26.1970100   1.9945583
   2.8241720  25.8890133   1.9490315   3.7738361  26.6893921   2.8141985
  28.9858570  69.5047760  76.1653290  28.7655392  68.7270889  76.6780624
  28.6159267  69.3333893  75.2992935  56.7839508  42.1359482  42.2396355
  56.3791504  41.3001938  42.4717712  56.0645676  42.6614571  41.8895454
  13.7699108  60.5996017  27.7491150  14.6451302  60.7008781  27.3749943
  13.4956551  61.4916649  27.9618015  53.6398163  31.4697132  33.5744858
  53.1203423  30.8609886  34.0996819  54.1852684  30.9068241  33.0250587
  51.8576546  54.3594704  21.7477779  51.3962021  53.8776093  22.4341469
  51.1651230  54.6607933  21.1597023  24.9317226  68.8341446  46.6655884
  25.4790249  69.5938721  46.8643532  24.0439415  69.1872177  46.6071510
  15.4593868  48.2888870  14.1123066  15.6853571  47.3679810  14.2430782
  14.5605297  48.2706184  13.7837420  13.1088610   0.9263036  49.4562683
  13.0425816   0.2132831  48.8210983  12.3188009   1.4477316  49.3143158
  27.4489117  50.2791367   4.6817141  27.6341419  50.2835388   3.7426176
  27.9019108  49.5031013   5.0115571  80.3252335  18.8452110  19.0865517
  80.9105072  18.3213081  19.6335583  79.5461121  18.2997341  18.9786205
  34.2983704   3.3900204  79.5355911  33.4889259   3.5648484  79.0555191
  34.1227493   2.5799034  80.0142365  53.5871658  50.1186829  69.4785843
  54.2282257  50.3926888  68.8226929  53.2756996  50.9369125  69.8655243
  45.2023888   3.6009266  39.7202225  45.6842728   2.8991468  39.2825890
  45.7481308   4.3779173  39.5990448  63.2457085  33.4907303  35.1070175
  63.7481689  32.8245659  34.6379890  63.5967865  33.4728355  35.9973335
  67.4963226  17.8474045   0.6635413  67.4412689  18.7463093   0.3392387
  68.0168839  17.9130726   1.4641271  53.8922920  15.7216883  55.9757118
  53.5895958  14.9019403  55.5850449  53.6628799  16.3925438  55.3326263
  74.3425446  13.1436234   7.9193091  73.6036530  13.7151985   7.7105718
  75.0849609  13.7392626   8.0206261  35.2344551  27.7597637  85.4858627
  34.5223846  28.3375511  85.7603531  34.8014069  26.9365005  85.2601700
  80.0773697  24.9979935  44.5810432  80.3240356  25.4804935  45.3700790
  80.8628235  24.5033073  44.3474350  80.1872787  13.0404692  65.2832184
  79.8825226  13.5940533  64.5642624  80.9576416  13.4942970  65.6249924
  33.3337784  43.2264938  65.6796875  33.4958305  42.3591347  66.0507126
  34.2048988  43.5652618  65.4732513  28.9235325   2.1451299  49.3808289
  29.7833176   2.5332475  49.2184486  29.1110039   1.2346668  49.6091766
   5.0732675  37.0760384   7.3756814   5.4299936  37.8812485   7.7506666
   4.2331948  37.3386841   6.9994802  80.7072983  39.9081841  75.2054825
  80.6022263  39.0914879  75.6935425  81.4444351  39.7428017  74.6176910
  52.0636177  15.4579048  70.2432175  52.3703270  15.5412931  69.3403244
  51.7444229  16.3315144  70.4693909  78.1765671  45.2508163  74.4726868
  78.0124435  46.1683159  74.2547836  79.1291809  45.1877747  74.5418396
  63.7656136  50.5647011  44.7920418  63.5146675  49.6446114  44.8738365
  63.0645332  51.0443153  45.2332764  41.9910736  39.6922760  70.9273453
  42.3906975  39.2492790  71.6758652  41.8560066  38.9980698  70.2823181
  15.6014013  41.4658432  84.1241226  15.0502434  40.9613647  84.7224197
  15.9943743  42.1434326  84.6742783  25.4904289  58.6550980  58.2812881
  26.1552906  58.7633438  57.6012306  24.7856102  58.1700363  57.8521271
   0.6263185  52.2897644  42.9490089  -0.1267448  52.7096863  43.3646927
   0.3358089  51.3943176  42.7757607  74.2912369  21.0409012  35.3821373
  73.6299362  21.6961937  35.6046257  73.9199142  20.5695133  34.6363869
  59.9214363   2.3063281   3.5874236  59.0538101   2.6953304   3.4772582
  60.0355034   2.2398801   4.5354767  19.3183689   0.4274096  15.8853912
  19.6453285   0.9406606  15.1465387  18.4110718   0.2272981  15.6551752
  80.9970551  14.9047766  57.5544891  80.3857117  14.9792328  56.8217239
  81.6710663  15.5593538  57.3715439  42.3186569  59.8065453  44.4481277
  42.2771263  58.8591576  44.5783730  41.5638275  60.1475830  44.9278717
   7.5282960  47.1142807   6.5103273   8.1558590  46.5203590   6.0984392
   6.8782682  46.5363312   6.9099145   0.8979489  61.8831482   3.5048969
   1.3654696  61.9856567   4.3338404   0.1221007  61.3694572   3.7294271
  67.9827652  23.0091782  20.9566193  68.5838852  22.6516361  21.6101093
  68.0819931  23.9580956  21.0336952   2.0546167   2.2481103  27.8439255
   1.3702302   2.8239462  27.5029564   2.7833345   2.3539426  27.2323685
  74.7125626  29.8083000   2.8932056  74.9991989  29.6207352   3.7870133
  75.4704819  29.5949783   2.3488848  82.4578323  48.3427582  36.4020004
  82.6898880  48.5849266  35.5054855  83.2118759  47.8453102  36.7185326
  72.9257050  57.1099281   5.5014787  73.5253830  57.8488922   5.6042056
  72.3535995  57.1574745   6.2674155  63.6990891  47.3935394  56.1104889
  63.2172775  46.5683098  56.0549507  64.0248947  47.4205856  57.0101280
  84.4834137   7.5021925  42.2999077  83.5506363   7.3331938  42.4326057
  84.6098251   8.4006100  42.6050262  81.4577560   5.6878591  47.5132942
  81.3873367   6.3529668  46.8285255  81.0684433   6.0974045  48.2859154
   8.3486052   9.9643917  18.2372093   7.8196502   9.4105701  18.8114223
   7.7136402  10.3798389  17.6537247  84.8371582  16.0140209  80.2236404
  85.7698975  15.9772911  80.0117798  84.5371399  16.8389473  79.8419113
  67.4842072   3.2825074  30.9481411  67.4826050   4.2382646  31.0006523
  67.5375061   2.9926867  31.8588524  42.5758553  20.6915913  73.1935959
  42.7850304  19.7592602  73.2505112  43.2820091  21.1251717  73.6727448
  68.6164703  71.8179550  12.4250975  68.3462677  71.1607208  13.0663958
  68.6016159  71.3553467  11.5872402  45.9910278  23.4049377  15.5256491
  45.6102142  23.1640034  16.3701401  46.9364471  23.3789387  15.6730785
  32.3506775  25.8857059  73.8626099  32.7612305  25.2912540  74.4905472
  31.8600197  26.5042191  74.4038391  11.3222857  15.6201506  15.8529415
  11.0084906  16.5223770  15.9141874  11.4973269  15.3654280  16.7588711
   7.4290094  28.4297943   9.4863729   7.8435221  28.4060783  10.3488398
   6.4951134  28.5276756   9.6720877  82.1835556  10.2281332   9.1939306
  81.8239059   9.3874407   8.9108801  82.7782822  10.4838104   8.4888315
  34.4506836  57.9679070  17.9049339  33.8605423  58.7177086  17.9808121
  35.0017776  58.0168419  18.6860447  73.4386978  39.1971397  82.2965164
  72.4934540  39.2063484  82.1459808  73.7298126  40.0736542  82.0451202
  67.8232956  35.9638939  40.5812492  68.3000412  35.2053261  40.9181709
  67.0830154  36.0665016  41.1793175  35.3763123  59.6044846   7.9628959
  34.7548218  59.5413094   8.6881456  36.0293617  58.9294701   8.1476049
  46.4186859  31.7904224  66.4402237  46.5378227  30.8868027  66.1478119
  46.8263588  32.3197136  65.7547455  72.5523834  35.1259842  75.5572586
  73.2400894  34.5884476  75.1643906  72.4360962  34.7622261  76.4349747
  74.8152618   1.7118759   2.3984046  75.1108017   1.3504426   1.5627863
  75.5455475   1.5577592   2.9977062  43.9934807  62.6877480  23.6899567
  43.1369324  62.5949974  23.2728786  44.0511169  63.6163902  23.9147606
   8.7277679  22.5274620  87.2823639   8.3872013  23.3968487  87.0716248
   9.5962648  22.5065613  86.8804855  62.6273232  11.5317898  62.4023399
  63.0259094  12.3376904  62.7308006  62.4463692  11.0164328  63.1884041
  50.8695450  44.0732956  65.3463516  51.2148514  44.9284363  65.6027374
  51.6226807  43.4849663  65.4001007  57.1398087  13.9649706  39.1333313
  57.0500870  14.5611477  39.8768082  57.4338303  13.1408100  39.5213280
  72.7458954  21.5862980  88.2441711  73.5834808  22.0362587  88.3547440
  72.9025574  20.7030811  88.5782623  34.6259155  51.0911980  80.5395355
  34.5341454  51.2950478  81.4702682  35.4785957  50.6616364  80.4713745
  84.1616745  45.8388824   8.2119341  84.6327286  46.6700706   8.2708025
  84.7567902  45.1982193   8.6013222  28.8014946  21.3975277  64.8755646
  28.9176979  22.3185902  65.1087418  28.0037880  21.3831444  64.3467102
  63.0590591  33.1352043  10.5887651  63.8463402  32.7548637  10.1991997
  62.3698387  32.9704132   9.9453001  17.9887562  62.4666252  74.8206635
  17.6181374  63.3342247  74.9823761  18.5705738  62.5906868  74.0707779
  16.3611412  43.7567101  45.4496727  16.2683697  44.5163040  44.8746605
  17.1391182  43.3037071  45.1244469  19.6419010   4.0979209  51.1814651
  19.1760845   4.0156765  50.3493118  18.9618473   4.3267341  51.8150291
  55.5923882  28.7360649  28.5375652  54.7299614  28.7795296  28.9505577
  56.2102470  28.8163738  29.2642250  52.6322746  34.4590073  59.6670647
  52.5467834  34.9934616  58.8775826  53.3678207  33.8749619  59.4824257
  29.3284454  22.7568245   7.4387140  29.2665253  22.6452274   8.3873682
  29.3745461  23.7044163   7.3115268  68.2632751  28.3800793  84.4759598
  69.0534897  28.8383751  84.1900406  67.8730774  28.0481682  83.6673737
  44.9531822  47.9990349  63.4171371  45.4517593  47.5011139  64.0650024
  45.1398926  47.5639763  62.5852127  27.2007504  18.5294132   6.4185781
  26.2478294  18.5577450   6.3327279  27.5128937  19.2405090   5.8589878
  13.4875650  54.1638031  51.4713326  14.0470619  54.4303360  50.7418442
  12.8535690  53.5629692  51.0798225  43.3718529  65.1662140  37.2744255
  42.7964134  64.9625854  36.5371094  44.1949272  64.7247543  37.0649147
  27.8896427  58.6092911   4.1123838  27.8258190  58.0605164   4.8940516
  27.6982441  59.4937401   4.4243927   1.5187767   1.1468016  18.5982704
   2.4542480   1.0714722  18.4099884   1.1379755   1.4859874  17.7882252
  17.5996304  63.3764763  87.9808731  17.9544086  64.1506882  88.4178619
  16.8176498  63.1536293  88.4859238  65.6975555  15.8044586  50.7271881
  65.4966125  16.6624622  50.3534470  65.2135544  15.7835112  51.5527420
  21.5025425  68.1416397  83.1174164  21.9415245  68.9415588  82.8281784
  21.8149948  68.0070877  84.0121231  68.0017624  50.7778015  79.1244965
  67.2961502  50.1310844  79.1348572  68.6793137  50.3842392  78.5747147
  70.7478333  12.2404985  30.7174911  71.0775452  11.4946556  31.2187271
  71.2288437  12.2048893  29.8906975  72.1887283  53.4748535  37.6501770
  71.2716446  53.6957092  37.8127327  72.4656525  53.0069122  38.4379425
   8.6642981  12.8568783  50.7424278   8.0521393  12.6662865  51.4531784
   9.3305979  13.4149961  51.1434021  46.1419373  42.3706856  74.7238159
  46.9249573  41.8502693  74.9034805  46.1073303  42.4295349  73.7690582
  30.7058372  47.8793335  13.0300312  31.2830544  48.4862556  12.5666780
  29.9122334  47.8484459  12.4957371  51.5959930  10.0609283  31.7476425
  50.7148933   9.7514238  31.9576530  51.9920654  10.2511520  32.5980377
  13.7256460  37.3892860  76.2879562  14.5132942  36.9089661  76.0327454
  13.0826979  37.1706924  75.6133652  45.4129181  45.9241486  86.8853149
  45.7571106  46.7911301  86.6705933  45.9126854  45.3241882  86.3316803
  42.1225777  64.6788483  27.9357624  41.5728531  65.2400818  28.4826145
  42.4134026  63.9820099  28.5240440  22.7474442  16.3524513  52.1365166
  22.1331959  15.7868805  52.6045570  22.5435638  16.2138329  51.2116127
   6.5718646  54.0230026  85.6823883   6.5951877  54.1349754  84.7320480
   5.9432797  54.6782074  85.9854050  69.5098038  17.7272110  83.7586899
  69.4975739  18.0346832  84.6650772  70.3994904  17.9091148  83.4560471
  85.1593094  11.5714912  13.5171337  84.6381302  12.3727217  13.4658155
  84.5321732  10.8669739  13.3541040  48.8707275  71.3607330  27.7709885
  48.3051796  71.4462433  27.0034752  49.1651344  72.2533264  27.9522057
  60.0290565  21.0073681  88.5389709  60.0921402  20.9900818  89.4939346
  60.6436615  21.6903782  88.2706604  24.3782120  65.2843399  78.6422653
  24.8625851  65.5320816  77.8547058  24.9954796  65.4307098  79.3590546
  25.5269680  42.0432625  23.5424156  25.5016918  41.3187370  24.1674385
  26.3381577  41.9086914  23.0524235  23.7734566  22.7759380  84.1019058
  23.0336475  22.4854088  83.5685120  24.0844822  23.5702553  83.6676788
  19.8777351  23.9263554  84.4169693  19.6205845  23.2611904  85.0554504
  19.1119957  24.4958973  84.3428345  69.2014847  19.9850464  24.9800110
  68.3306885  20.0244713  24.5845490  69.6519928  20.7603207  24.6450176
   1.6744059  63.2894287  74.5266495   2.2829113  63.5371208  73.8305130
   2.2355120  62.9650383  75.2310333  79.0282898  46.1577263  82.1104126
  78.3572464  46.6337166  82.5996552  78.8350677  46.3473511  81.1922913
  11.9028301  25.9570770   2.8315954  12.6836863  25.4807281   3.1137099
  11.7233438  25.6235180   1.9525300   1.9806111  19.0128288  18.0242577
   2.2239676  19.9312592  17.9080811   1.0614396  19.0403690  18.2899590
  58.9713402  31.4122086  76.1356964  59.4281616  31.8919296  75.4447403
  58.0977402  31.2520828  75.7787476  14.3863945  66.6743240   1.5277795
  14.6416168  66.7190094   2.4492440  14.9229574  67.3404160   1.0980624
  75.1521378  49.5042305  64.1116943  75.6741333  49.7522926  63.3486671
  75.3820953  48.5889816  64.2719269  75.7001572  55.2110367  18.0656357
  76.1265259  56.0520592  18.2303257  75.7295074  54.7584915  18.9085903
  71.5382538  11.1911020   6.5701838  72.2043686  11.3657265   5.9053307
  71.9755859  11.3751297   7.4015112  51.0929642  59.8002205  15.4584227
  50.2461739  59.9388618  15.0342093  51.3640671  58.9278488  15.1725922
  80.0340195  57.5140800  32.6591415  79.6092224  56.6564026  32.6721344
  80.9624100  57.3235970  32.7934494  54.7824020   7.9001598  27.6612720
  54.8906212   8.6976767  28.1794300  53.8562660   7.8954849  27.4194412
  71.1548920  53.9302864  45.4040031  70.8433838  54.8192139  45.5743141
  70.4020996  53.4825516  45.0179062  51.7866325  71.1160889  45.5881348
  50.9124794  71.0654831  45.2014465  52.2361488  70.3343430  45.2671394
  59.4038467  69.1960602  75.1876297  60.0286942  69.1388092  75.9104843
  59.8388863  68.7527695  74.4593048  65.7325974  68.0658798   7.2021894
  66.2844696  68.5742722   6.6078763  65.6149445  68.6332779   7.9640603
  81.1247177   9.2203083  52.9465523  80.8123016   8.4095154  52.5450020
  81.9546051   9.4017649  52.5054283  58.9332657  62.8500404   1.4009075
  59.5872765  63.4921150   1.1247823  58.0975418  63.3098106   1.3208506
  50.0023689  31.2553139  66.9060898  49.4722366  30.5683765  66.5019760
  49.6057053  31.3887424  67.7669525  74.3850250  18.4368458  38.9772720
  74.9453430  18.8894444  39.6076889  73.5520554  18.3238010  39.4351196
  77.4126434  64.1567001  14.8707476  77.4899445  64.7872925  14.1547766
  78.2291946  64.2501297  15.3614082  83.8150635  24.1691399  69.5205765
  83.6405640  24.6670227  70.3192596  83.1531372  23.4777012  69.5199432
  68.2137527  44.6579933  26.5168266  68.8323822  44.7530022  27.2410583
  68.7540970  44.3886147  25.7740631  60.8391075  35.3836250  85.6119614
  60.8385162  35.2535286  86.5602798  60.0507431  34.9338188  85.3080063
  35.2151566  55.8640785  21.3048229  35.5686188  56.5987434  20.8032570
  34.8367195  56.2674446  22.0860481  56.7171097  52.3855934  76.4430923
  56.4208069  53.1306305  76.9659195  55.9241257  51.8732491  76.2852783
  46.5800552  46.9684715  39.6312485  45.9799690  47.4393616  40.2095108
  46.0091400  46.4475403  39.0665207  75.3758926  52.0655441  65.6620483
  74.4888153  52.3037148  65.9314880  75.2550125  51.3248291  65.0679398
   0.8866852   0.4764616  34.7107124   1.8044842   0.2547717  34.5534515
   0.5989332   0.8948850  33.8993225  78.6854095  48.8504257  65.2400360
  78.5911407  49.7584763  64.9523087  78.2494736  48.3371429  64.5597916
  74.9016953  36.6968117  38.7866402  74.2495880  36.3770332  38.1631584
  74.5341034  36.4886589  39.6455803  75.0932083  12.3586378  62.0133705
  75.9130630  12.2484961  61.5317650  74.7727280  11.4667587  62.1478004
  74.0876083  15.1159887  50.9683342  74.2532043  15.7799797  51.6376076
  73.1334000  15.0614042  50.9160347  69.7081985   2.1484675  57.9168434
  69.3209000   1.2778059  58.0073051  69.3106308   2.6617153  58.6202278
  37.0849648  27.9484425  10.4732027  36.7412682  28.5233154  11.1570320
  37.9725380  27.7365055  10.7622137  63.0766983  64.9267807  53.9130211
  63.1582069  65.4334869  53.1050415  63.9793587  64.7371445  54.1688995
  31.9709015   4.0391326   2.9396577  32.8005180   4.3629003   3.2905734
  32.1081696   4.0053830   1.9929527  82.1857605  27.9081364  36.5166092
  82.7305069  28.6149006  36.8629646  82.2567749  27.9948769  35.5659943
  46.7334862  58.2573814  10.7207537  46.9091911  59.1646843  10.9700680
  47.5479660  57.7935829  10.9150362  82.1213760  34.8188057  23.5120640
  82.9396210  34.3241920  23.5575733  82.2025299  35.4798355  24.1995850
  47.5256462  22.7237492  25.1530304  46.6138878  22.6804562  25.4412251
  47.4923668  23.2009411  24.3239250  34.6528511  63.3405647  51.6990128
  34.4450417  63.5291519  52.6141548  34.9405975  64.1802750  51.3407936
  53.4088440  41.5387535  74.9502869  54.2605705  41.9752007  74.9327698
  53.1736298  41.4354744  74.0282059  36.5433197  60.2815704  42.1550331
  37.3755760  60.4137077  42.6090393  35.9290428  60.8592644  42.6079826
  50.1913071  70.7486191  57.5609818  51.0155869  71.1976242  57.7485847
  49.7491798  71.3142242  56.9278526   9.4861689  47.1928864  75.8251419
   8.6262255  47.5185242  75.5592728   9.4759865  47.2424011  76.7810059
  35.3072853  46.6980324  37.1865540  34.5928268  47.0376091  37.7255058
  34.8823967  46.0914993  36.5800743  80.2636490  51.5038872  88.3645859
  80.9557724  51.6117935  89.0169296  80.3860855  50.6153870  88.0302048
  45.4739189  12.7794342  70.1455994  45.8531532  13.6582632  70.1541824
  45.9364967  12.3121557  70.8412323  42.3789482  64.8242950  77.2296448
  42.1762047  64.3182831  78.0164642  42.9034195  65.5597153  77.5463638
  -0.2360894  42.2723961   7.6906271   0.6389395  42.4593201   8.0306492
  -0.2222441  42.6101112   6.7950888  81.1058731  57.2387123   3.1743164
  80.8248367  57.4099083   4.0731730  81.3287888  56.3078651   3.1662452
  12.8930416  54.7836037  24.0345211  13.7234821  55.2128906  24.2402229
  13.1062136  54.1769295  23.3254795  71.3826904  22.9239864  78.5905380
  70.5524979  22.5620861  78.9004288  72.0293121  22.6192417  79.2271347
  74.6138763  29.5645695  39.2511635  74.6655579  28.6221447  39.4105263
  75.5189590  29.8688049  39.3181915  30.0896168  53.9784164  11.5891485
  30.1426582  53.1568832  12.0775175  30.2159824  54.6587791  12.2504864
  25.8261051  59.2210732  75.4675522  24.8774719  59.1807861  75.3462906
  26.1143494  59.9137154  74.8730774  23.7903709  52.9027061  78.8397980
  23.1058540  52.5517311  78.2701569  24.5485611  53.0095062  78.2653656
  41.2172585  54.8034325  73.0679932  40.7127991  55.1386604  73.8091965
  41.2040939  55.5150032  72.4278946   0.4825616   6.1888552   9.5254126
   0.3827573   5.7674513  10.3790455   1.3478099   6.5968046   9.5593920
  57.1508904  57.2557831  29.5419617  56.5737419  57.0606499  28.8036842
  57.9139900  57.6756668  29.1449642  56.6847458  31.7526283  65.6234589
  55.8162346  31.3567505  65.6955872  57.2450485  31.0446091  65.3056564
  64.1420898  14.3768425  47.3480072  63.2922630  14.4736414  46.9182930
  64.2339935  15.1685371  47.8781052  38.8608818  26.7135811   2.8764584
  39.3200188  27.2005863   3.5607457  38.0322914  27.1798172   2.7655632
  64.2979889  56.0485725  49.4276237  64.7686310  56.8819733  49.4146385
  64.5114441  55.6398697  48.5887947   4.6294389  68.2373428  64.6065063
   5.2629995  67.6648407  65.0390244   4.3623338  68.8558884  65.2864227
  69.2797318  57.2619019  72.3889618  68.7611008  56.5005074  72.6488266
  69.3791962  57.7700310  73.1940384  14.9247484   5.9136653  59.2922020
  14.3091192   6.1454301  59.9875565  15.6922626   5.5766492  59.7543449
  31.8354549  57.1113014  69.7291641  32.6940193  56.6891861  69.6988220
  31.4159794  56.7452545  70.5078049  72.4429398  65.9572830  43.0878601
  71.5572739  66.2896881  43.2339325  72.3858032  65.4787827  42.2608147
  46.5148582  31.8013515  77.8745270  47.3469505  31.5317497  78.2633286
  46.1175423  30.9856491  77.5695648  38.9029694  61.9596443  21.5698872
  39.1757126  62.7322845  22.0647335  38.1268082  62.2454681  21.0881119
  64.8475342   8.0993271  41.0627937  65.7171631   8.4488239  40.8682823
  64.2427902   8.7366371  40.6828575   9.7721863  61.5578804   5.3401608
  10.0746374  61.7444077   6.2289591  10.0584126  62.3130493   4.8263302
  71.2922821  45.7363129  33.4329491  70.8789368  46.0257568  34.2463379
  71.6653976  44.8807526  33.6451530  57.5221977  47.9801788  21.2381268
  58.0461922  47.1838722  21.3250389  56.8238640  47.8791542  21.8849316
  12.2844458  70.0586395  83.8682556  12.2227573  70.9272766  84.2656174
  11.5897036  69.5526352  84.2895889  38.5572510  60.8445206  87.5066223
  37.9049339  60.1565857  87.6387711  38.2185593  61.5932312  87.9974899
  43.1283798  54.3045807  84.1144638  43.9282265  53.8702736  84.4108658
  42.4590645  54.0265198  84.7397079  64.3678665   8.4745913  74.7772980
  63.6109161   8.9027348  75.1772385  65.0800018   9.1066456  74.8752670
  86.3488846  19.5928707  62.6639099  86.9596939  19.1126366  62.1048698
  86.9095840  20.0943909  63.2557945  65.3580933  44.6463890  52.5893669
  64.5863266  44.2184601  52.9601555  65.0501633  45.5158615  52.3335838
  56.0018387   8.6712074  16.2359200  56.6501122   7.9933209  16.4268265
  55.9805984   9.2115288  17.0257511  40.6471748  59.0607452  86.8415527
  40.1123199  58.3589706  86.4705048  40.0383186  59.7901917  86.9574432
  24.7192402  61.4832726  71.8181915  23.7729740  61.3702316  71.9078217
  24.8699474  61.5003929  70.8730850   1.9700042  44.2496223  55.9745636
   2.8943279  44.1702728  56.2102737   1.8727828  43.6988335  55.1977654
   6.4382267  22.1796284  67.7505875   7.3876958  22.2472878  67.8513947
   6.3150930  21.4882679  67.1001358  80.4509506  18.1083851  53.3496895
  80.2958755  18.2796745  54.2785835  79.8109055  18.6559982  52.8950462
  50.9731483  15.1445408  14.6329355  50.9111137  15.9474306  14.1154881
  50.2615776  14.5937090  14.3066149  55.8180733  71.9354401  62.5936432
  55.9894943  71.0410538  62.8884773  55.3374290  71.8290405  61.7727318
  81.5299911  35.1546631  27.7060490  81.0890884  35.4752159  26.9192333
  82.3379745  34.7563591  27.3823872  24.5573330  42.5189400   6.2001104
  24.9687748  42.1177559   6.9656143  23.6178989  42.4130402   6.3500433
  72.1946182  24.4840374  45.3332939  71.8923035  24.8163490  46.1785202
  71.3932648  24.3565998  44.8255348  64.0301208  26.2897339  73.7996826
  64.5701141  26.4189243  73.0199738  64.5884094  25.7933311  74.3981171
  68.2189560  34.6945343  77.0657501  67.4965439  34.7511711  77.6911697
  68.7593994  35.4618263  77.2539520  10.3138723   3.3776159  53.4041748
   9.4775410   3.0176077  53.1089172  10.0750961   4.0252433  54.0673447
  86.8996582  22.0145245  56.8202477  86.1227264  22.5118198  57.0757980
  87.0467987  22.2536392  55.9051476  44.8940468  64.0010452  84.8473892
  44.4575729  63.4765968  84.1760635  44.4729080  64.8588715  84.7925568
   6.4194365  34.8060913  45.0795479   6.1348996  34.3005676  44.3181572
   5.6345644  34.8846703  45.6217957  78.6542282  51.2076492  51.9010429
  78.8248291  50.3199539  51.5862007  79.1447525  51.7721024  51.3035355
  48.0664444  67.3671799  82.8821487  48.4706726  66.5887909  82.4988174
  47.1284904  67.2481766  82.7327728  41.8599663  47.2424202   9.4603691
  42.0029106  47.2728539   8.5143919  40.9630089  46.9224472   9.5568914
  77.0032196  33.0235863  22.2206516  76.2422409  33.5984535  22.3023567
  77.3837738  33.2491837  21.3718185   1.8424187   7.9818053  85.3369370
   0.9919462   7.5535350  85.2394028   1.6989090   8.6493273  86.0077896
  76.8741989  38.4110870  17.7641220  77.7037048  38.7220535  18.1266956
  76.6215134  37.6841927  18.3333397  76.5771179   9.5594101  41.3680229
  76.3493042   9.8847895  42.2389183  77.0988617  10.2613277  40.9790115
  70.9405212   2.2701221  74.3078461  70.6036224   1.7413145  73.5845947
  71.8893814   2.1495452  74.2710037  37.9680443  69.8599243  28.4459915
  38.0200768  69.3130341  27.6621323  38.2703247  69.2920227  29.1547546
  45.0348396  63.5703506   2.9599836  45.0131531  62.7532616   3.4581096
  45.4170227  64.2082291   3.5627072  14.2177906  54.1301804  31.8266888
  14.6479750  53.8419724  31.0216351  13.9730854  55.0395355  31.6551609
   7.7600760  63.6191406  39.8565025   8.4720163  63.0700073  40.1848755
   8.1889782  64.2414856  39.2691727  58.3504524  34.7094688  67.8425522
  58.3651314  33.8132935  67.5065689  58.8746109  35.2086868  67.2162323
  61.3474159  25.0085144  52.5608711  61.9730530  25.4582939  51.9929771
  61.0897217  25.6691017  53.2038727  25.1179714  24.1962585  76.7625732
  25.9972134  24.0766659  77.1215515  24.6278706  23.4338112  77.0703201
  48.8771515  59.4453506  13.7249842  48.8653259  58.5017929  13.5643969
  48.4724884  59.8260574  12.9455328  64.4210510  44.7523880  72.2259369
  64.0827332  45.3576050  71.5660248  63.9492493  44.9825859  73.0263367
  15.0921326  69.4695740  73.2163544  15.8506594  69.3053970  73.7766418
  15.4552212  69.5275421  72.3325958  73.0568695  51.3807678  45.4258194
  73.5722580  52.1852837  45.4837608  73.5221558  50.8439331  44.7842941
  20.6714859  66.9743042  69.1324158  21.2415810  67.1689377  69.8762817
  21.1211357  67.3575897  68.3793259  32.2798538  57.1902122  27.7210732
  32.9389496  56.7207375  27.2097855  32.5752563  57.1059570  28.6276436
  50.2041702  71.0224915   7.2710223  49.4193726  70.6613007   6.8588657
  49.8721695  71.5478973   7.9990039   5.4472756  65.5591660  74.5128937
   6.0102358  65.3142776  73.7784958   5.9341397  65.2844543  75.2898865
  83.1458664  26.7901363  49.5167007  83.3936996  26.2525921  48.7644653
  83.8613968  26.6722164  50.1414757  16.1060314  27.8910675  27.9862976
  16.4707909  28.6348248  28.4658871  16.0767899  28.1843872  27.0756149
  72.4328003  14.3425846  85.2345963  72.4119186  14.8521376  86.0446243
  73.0546417  13.6367426  85.4116135  75.6611481  22.9816151  14.4167576
  76.0259628  22.8537674  15.2924252  75.4836807  23.9208488  14.3660097
  25.2755852  21.1469841  69.9451447  25.4510689  21.6486549  69.1490555
  25.0058079  20.2843342  69.6300507  48.3035812   2.5065086  12.5895309
  48.2731018   3.4581017  12.4906712  48.8173294   2.3646424  13.3846226
  32.6727409  60.2894974  12.6665974  32.6862831  59.3461990  12.8285732
  33.5930367  60.5258484  12.5507030  86.1443481  52.1231308  75.7470703
  85.7652893  51.2693901  75.5380859  86.9356689  51.9183846  76.2451935
   5.3679175  69.8747635   4.8986254   4.5866241  69.5840683   5.3690600
   5.0802240  70.6459579   4.4100337   6.2107906  35.0866776  16.6368885
   5.4222717  35.1860237  16.1034088   6.9289742  35.3194885  16.0484638
  79.0524750  49.8217659  81.5581436  78.4518814  49.5426140  80.8670654
  79.1173859  50.7706451  81.4501953  71.0979080  59.0587997  71.8659515
  71.4701920  59.1568489  70.9895782  70.1611862  58.9317932  71.7154236
  68.0355988  41.0079613  12.2862263  67.5481720  41.8120384  12.1070538
  67.9429245  40.4886780  11.4874840  16.0764942  60.5954094  57.5116615
  16.8227005  60.6860619  58.1042747  15.3669844  61.0691299  57.9457283
   9.8065310  28.6558113  87.3864059   9.0938826  29.0300465  86.8684158
  10.5953960  29.0825119  87.0519638  80.1763611  63.1293869  26.7582207
  81.1285095  63.0636520  26.8311996  79.8451843  62.3966026  27.2774372
  64.8932419  27.0253506  11.0233641  64.4758911  26.9291039  11.8793926
  64.8116608  26.1617508  10.6186752  48.2430115  38.8325958  70.4770279
  48.2013969  39.7283707  70.8118286  47.3724861  38.4726944  70.6469879
  25.1157074  42.6623077  17.7235851  25.9681759  42.4696465  17.3331852
  25.3215942  43.1606827  18.5144501   1.1735216  59.3826675  56.1611481
   1.7256706  58.6582832  55.8668137   1.7828792  59.9978485  56.5691528
  65.1021194  16.1372910  78.4580765  64.2826157  15.6965609  78.6825867
  65.3146591  15.8159189  77.5818481  35.7209549  49.6140022  21.8211269
  35.3072357  50.4133301  22.1469154  35.2125816  48.9041595  22.2134457
  66.7034454   6.2768369  82.7363586  66.7946701   5.8269830  81.8963928
  67.3395004   6.9909983  82.6959076  62.7679977  56.8918152  24.6109772
  61.8950882  56.6095695  24.3378506  62.6454468  57.2216911  25.5011425
  14.5057964  47.3659477  84.2553024  15.0301895  48.1449814  84.0699615
  13.6017694  47.6805382  84.2567596  52.5832405  68.8859406   3.4663243
  53.1738739  68.3664703   2.9208562  52.1118813  69.4423828   2.8463101
  23.9656372  46.8257599  36.9377708  23.4628010  46.0130386  36.9913597
  23.9475079  47.0578461  36.0093117  79.0437393  24.3967819  49.2788887
  78.6610031  24.8900185  50.0044670  78.3368683  24.3274097  48.6372070
  76.7883072  43.6618004  80.6511307  77.2908783  44.2767906  80.1168671
  75.9469986  44.0968323  80.7896042  66.4472275  29.6005688  54.9247551
  66.6654205  29.2360992  54.0669746  66.3510284  28.8359165  55.4924583
  69.1485672  64.2637405  49.7186394  68.6600952  63.7793274  49.0530739
  69.7548370  64.8112030  49.2196960  38.9137154  51.3813820   0.6482026
  39.1765709  50.5523186   0.2484658  39.6847992  51.9424210   0.5651628
  52.4969444   4.1736512  10.7383986  52.6096992   4.7434716  11.4992018
  51.8481140   3.5274827  11.0171824  63.3208961   0.9053047  51.8808517
  62.4596100   0.6401737  51.5581703  63.2840347   1.8615134  51.9040527
  73.9918594  56.6534615  46.9596367  73.3796921  57.0448570  46.3365097
  74.8448334  57.0124245  46.7150536  26.6352253  49.3952065  24.2935944
  27.4060802  49.6597900  23.7915878  26.3182621  48.6089249  23.8491573
  59.2560387  20.3966732  77.4210739  59.1205406  21.3442326  77.4227905
  58.4009018  20.0328541  77.1917114  74.8507614  32.0085220  36.1604080
  74.9497986  32.5422707  36.9487839  74.2922363  31.2804184  36.4327126
  49.8676758  44.6234245  47.6914597  49.1872406  45.2339668  47.9751396
  49.3869705  43.8540573  47.3861198  50.9370155  59.2067528  74.7336197
  50.5341225  58.9425049  75.5607147  50.2104530  59.2333870  74.1110229
  46.2928200  45.6836548  29.4091511  46.7332993  44.8513222  29.5807056
  46.9993668  46.2839394  29.1710644  70.9896545   5.0868044  53.7232933
  71.5253220   5.7741838  54.1192780  71.4720001   4.8301554  52.9373474
  47.7376518  21.7773094  69.0917130  47.7887726  21.6747475  70.0420303
  47.9735374  22.6919098  68.9364853  43.5131836  13.6157980   6.1785545
  44.4443970  13.5644417   5.9630718  43.4263039  13.1112089   6.9873023
  40.3269501  63.5197372  26.3204956  41.1380386  63.5534630  26.8276711
  39.7598419  62.9278526  26.8147526  69.3415833  61.5147400   3.3895907
  69.3494110  61.8869476   2.5077569  68.5826874  60.9314156   3.3966227
  17.2717133  46.2877769  23.1708412  17.8521461  45.8550186  23.7969799
  17.6319141  46.0604134  22.3136406  17.6210690  41.6587143  76.7888718
  18.1686249  41.3886337  77.5260773  18.2018929  41.6122360  76.0294571
  34.4332733  64.1793976  86.8563461  33.5049438  64.1141510  86.6323395
  34.8838272  63.7236061  86.1453629  49.6065788   3.1352332  15.4687843
  49.8086357   3.3922424  16.3684235  50.2923431   3.5462999  14.9424934
  20.0397778  13.4005022   4.1173210  19.9244289  12.6016960   3.6026998
  19.5033588  13.2620792   4.8979144  26.2041321  60.5975151  48.1072693
  26.2931404  61.0171623  47.2515793  26.3290577  61.3078728  48.7365685
  69.7730789  15.0396090   6.8909287  69.4895630  15.5373039   6.1240182
  69.0587158  15.1412191   7.5198960  52.7345734  38.3722038  42.0343208
  52.4824219  38.0725746  42.9077492  52.4856644  37.6533318  41.4533730
  19.3188381  30.9151344   1.5541333  19.5275116  30.6342945   2.4450970
  19.5885715  30.1810360   1.0022479   1.0462883  31.4818916  54.5378265
   0.2377504  31.0021496  54.3579788   1.7444797  30.8776855  54.2854462
  65.2747269  26.0742149  24.5181866  64.9311600  25.7703323  23.6780396
  65.2463074  27.0290546  24.4573212  56.1017380  21.8810978  57.6511230
  55.3032494  22.3955097  57.7695694  55.8954277  21.0274944  58.0319481
  18.9482670  25.8297520   1.2052464  19.2166080  26.5238380   1.8073020
  19.6110706  25.1479435   1.3150599  68.2609024  64.3970795  63.5682297
  68.7181702  63.5654106  63.6926041  68.7968521  64.8724899  62.9334297
  55.0438728   0.9023626  19.9420033  54.5178833   1.0121351  19.1498432
  54.6231308   0.1817201  20.4109211  83.6512146  24.4033699  53.2550125
  83.1963120  23.7390041  53.7726173  83.2133331  25.2240849  53.4806709
  80.6113815  59.9257851  80.7425919  80.6784821  60.8552666  80.9612198
  81.1878510  59.8153687  79.9864655  46.8617020  54.9849968  21.0984573
  47.7324486  55.3461227  20.9322567  46.5486641  54.7085609  20.2371655
  46.4941330  42.5374031  13.6391430  46.7499275  41.6676292  13.9462214
  46.2088890  42.9960976  14.4293756  12.5667057   9.6499844  85.0079041
  13.2855740   9.7472715  84.3834076  12.9204464   9.9804068  85.8336868
  18.1349106   5.2645645  66.7819519  18.2129478   6.1486034  66.4233170
  18.4744587   5.3371215  67.6739578  72.7836914  46.4276657  48.5406876
  73.2484283  45.6018448  48.4055252  72.2766342  46.5512619  47.7382889
  72.1990891  31.5945415  30.2047386  72.1396713  30.7581215  30.6663685
  73.0250244  31.9749489  30.5036716  53.9193230  71.2003555  70.5782089
  54.5753479  71.3177261  71.2652969  54.3526268  71.5011139  69.7794495
  50.2761269  67.1824875  35.9227982  50.4111786  67.7428665  35.1586189
  50.4355469  66.2954025  35.6004715  56.5291061  55.0707703  30.9605141
  56.7421227  55.8968048  30.5263233  55.6389656  55.1957283  31.2895565
  36.9650497  69.3429871  79.0490341  36.3373260  70.0597687  79.1407700
  37.8108063  69.7362900  79.2640610   2.0252252  38.4412498   8.4867916
   2.0504174  38.1680984   7.5697393   1.1003138  38.3875275   8.7273836
  39.3075218  64.3192596  54.7034645  39.3641624  65.2717667  54.7793579
  38.7327347  64.1725998  53.9522362   9.4523277  51.5114326  85.9012222
   8.7618847  50.9374161  86.2329254   9.9440384  50.9650764  85.2880783
  51.4771805  35.1491699  82.6473541  51.4783897  36.1004333  82.5409088
  51.9523544  34.8220901  81.8835068   7.0749426  71.2867050  46.6177559
   6.1940370  71.0640793  46.3166313   7.4954214  70.4411469  46.7741776
   5.0775757  44.1229897  48.4328995   4.5592241  44.8857536  48.1765175
   4.4307055  43.4817352  48.7271500  38.0006638  66.8483429  35.4918709
  38.0534363  65.8925934  35.4913483  37.5566978  67.0641479  34.6717796
  84.7156372  42.1118164   9.4654360  83.9568024  42.1150551   8.8820057
  85.4698868  42.1544151   8.8776197  37.2201538  64.9523239  62.3815804
  38.0990791  64.5733643  62.3921471  37.1053391  65.3154831  63.2597389
  40.1081429  56.9962158  74.8648605  39.2149162  57.3010292  75.0244370
  40.6179314  57.3586464  75.5894165  60.6247864  11.7802849  60.5673141
  61.2270432  11.3720980  61.1893272  61.0636406  11.6990862  59.7205315
  16.1856842  33.2399445   1.9763955  15.2865772  33.1172638   2.2810066
  16.4646015  32.3682785   1.6959751  69.4349213  66.7964325  19.5347328
  69.0291595  66.7613754  20.4009647  70.3324738  67.0838470  19.7021370
  70.4225769  44.8241158  61.0913925  70.7133484  45.6134148  61.5482254
  69.8781967  45.1492233  60.3743248   7.2523494  11.3739424  23.3646240
   7.9735212  10.7835846  23.5828457   7.2998734  11.4686956  22.4133129
  79.6133804  16.0413074   7.5558996  79.3905792  16.9327888   7.8239517
  80.0223083  15.6536751   8.3296909  40.7994995  50.7528877  16.3606510
  40.9784622  51.2616386  17.1514568  41.1204529  51.3016624  15.6450624
  53.2681007   3.2441607  24.4046402  53.4283066   2.5014105  23.8225002
  52.4505730   3.6264663  24.0856991  28.0113258  60.6695671  15.6085033
  27.5991497  61.1655807  14.9011765  27.4994640  59.8627014  15.6650848
  74.3820419   3.3431513  58.3077049  74.6198959   3.3239501  59.2346840
  74.0613480   2.4600987  58.1243820  74.4386292  32.0403671  87.4296722
  75.0985947  32.5204048  87.9299088  73.8032608  32.7073593  87.1695633
  78.5169830  54.0784760  69.6263504  78.0029144  53.7847557  70.3784790
  77.9689941  54.7410698  69.2057419  10.2683258  65.8114166  77.4681396
   9.4821577  65.9130096  76.9316177  10.3848553  66.6645508  77.8862457
   8.4108772  43.2164307  39.1243210   8.0101862  42.3605156  38.9723854
   8.0231600  43.5200920  39.9451141  73.1423874  67.3972168  16.7290668
  74.0731812  67.6204453  16.7254696  72.7137375  68.1636429  17.1099663
  46.5218277   0.5121200   1.8898222  46.4908447  -0.0239051   1.0973898
  47.4552231   0.6575462   2.0442739  20.0417080   4.2815347  74.6032562
  19.3362541   4.4442954  75.2294159  20.1048717   5.0918484  74.0976562
  65.9525757  33.9757462  57.2535667  65.0436325  33.8208923  56.9965057
  66.4004593  33.1528320  57.0574837  10.0535593  12.1118011  17.6185665
   9.4571991  12.8604612  17.6088257   9.5070686  11.3737679  17.8885403
  36.7813148  56.2982712  11.3144131  37.4930649  56.2146187  10.6798687
  36.7009621  55.4261093  11.7005606  79.5982590  15.1391783  39.4838219
  79.8501358  16.0625858  39.4734077  79.1998978  14.9898930  38.6263542
  68.8115921  71.1299210  51.7168579  68.6545334  71.1266022  50.7726364
  69.6340561  71.6083603  51.8211708  38.9089127  26.1810303  80.7662582
  38.8366318  25.7649879  81.6252747  38.5623245  27.0635548  80.8976364
  61.2919579  16.3126278  58.1289825  61.3136787  16.1202908  59.0664101
  61.0248871  17.2304497  58.0789223   6.2701459  63.6613922  67.5770493
   5.4862776  63.6601830  67.0277023   6.6228967  64.5468674  67.4890823
  75.3224716  64.8448105  28.8245697  76.0595322  64.5102158  28.3136692
  75.2591553  65.7674561  28.5777092   1.9991242  55.8615837  57.1292610
   1.2348981  56.2628441  57.5430031   2.4181857  56.5787926  56.6536255
  75.4285126  16.3014145  10.2393312  75.3016891  16.3432293   9.2914925
  75.3192444  17.2049999  10.5356903   1.8764284  35.5280685  44.9485893
   2.3828900  34.7624702  44.6773224   1.6901214  35.3760033  45.8750839
   0.2486301  15.7231188  63.3824463   0.2801813  16.2832985  64.1579666
   0.5849044  14.8788309  63.6829987  57.3124123  37.7841873  31.9898129
  57.4941139  38.2599716  32.8002739  56.3576546  37.7249527  31.9557590
  37.5449142  60.1947021  39.7096596  37.2774353  60.8516769  39.0669518
  36.9942703  60.3684158  40.4731026  34.5150414   2.8619075  26.8930607
  35.2860527   3.4223344  26.9807720  34.3628883   2.8098302  25.9494667
  16.4204292  64.6318970  64.1305389  15.4790268  64.8050766  64.1316452
  16.8108387  65.4280167  64.4910889  28.4747887  67.8855820  60.3748856
  29.0434494  68.4502792  59.8514557  28.6031017  68.1847534  61.2750359
  42.1756363  11.1212044  61.0464668  41.3807831  10.9609976  60.5377693
  42.1825638  12.0678282  61.1881981  32.8555412  17.4561768  88.6198959
  32.4052238  16.6161251  88.5318146  33.0974693  17.6932697  87.7246399
  37.1847153  39.7568436   6.1303363  37.3913765  39.8785667   7.0569997
  36.2348862  39.8644943   6.0806193  51.5379295  37.5687065  49.0025902
  50.8285217  36.9260941  49.0078316  51.0958939  38.4127007  48.9103546
   0.9762421  38.5775146  34.9457626   0.2980180  38.3469658  35.5806580
   0.5104254  39.0584564  34.2616997  77.2210083   7.3987503  60.1267128
  76.8714142   6.9138355  60.8742905  76.8845215   6.9334569  59.3608742
  77.5133286  38.1083794  40.9137230  77.1663208  38.0238686  40.0256500
  76.7542419  37.9744148  41.4812355  25.9843445  53.0538216  88.1425247
  26.6927662  52.7725372  87.5635223  26.0352440  54.0096474  88.1364136
  86.2930756  34.1664200  86.9177933  86.5031586  33.5458946  86.2199020
  85.3828583  33.9742203  87.1431885  41.7734299  18.9573212  79.9918594
  42.1822853  18.8404655  80.8494263  42.4188385  19.4487820  79.4837799
  27.6742439   5.0935078  28.4318352  27.8259354   5.9546809  28.8211975
  26.7893257   5.1464009  28.0707893  45.7247200  65.1121521  65.5134048
  46.1396103  64.2520218  65.4479523  46.4473076  65.7338638  65.4263916
  66.9204102  32.8527832  30.0728436  65.9736786  32.9910545  30.1012573
  67.2919388  33.7347488  30.0911484  46.2120247  46.3316460  25.8653717
  45.4665108  46.6669693  26.3633633  45.9957809  45.4141426  25.6990776
  55.1515160  51.9062309  60.0403748  55.0840340  52.6943665  60.5793724
  56.0883598  51.7112160  60.0174789  58.2713432  70.7724228  37.3187790
  58.8217964  70.2798309  36.7100258  57.9754982  71.5303650  36.8145599
  15.1596737  50.0524178  66.4381638  15.4428463  50.5113983  67.2289734
  15.6029711  50.5101318  65.7238693  27.7608204  57.7301941  79.6940079
  27.7310371  57.8017769  78.7399521  27.3891411  56.8681984  79.8812332
  16.2160130  45.5456886   2.2320538  16.3725681  44.7423058   2.7283361
  16.7592888  45.4534378   1.4493830  76.8228455  64.0817947  52.9662743
  77.7628708  63.9227295  52.8809013  76.4143753  63.3845367  52.4532318
  37.3464966  45.8046951  53.7750740  37.4345512  45.0743790  53.1626091
  38.0887947  46.3752327  53.5757980  21.5252132  22.8909187   8.3549395
  21.4551010  23.8360138   8.2203627  21.5145206  22.7829704   9.3059731
  63.4398880  35.4865837  87.8030319  63.8202553  34.9665909  87.0951004
  62.7902336  34.9082298  88.2026367  56.6135902   4.9943733  61.6892357
  56.9965782   4.1509323  61.4480743  57.1286659   5.2848587  62.4419289
  57.6263351  43.9055290  58.8868980  56.7201805  44.2133942  58.9052391
  57.9441490  44.0431252  59.7792511  53.7301178  70.0033493  13.9335537
  53.6703377  70.0581665  14.8873110  54.4239082  69.3636246  13.7734289
  49.3087196  22.0139141  22.7824688  48.7916946  22.7893486  22.5642471
  49.7333107  22.2346497  23.6114635  36.3266563  40.9492989  80.0543137
  35.4034271  41.0526085  80.2849731  36.8016701  41.3517723  80.7813644
   2.8903747  19.1620121  59.6385345   2.4323871  19.9705925  59.8680458
   2.2741861  18.4652882  59.8646278  67.3874054  65.3700180  74.8752518
  67.6193924  65.4583054  73.9507904  67.9846878  64.7007294  75.2092133
  46.9599648  36.9450569   7.2471333  47.6783447  36.4346809   7.6208687
  46.7235603  36.4756775   6.4471173  14.7787666  35.0958290  18.6523113
  13.9333944  35.5075378  18.8313999  14.5558052  34.2537804  18.2554741
  14.0318737  66.1270981   8.1587572  13.9423475  66.8277130   7.5127316
  14.4348221  65.4057541   7.6754994  84.4026489  65.4415741  80.4395981
  83.4585724  65.3799515  80.5850754  84.5448151  65.0032730  79.6006012
  17.5035534  40.7960472  17.5124950  17.8240776  39.9798698  17.1286335
  16.7228146  40.5395126  18.0032787  64.4956818  35.1009102  38.8322601
  64.9566727  35.8208504  38.4016724  64.4641800  34.4080772  38.1725464
  83.0287933  19.5896492  23.4140167  83.2420959  19.3684006  22.5074940
  83.1911087  20.5309906  23.4753609  46.8414879  12.6512299  65.6478729
  46.5191078  13.2425852  66.3280182  47.6920090  12.3546820  65.9717712
  35.3673286  56.6222839  87.7353668  34.8055916  56.6581955  88.5095749
  35.0261650  55.8873177  87.2257996  13.3894033  20.2182369   5.7504959
  13.9145098  19.4422226   5.9461918  13.6952820  20.8776913   6.3732247
  57.5190086  53.9807739  21.4187775  56.6716576  53.9368591  21.8618355
  57.5150185  53.2342300  20.8197041  68.1259537  48.4855118  73.6396561
  68.7866287  47.9321060  74.0561752  68.1577835  49.3069077  74.1300888
  41.6407051  56.4141808  31.6377754  42.2386169  57.0789146  31.9796276
  41.4509811  55.8532028  32.3898010  34.1259880  59.1261940  45.2661972
  34.3860245  58.8011169  46.1281357  33.4095535  59.7349930  45.4459610
  60.9118309  17.2606144  38.3945541  61.1779442  17.2894192  37.4755402
  61.7351456  17.2206421  38.8811646  55.6518211  63.9211273  25.5136166
  56.1194649  64.1788025  24.7191734  54.7422295  64.1683121  25.3469467
  11.3662939  39.6259956  73.2789383  11.7916994  40.3846245  72.8792572
  10.8516760  39.9914818  73.9985352  44.7388916  61.4340935  65.4541016
  43.8341980  61.1506538  65.5860901  44.9846115  61.0638657  64.6062927
  50.4273071  26.1554680   4.2508893  51.3009529  25.7821198   4.3674579
  50.1084595  26.3015041   5.1415305  85.4815674  68.2316895   8.4456892
  85.9271698  69.0282135   8.1572227  86.0149765  67.9084167   9.1717777
  72.4433670  53.5471802  79.7722092  73.1700363  54.1543312  79.9120636
  72.1473160  53.7293472  78.8803558  74.0915146   2.0030429  77.8898087
  74.2483673   1.5179502  78.6999435  73.4958572   1.4460477  77.3886261
  30.8404408  55.6866722  13.6899261  30.6953030  56.4410477  14.2609653
  31.0211773  54.9632301  14.2900906  39.4768295  42.4438133  71.5364227
  39.9762497  41.9575958  70.8803635  40.0012016  43.2266884  71.7048492
   7.0909023  60.9989662  74.5862045   7.8236938  61.0791092  73.9756088
   6.4428244  61.6265564  74.2662735  49.8041420   7.8989120  69.2852325
  49.1104240   8.3108921  68.7702026  49.8705864   7.0119891  68.9314194
  50.9695930  57.3839111  55.8343964  51.7827835  56.8933525  55.9540024
  50.5571022  56.9811745  55.0702705   9.1071615  46.6523476  71.5916824
   9.7806110  46.5595551  70.9178238   9.5282326  46.3460999  72.3948898
  80.0554810   4.1871667  71.7157364  80.1246643   3.2548864  71.5100708
  79.6790085   4.5789886  70.9277191  12.5626898  41.0068245  60.3622742
  13.3519535  41.4138641  60.7195015  12.5220613  41.3164597  59.4574509
  48.4814262  16.5674343  53.3377266  48.3437119  15.6202002  53.3414803
  47.8189964  16.9081554  53.9388313  20.2332764  23.5732307  69.8314667
  20.4199715  23.7123871  70.7599182  20.9531879  23.0234089  69.5221863
  16.9377193  50.1455078  71.0199356  16.5283794  51.0054626  71.1156006
  16.8171558  49.9242477  70.0964966  20.5665283  53.8476067   7.9704137
  21.4934654  54.0377502   7.8259706  20.1222229  54.6780472   7.7995696
  27.1218300   1.6441375  58.4190712  26.8636017   1.5898079  59.3391800
  26.6831760   0.9020582  58.0029793  62.8882446  40.2073708  67.8391418
  63.5481834  40.8039055  68.1924896  62.4658737  40.7050209  67.1390152
  45.9156189  68.0790253  47.6222878  45.1484337  67.5167999  47.5147400
  46.3377419  68.0751266  46.7632027  49.6345520  33.0058174  85.7611923
  50.2309990  33.7479439  85.6625366  49.0638733  33.2523041  86.4890671
  54.6531258  17.7446804  69.4086838  53.9915657  17.1638851  69.0328598
  54.4241867  18.6136112  69.0788651  69.5638199   1.7664831  79.5750122
  69.2200470   1.5564189  80.4432983  68.9567566   2.4206300  79.2288895
  86.4523773  16.1492958  30.9243031  87.2205734  15.6709118  31.2361603
  86.7576141  17.0504665  30.8196430  82.3274078  16.0221272  76.8722382
  82.1733093  16.3743553  75.9956360  83.1355133  16.4455757  77.1618652
  50.5144768  19.6599731  61.2885628  49.7078972  19.1669941  61.1381302
  50.5539551  19.7705383  62.2385368  58.1270981  51.7421455  15.9503946
  58.0413742  52.6509705  16.2383575  58.6098022  51.7967453  15.1256237
  38.9277077  62.6328201  57.1123543  39.3951187  62.8157310  56.2973061
  39.5690804  62.1798477  57.6597939  58.6067734  56.4365082  14.8657112
  59.0967979  57.2017365  14.5648270  58.8446999  55.7427177  14.2506657
  77.7359695  11.2252884  58.7894897  77.4689255  11.4001198  59.6919060
  78.6911545  11.1762743  58.8275948  76.5268021   1.0829304  16.7103920
  77.0464706   1.4326936  15.9866219  76.2374878   1.8569794  17.1934834
  82.0397949  47.3544083  47.8522415  81.2937317  47.3058548  47.2545280
  82.7190247  47.8060036  47.3513069  43.0857620  65.9620590  73.7511368
  43.3993835  65.2931595  74.3597794  43.1464043  66.7809067  74.2431183
  30.8188515  24.3961239  75.8495026  31.7589626  24.2624340  75.9701233
  30.4154892  23.9421120  76.5893631  62.7022057  50.2370834  52.4306602
  63.5447960  50.1669235  52.8793869  62.2209930  49.4550705  52.7010651
   8.8838778  69.7490997  24.4612179   8.3286524  69.1513062  23.9606152
   8.4825592  70.6092148  24.3371983   1.8897343  54.5260773  46.8040314
   2.7465897  54.9498291  46.7543945   1.8758954  54.1142387  47.6679955
   1.1679348  42.2777786  17.8838139   0.8647509  43.1185799  18.2263966
   0.3798705  41.7356720  17.8476639  75.1773529  38.7976608  36.3214645
  74.7751846  38.5062981  37.1397514  75.5561218  38.0034409  35.9446602
   6.1143823  64.2064362   9.1398859   5.7827287  65.1037903   9.1712675
   6.9797292  64.2848129   8.7383108  46.5054779   4.5059090  80.2760468
  46.8662262   4.0765295  79.5003357  47.0318298   4.1707520  81.0018921
  10.5343037  60.7538681  35.3014259  11.2133350  61.2687683  35.7373505
   9.8902645  61.4011269  35.0141945  31.7915916  45.8502083  74.4604340
  31.7706642  46.1324768  75.3748322  32.5183945  46.3397102  74.0752411
   3.9803317  22.7135582  25.7036819   4.3366609  22.3688622  26.5224895
   4.3092470  23.6113358  25.6584911  79.1885071   4.8480854  27.2474651
  79.9381104   5.3480935  27.5704365  79.5602188   4.0100217  26.9723167
  35.8248901  63.8443794  89.1551514  35.3240852  64.3995514  89.7528229
  35.3632774  63.9145775  88.3195572  74.5980606   5.6879187  11.1721725
  74.1986465   5.2248511  11.9085636  73.8741531   5.8421988  10.5652199
  69.5497208   8.3857679  44.2287292  69.3620834   8.0040083  43.3712425
  68.9888153   9.1600819  44.2740974  58.3540306  63.5501900  62.4287910
  59.0087852  64.1519165  62.7829857  57.5942383  63.6593094  63.0006599
   3.6047831  69.3682327  50.5579414   4.4842343  69.3427277  50.1809158
   3.7364485  69.1752701  51.4861984   0.1984334  33.1666298  48.6185341
   1.1011976  33.4843483  48.6360207   0.0090101  33.0344009  47.6896286
  18.1875305   5.5561647  71.2705231  18.6827850   4.7382202  71.3143539
  17.2861671   5.2816558  71.1019440  22.0489101  40.5440216  86.3196564
  22.1100559  39.8150635  86.9370041  21.6471539  40.1634102  85.5386581
  32.3046646  39.0045509  69.2257004  32.7132530  39.8594551  69.3614426
  31.5212021  39.1928673  68.7090225  10.6091871  19.8990669  60.4091721
   9.7037277  19.8359470  60.1052132  10.7430506  19.1066799  60.9292030
  10.8857613  14.2452402  81.2647400  11.0453396  13.3049850  81.3465118
  11.7496662  14.6209412  81.0951767  75.2660522  23.5462341   9.0838785
  74.6587906  23.3521919   9.7978935  76.0441742  23.8944416   9.5192032
  57.5385475  55.2947311  33.4681091  56.9118347  54.9644241  34.1118164
  57.0769958  55.2345314  32.6316986  68.0410995  12.3510599  40.8817101
  68.5922470  12.9394484  40.3656960  68.5979233  12.0799017  41.6115417
  27.9404106  65.2672806  72.0519485  28.3449268  64.4588699  71.7371826
  27.2674980  65.4674988  71.4013062  48.1924744  61.0013046  66.8072357
  48.1311264  60.0909882  66.5177765  48.8274651  60.9826851  67.5232468
  60.4265747  63.4231758  55.2338409  60.6471634  64.3519363  55.1633530
  60.8465881  63.0189514  54.4746170  50.1672478  47.5715294  36.6034966
  50.6610527  46.7595978  36.7181969  49.3608093  47.4336205  37.1003532
  25.5092812  57.3923874  69.7866592  25.7177315  57.5072708  70.7137985
  25.9981174  56.6117249  69.5262070  43.7637367  20.7809677  79.0196457
  44.0745773  21.5433521  78.5314026  44.2861290  20.7809334  79.8217316
  47.1334496  26.1515121  66.0469894  46.5030479  25.9115067  66.7261276
  46.6607208  26.0219383  65.2248154  58.1956902  58.8600349  44.4334755
  58.9619904  59.3817749  44.6718063  58.5523529  58.1237602  43.9365616
  23.8365211  23.4924641  70.5404739  24.5727329  22.9250507  70.3118591
  23.9749737  24.2850609  70.0219650  48.0781441  53.3797836  64.5056686
  47.5654984  52.5722961  64.5429764  47.4241676  54.0760765  64.4447098
   9.1293325  20.7125645  71.7402267   9.9915237  21.1283054  71.7360611
   8.5131912  21.4378834  71.6376877  47.8024597  36.4049568  12.5981655
  47.6363564  37.3333511  12.7616291  46.9851646  36.0779877  12.2221880
  83.1975555  70.5526733  74.6756973  84.1276169  70.5985260  74.8973236
  82.7703934  70.2846222  75.4892807  63.3055878  29.1378059  24.8355598
  62.4367867  28.8987732  25.1584854  63.1346130  29.7393608  24.1109009
  78.7069321  71.4224472   8.8300896  79.0772247  70.9555969   9.5791960
  77.9262848  71.8531723   9.1783628  25.8703022  12.9131775  66.5790710
  25.9985638  13.7607136  67.0050507  25.4988461  12.3553743  67.2625198
  48.8814888  51.6083488  71.1065369  48.9993057  52.5556374  71.1772232
  49.1832809  51.2660141  71.9479446  13.9967394  36.2541809  23.1703091
  14.9089642  36.3797531  22.9089489  13.6997328  35.5065193  22.6516323
  22.2328739  57.4309540  20.9750443  21.5952358  56.7567673  21.2098312
  22.3806725  57.9143066  21.7879143  53.4322701  51.9951935   9.1367626
  53.0897636  52.4307213   9.9172983  54.2433739  51.5803490   9.4304390
  75.7648544  51.9339485  38.2385292  76.0749130  51.0637131  37.9879532
  74.8348618  51.8111992  38.4290085  55.8332710   2.7467663  64.7790833
  56.5746193   2.1465132  64.6995239  55.3051262   2.3822818  65.4893265
  62.5342293  67.0022964  60.3629303  62.2835121  67.3245468  59.4971733
  63.1822395  67.6338272  60.6751442  16.9332848  32.0597649  46.6043777
  17.4503574  32.2276535  47.3922081  16.7668266  32.9280891  46.2375832
  44.0185738  49.0019989  87.5142212  43.5746956  49.6538544  86.9717407
  44.8151054  48.7883072  87.0283127  45.0086060  46.0772820  69.2331924
  44.9277763  46.2992363  70.1607895  45.3784943  45.1944466  69.2295151
  11.8534050  60.0786209  26.0364437  12.4628448  60.1838837  26.7670155
  11.4546061  59.2202110  26.1789932  50.9235954  68.4308167  33.3396034
  51.4205055  68.6766129  32.5592880  50.7338524  69.2621613  33.7744522
  81.3680954  64.5494919  17.2854214  81.3941345  63.5934677  17.2457466
  81.3632126  64.7503281  18.2213020  14.1134052  28.7486935  19.7960052
  13.1607876  28.7961025  19.8766441  14.3242912  27.8337536  19.9821339
  34.1071434  64.1899872  64.3689346  33.1873131  63.9507637  64.4825974
  34.2506218  64.1474304  63.4235039  38.6623230  45.0485344  62.2958031
  39.1242638  45.0874748  61.4583473  38.6492653  44.1178322  62.5190811
  29.8380699  55.0618134  38.1432686  29.9198189  55.0934753  37.1900940
  28.8942661  55.0619316  38.3028526  49.5387192  58.3346252  77.0286179
  49.7142982  57.4851303  77.4332962  50.1290283  58.9401474  77.4770660
  11.6440611  20.7837887  74.4464951  11.2189598  20.6756191  75.2972717
  12.4783649  21.2076416  74.6477814   5.2788472  55.0325470  49.7127266
   5.3030896  55.9800949  49.5792999   5.0013614  54.9258156  50.6225853
  31.3225384  52.1621704  86.2438736  31.4416656  51.2756538  85.9030991
  31.0918674  52.6849670  85.4759521  18.5480824  63.7148247  29.3552361
  19.1790810  64.4285812  29.4480972  18.4777565  63.5787239  28.4103756
  23.6248226  21.7409191  64.4306335  23.0401630  21.7722530  65.1878815
  24.1983757  22.4995079  64.5393219  75.2406540   9.4936247   4.0160146
  74.6828766   8.7172737   3.9670880  75.5208054   9.5300188   4.9305778
  46.4987106   1.8438784   4.3569908  46.0645218   1.3876501   3.6361799
  46.3269234   2.7709279   4.1917634  19.1075993  41.0676918  57.8413696
  18.9663162  41.7286606  57.1635895  19.4599972  40.3128014  57.3700027
  62.8893280  51.8245544  20.7107353  63.3245049  51.2234154  20.1061821
  62.6403122  51.2769127  21.4552555  19.6096325  62.5214539  53.4270592
  19.2967052  61.9794502  54.1513100  20.1684093  63.1778526  53.8431664
  69.4622574   0.2039318  64.9695892  70.3780670   0.0310782  65.1878815
  69.1500854   0.7689206  65.6763916  12.8157730  29.7664280  80.6665573
  12.2731390  30.5527668  80.7253113  13.5906696  30.0460320  80.1791229
  57.5482674  53.4326935  25.3363304  57.5603981  52.8208618  26.0723667
  57.5638084  54.2984695  25.7442741  29.4371033  27.6249485  70.4668579
  30.2727337  27.4545002  70.0322342  29.1430378  28.4594631  70.1016998
  35.0105629  34.6317291  12.7720213  34.8993568  34.8960304  11.8587799
  35.8960190  34.2701836  12.8106060  82.5564957  45.3599472  79.6521454
  82.4456558  45.9677544  78.9210358  81.7213898  44.8952599  79.7060089
  74.8769684  12.7396040  86.4576263  74.2044907  12.2179794  86.8957138
  75.3859406  13.1228781  87.1719666  -0.0745213  40.1514397  83.7799530
   0.4719009  39.4744377  84.1791000  -0.1916310  40.8031158  84.4712067
  18.3447285  41.8043365  68.7166977  18.6429310  42.2555656  69.5064468
  19.1467838  41.4726372  68.3130722  38.2807541  40.1708488   1.0649245
  39.1408997  40.5390854   1.2668701  38.3835678  39.7852478   0.1948831
  24.3891945   4.9878621   1.1707841  25.2214069   5.3039174   1.5225867
  24.2783241   5.4679065   0.3501153  11.2633410  29.1400909  63.7308235
  12.1591368  28.8563843  63.9132843  10.8847542  29.3078289  64.5938263
   0.4539153  40.4931793  15.6096945  -0.4842889  40.5294418  15.4234428
   0.5344130  39.8443260  16.3087940  40.9656029  44.7059288   0.7647510
  41.0750427  44.8343620   1.7069609  41.5139160  45.3814392   0.3656617
  79.9653168  43.5510063  26.6472359  79.0116806  43.5688210  26.7278595
  80.2225494  42.7128716  27.0314102  19.8431129  37.2437286  24.7351799
  19.7968197  37.9577293  24.0993423  19.4015617  37.5861168  25.5123749
  28.1309853  67.3615723  77.8785019  28.9155807  67.2840271  78.4213028
  27.4763966  67.7513504  78.4580002  50.2481308  55.4168434  77.5258942
  50.1643257  54.5223312  77.8561249  49.8003044  55.4028282  76.6800308
  31.2209148  51.1457481  33.0010605  32.1223145  51.4677658  33.0045662
  30.6835823  51.9377213  33.0178566  78.3529205  35.9600906  68.5906219
  78.0186462  36.5862541  67.9484253  79.2271042  36.2837105  68.8081207
  20.5837955  45.5162201  88.9253464  20.2359905  46.3596191  88.6356201
  19.8136120  44.9529991  89.0016708   9.7085571  25.9407902  87.1190567
   9.0025015  25.4941597  86.6519012   9.5121469  26.8719807  87.0163956
  32.2871323  24.8744583   2.9626644  31.8463993  24.0249577   2.9444547
  31.8459473  25.3877392   2.2858105  29.7495251  59.1454544  45.6507072
  29.3111877  59.2747345  46.4917679  30.6402779  59.4656143  45.7931442
  31.9071045  12.1891737  82.2509842  32.4839287  11.5460844  81.8387451
  32.5008240  12.8513336  82.6049194  80.7193146  39.7026215   8.1026611
  80.3253479  38.8570747   8.3173094  79.9804153  40.3103600   8.0724239
  57.1675835  42.3428764  76.5154877  56.7582817  42.4847298  75.6619186
  57.2786636  41.3938904  76.5731049  63.7462959  51.0284500   6.2384377
  63.8556557  51.8968773   5.8510003  63.5038910  50.4665947   5.5023737
  59.0643730  71.1745148  34.0306931  59.9470596  70.8236771  34.1490479
  58.7765121  70.8199463  33.1894722   5.1315594   1.5582058  53.8992271
   5.0134058   2.1313934  53.1417770   4.2895727   1.5852568  54.3537140
  51.5312500  34.3931313  74.0456696  50.5832138  34.5038872  74.1177292
  51.8114510  35.0999336  73.4641647  66.3020401  71.5541306  30.6493855
  66.0332336  72.0329514  29.8653545  66.3361740  70.6389008  30.3711452
  63.2314644  29.5796413   1.5431559  62.8238449  28.7320900   1.3650185
  62.8318100  29.8700294   2.3630240  60.6570969  35.0156746  14.5320377
  61.2799492  34.9541206  15.2562599  60.9485855  34.3507080  13.9082708
   9.0848694  54.7646713  15.6037455   9.4795065  54.9803467  14.7587729
   9.1004000  55.5876160  16.0923710  49.5028915  58.3405762   5.2691150
  49.6690369  59.1331062   4.7586994  48.5572701  58.2073708   5.2036428
  68.2958450  70.8395767  27.4800129  68.6935577  71.6935272  27.6497822
  68.9645615  70.3560944  26.9949436  78.3734589  50.5272751  60.2250633
  78.7317581  49.7012100  60.5498199  79.1430817  51.0516548  60.0038376
  38.9966965  63.5396385  60.3963509  38.2257767  63.2439461  59.9121132
  39.4756622  64.0862961  59.7734604  59.7718887  68.1915970  65.9309921
  59.2576370  68.1748123  66.7381516  59.2521439  67.6869812  65.3053284
  59.4202728  21.8137703  34.7090034  58.7533836  22.2713509  35.2209702
  58.9782867  21.5826817  33.8920097  55.9777222  33.7879295  50.3944817
  55.3350258  33.3731804  49.8190193  56.7217979  33.9796638  49.8236732
  60.0467262  25.7492256  58.1601486  60.7666817  25.1200485  58.1150818
  59.9881554  25.9801846  59.0872154  50.1214714  43.9429359  44.1356316
  50.6568794  43.4034157  43.5538330  49.5621605  44.4486504  43.5460052
  70.8740463  55.1039963  77.9117508  69.9636459  55.2940788  78.1381683
  70.8271332  54.7117653  77.0398636  76.9199829  49.2275734  34.0753479
  77.3934021  48.5762405  34.5929108  76.0144119  49.1622314  34.3784943
  73.5684662  61.6836166  82.5721054  72.9903412  62.2165031  83.1180344
  74.1203842  62.3191185  82.1163101  39.9299202  42.5523529  61.7068977
  39.6163635  42.1797676  62.5309715  40.8839455  42.5117340  61.7733345
  28.8128643   9.2540188  57.5580864  27.9758511   9.5507631  57.2008972
  28.6181641   9.0266266  58.4672699  12.8831596  40.9631500  20.8427544
  13.2743244  40.6176796  20.0403385  12.9572697  40.2466164  21.4730892
  75.4847183  53.7744141  53.3766556  74.7668991  54.3519592  53.1170273
  76.0135422  54.3032722  53.9740601  70.4862289  31.8258839   1.1892382
  71.4294968  31.7224178   1.0636619  70.2582169  31.1669960   1.8450662
  74.1858444  65.4160233   5.2171955  74.4574661  66.2558670   5.5874877
  75.0056610  64.9821167   4.9808321  13.3758850  46.5735626  88.0976639
  13.4096737  46.2740021  89.0061493  13.1381617  45.7932358  87.5968475
  79.0566788  36.0061989  11.9200840  78.1228561  36.2056618  11.8535175
  79.4931335  36.8363876  11.7289886   5.5243597  63.2392159  78.1131592
   5.1335950  63.1740723  78.9845352   6.3996439  62.8652954  78.2146225
   6.1589532  65.4954300   5.7137003   6.3370919  65.5071106   4.7732949
   6.5734782  64.6911545   6.0260186  65.6488800  63.7610893  66.1400757
  66.2117844  63.1922226  65.6149368  65.2993088  64.3956757  65.5145111
  26.4190598  58.1154480  26.0116730  25.8100281  57.8994675  25.3055115
  26.8632545  58.9081573  25.7107830  39.7046127  61.1840363  51.2838669
  38.8623886  61.1384850  51.7364311  40.2341576  60.5001831  51.6939392
  75.2559967  19.0130844  51.5252762  74.6944199  19.7863998  51.4719200
  75.7553940  19.0229378  50.7087326  40.8298874  39.7585678  26.9833317
  40.2568893  39.2286720  26.4291534  41.6109161  39.9048233  26.4496288
  60.4417610  35.3466911  63.1269493  61.1260834  34.8133736  62.7225876
  60.6231804  36.2372017  62.8264389   6.7037811  39.8008652  80.6356430
   6.1602192  40.5819626  80.7389145   7.5878873  40.0933189  80.8571396
  20.4067745  43.5305443  53.1586647  19.8759727  44.3121185  53.0049744
  20.3443031  43.0342979  52.3425331  76.3740387  31.3164310  26.7057056
  75.8891373  30.7907009  27.3418732  77.2073898  30.8572788  26.6010780
  18.8868160  23.5208931  54.9221458  18.8640022  24.4777718  54.9319611
  19.0843334  23.2767353  55.8263626  72.5338364  22.9207726  36.1980858
  72.8441391  23.1960297  35.3354301  72.2128143  23.7254410  36.6051292
  58.7446747  53.8431206   7.1640310  58.1537857  53.8464508   7.9170704
  59.2220955  53.0167732   7.2378559  75.6271515  33.5074921  38.6474075
  76.4992218  33.5669937  39.0375099  75.5217514  34.3303185  38.1698303
  84.4361343  38.2224236  86.3494568  84.5373764  37.9947777  87.2736664
  85.1630249  37.7786789  85.9124680   4.0708280  23.7718239  86.8158569
   4.5262671  24.6080017  86.9139023   4.7657528  23.1146679  86.8540344
  14.8635502  31.6396618  65.4651260  13.9173326  31.7730923  65.5208054
  14.9901686  30.7207680  65.7014160  65.6944580  67.4925690  71.9892273
  65.0812454  67.1458664  72.6373062  66.4202881  67.8395615  72.5078812
  65.3966980  57.2260094  25.2674503  64.4681091  57.2386055  25.0355110
  65.8530807  57.3524170  24.4356022  52.4922485  69.0814209  23.5639477
  52.0960083  69.3790970  24.3828564  53.2498207  68.5646973  23.8383827
  37.7533417  19.9869137   2.3241749  38.1003952  19.2128105   2.7675142
  38.4982910  20.5854473   2.2689829  77.8173981   1.3518883  67.8650894
  77.5518341   1.5324327  68.7668228  77.9442978   0.4035217  67.8381042
  42.1326561  69.3862915  57.0591087  41.7835808  69.2128754  57.9333534
  41.5477676  70.0508728  56.6951561  77.0913391  60.4794388  62.4217300
  76.5323715  60.9438858  63.0446854  77.8098297  61.0868568  62.2455406
  70.2022171  61.8451462  74.7674408  69.9382629  61.2571220  75.4751053
  71.1169510  61.6200790  74.5976410  73.1750412  18.1943378  62.1207428
  72.8579330  17.4951458  61.5490723  72.8535461  18.9995918  61.7152290
  75.9369354  19.2395172  44.6863518  76.6600418  19.8599548  44.5946884
  76.1321259  18.7615986  45.4924088  68.8079224  50.0565147  49.5064583
  69.0762558  49.8892403  48.6029930  69.4151306  49.5399017  50.0362091
  36.3355370  61.9155731  28.5030136  35.8759270  61.2052116  28.0553799
  35.7419662  62.1792946  29.2061176  30.3510628  66.2280045  80.5604477
  29.5778427  66.3650742  81.1077805  31.0037556  66.8335037  80.9120026
   7.0791178  55.9877777  61.1071091   6.7275052  56.2446404  60.2546883
   6.7565632  56.6569557  61.7107582   3.9563622  18.1079674  20.3881035
   3.4196615  18.3238869  19.6254997   3.5304897  17.3411598  20.7713394
  54.9196892  47.5106544  80.2178192  54.7386971  46.8786430  79.5220947
  55.1965408  48.3022041  79.7562637  49.6027298  60.1624260  79.8668213
  49.5166473  60.1777077  80.8200226  50.5351219  60.3097267  79.7081451
  36.7169380  20.5708389  10.0025377  36.9529495  21.4872952  10.1461992
  37.5291862  20.0876980  10.1543999  33.6913681  46.7653580  68.1417389
  34.1648941  47.5814056  67.9802628  33.0510063  46.7155685  67.4320221
  19.6808224  33.4989891  63.3325882  19.6859932  34.3521576  62.8986435
  18.7848969  33.3994446  63.6545181  82.1125336  25.1673279  36.0446548
  81.5785675  25.5199356  35.3327675  82.4950104  25.9391308  36.4621010
  23.5509510  64.4884491  13.0139999  22.6623573  64.8393478  12.9547882
  23.4476280  63.6490974  13.4623756   9.2448692  32.9981041  42.4650497
   9.2412996  33.9021378  42.1504936   9.9639788  32.9668961  43.0960312
  19.1241169  66.9434128  76.3326950  18.5918808  66.6520004  77.0729904
  18.5578060  66.8266220  75.5698853  70.1182938  33.1261292  60.3278809
  69.2098007  33.4024124  60.2072906  70.3193130  32.6151161  59.5438614
   4.3669600  49.3974075  11.7987404   5.1876559  49.8843994  11.7243757
   4.5688615  48.6776848  12.3966246  12.1377983  11.2736521  23.3102188
  12.6506033  11.5094595  24.0833015  12.4221916  11.8913794  22.6365986
  22.1003208  38.4036713   0.2274802  22.2300568  37.7347641  -0.4448038
  22.3684311  37.9792824   1.0424918  63.6455498  44.3567162  23.4508190
  63.3138618  43.5282021  23.1047268  63.9765091  44.8218803  22.6824970
  40.2140732  44.0270653   8.2066908  40.2260895  44.7113342   7.5374675
  41.1373596  43.8662224   8.4013863  82.3107452  25.6058044  80.7453766
  82.3850708  24.7355862  80.3536758  83.1374817  26.0371342  80.5292816
  83.5733566  42.2350502  52.8731651  82.9597321  41.7541084  53.4284973
  83.8460312  42.9809036  53.4075623  45.7342110  43.5762062  59.3392487
  45.5521545  43.1672897  60.1853409  46.5627594  44.0374832  59.4695015
  21.7825451  15.1831036  82.3463974  22.3267250  14.4319563  82.5827866
  21.7647076  15.7238836  83.1360016  47.1443558   6.0065413   7.9562321
  47.4372978   6.9102440   8.0734482  46.7144775   5.7850528   8.7822943
   7.0378594  49.9983253  78.3172989   6.4750657  50.6513672  77.9013290
   6.7455010  49.1630058  77.9526138  51.2069511  22.5176773  82.0498199
  51.4028511  22.0204124  81.2557220  50.3346939  22.8806534  81.8960495
  79.0769806  32.2642326  30.7284813  79.0598145  32.4669800  29.7931576
  78.1584091  32.1287384  30.9610825  47.0789833  20.0896301  15.6034365
  46.8918037  20.5262318  14.7724285  47.9351006  20.4288139  15.8646889
  19.8997574  36.3431168  85.6988678  19.5544281  35.9473343  84.8986588
  19.1353874  36.4414864  86.2665787  62.3221359  54.5960312  15.5365591
  62.1660538  53.8054543  16.0531425  62.0936852  55.3156166  16.1249809
  51.7867775  70.7358704  83.0572891  51.9186668  71.6807709  82.9798965
  51.8119926  70.5668640  83.9991150  85.1981277  41.6049767  70.1136627
  85.0068893  42.5428810  70.1143417  85.0119095  41.3232231  69.2180252
  81.3039398  48.4317589  82.6575928  80.3933868  48.5015068  82.3707733
  81.7420349  49.1774635  82.2474289   6.1980410  57.6097565  44.0304680
   7.1410737  57.5144272  43.8969269   5.8197083  56.8235474  43.6368065
  85.2949295  60.5862312  28.1997833  85.6195831  61.0592728  27.4335823
  85.1650314  59.6897430  27.8904839  77.6802444  26.4118576   4.3348155
  77.9508820  26.8369637   3.5210145  76.7487259  26.2293892   4.2114320
   6.3200426  49.6949120   0.3902154   7.2220712  49.7384262   0.0729098
   6.1906505  50.5199127   0.8580446  25.4245911  29.2747784  68.1417389
  25.1191292  30.1476898  67.8948517  25.1015396  29.1515388  69.0343094
  17.5238056  44.1457825   5.2325439  17.2246284  43.6409988   4.4762907
  17.1307507  45.0104752   5.1140280  66.2482376  19.4220676  38.8961334
  66.0337296  18.5975685  38.4597626  66.5218048  20.0041542  38.1872139
  47.0208931  62.9315033  25.7519722  47.3653107  63.5424194  25.1005211
  47.5471420  63.0942879  26.5347805  61.4826012  34.0323029  81.4542236
  60.8308868  34.5988998  81.8671036  61.1602364  33.1443481  81.6086502
   0.7051110  24.7665119  70.9547424   0.5622671  25.5334949  71.5093231
   1.6182162  24.5251446  71.1103439  83.7735214   6.3817368  61.6946487
  84.7121735   6.1952400  61.6749458  83.6949234   7.2558217  61.3125114
  82.7915878   9.1745176  64.1033478  83.7271652   9.0552855  64.2667923
  82.4351349   8.2862234  64.0930328  15.5153084  28.9560738  17.0707626
  15.3060884  29.5793915  17.7664165  14.9917822  28.1818485  17.2774658
  54.0552940  11.2747679  43.3423347  54.4011002  11.3020573  44.2344704
  53.1066704  11.3421574  43.4510002  18.1445236  55.0439911  26.8633499
  18.3863525  55.3621101  27.7331486  18.2326984  54.0927391  26.9231663
  37.9063835  37.3019371  11.4416838  37.7388573  37.3316345  10.4997263
  38.2282486  38.1776886  11.6554375  54.4937363  18.8120213  10.3354082
  53.8427086  18.1126804  10.3930016  54.9249916  18.6690006   9.4929152
  37.3275528  51.5665703  16.2548161  38.1050682  51.4385567  15.7113848
  37.6388741  52.0780258  17.0016289  28.3548527  54.7041168  25.7911892
  29.2025490  54.5991173  26.2231827  28.5622234  55.1211090  24.9549179
  81.0241623  30.6978321  58.7214737  80.5551910  31.3105240  58.1549911
  81.9470901  30.9245586  58.6073418  79.6883774  63.9499092   5.3844156
  79.8440170  63.1630211   5.9067316  80.3002319  64.5961914   5.7368102
  45.8161545   2.5357778  60.3104973  45.2755699   3.2938299  60.5326653
  45.7972183   2.5001254  59.3541489  48.4324684  12.8715601  82.9472046
  48.6608200  12.3384409  83.7087021  47.4770088  12.8321857  82.9050903
  34.7851944  70.3474274  29.7872238  34.6779327  71.0027847  29.0978470
  34.2616386  70.6791992  30.5166397  52.6028404  58.6793098  57.7958374
  52.2798271  58.3977127  56.9399185  52.8912582  59.5815544  57.6580048
  53.2467003  35.1833153  76.2536316  52.7142067  34.7539024  75.5840912
  53.9006157  35.6773643  75.7591248  67.9265594  28.1965122   0.2745906
  68.4575882  27.9059677   1.0160882  68.5505142  28.2883511  -0.4454637
  51.2497177  66.1786118  27.8163128  51.8114052  65.4965286  28.1844215
  51.8246040  66.9383698  27.7241020  20.6241856  31.5212002  88.0950928
  21.0108299  32.2051849  88.6418076  19.9144077  31.9611816  87.6272659
  75.8371964  51.7762413  23.2841644  76.7306824  51.4459801  23.3781967
  75.3762665  51.4425697  24.0538635  29.6853695  29.7942162   3.8366845
  29.9176521  30.3344498   3.0814204  28.7493610  29.6242161   3.7307639
  84.9873886  41.7258492  39.6918182  85.5735550  41.2896194  40.3101616
  85.2164688  41.3526917  38.8406372  23.1743851  15.9225826  10.5866899
  22.9845753  15.8017368  11.5170660  23.0434303  16.8585930  10.4351339
  58.9060287  32.1367722  57.2426758  58.3932457  32.5700989  56.5603867
  59.7318878  32.6201897  57.2650261  63.7270737  45.2353745  20.8308601
  64.2133636  45.8629456  20.2961502  63.7352829  44.4270020  20.3183231
  27.1877327  51.2699394  26.1991138  26.8751907  50.7219200  25.4792347
  26.8620625  52.1459122  25.9921322  55.1889420  17.4170341  46.5860596
  55.3106384  18.3166733  46.2826309  55.9687386  16.9536304  46.2804375
   5.2668357  61.5025063  39.2042084   5.0172186  62.0140648  39.9737740
   4.7462373  61.8727036  38.4913521  51.3785629  10.5144653  25.1047745
  50.6749039   9.9524088  24.7804489  50.9724388  11.0277948  25.8031921
  53.2212868  57.5145035  53.1951714  53.6238937  56.9057693  53.8145103
  52.4452438  57.0536118  52.8764725  60.2368660  38.2309036  63.2384262
  60.9181938  38.8881111  63.0966568  59.7637825  38.1931915  62.4071617
  14.2532845  70.9377747  46.8186417  14.6808586  71.1004105  47.6594505
  14.9552975  71.0197601  46.1731262  68.2012405  57.7192802  51.8408470
  68.6792908  57.5411148  51.0309334  68.8841705  57.8903084  52.4893799
  52.7531586  31.2625046  58.7912674  52.8114586  30.8600025  57.9247665
  53.5304413  31.8180237  58.8501015  15.8933935  18.1852493  87.2075653
  15.3603745  17.9312859  87.9609756  15.5200987  17.6961555  86.4743042
  53.2887764  20.5006161  29.9423237  52.8330231  21.3373795  29.8509521
  52.7573700  19.8824158  29.4406567   9.2204103  52.1152802  51.3545227
   8.8175631  51.6410942  50.6271324  10.1187983  52.2772179  51.0665855
  41.6242790  26.3939095  88.3308258  41.8632622  27.0111256  89.0223160
  42.4617157  26.0986404  87.9734116  75.5530014  39.3557892   6.9258251
  75.6835556  40.2497787   6.6096401  75.3744659  38.8459396   6.1356297
  22.6151009  27.6081791   2.8049064  23.5469170  27.4415092   2.9469285
  22.5545902  28.5579319   2.7022326  69.5628128  30.5164642  64.4253922
  69.6233749  31.2604542  63.8261871  68.8402252  29.9907684  64.0822449
  50.7583961   2.3345313  61.1905975  49.8649063   2.0024879  61.1031151
  50.7811623   2.7347045  62.0598373  81.6029892   3.8287597   0.5245203
  81.4161682   2.9954336   0.0922034  82.4980850   3.7342288   0.8502411
  32.0040512  69.3447647  26.5105572  32.9204216  69.1284103  26.6828613
  32.0390205  70.1771011  26.0391617  34.7462997  60.6431427  67.8015442
  35.4833908  61.2476158  67.7146988  34.4602623  60.4834480  66.9021454
  28.6493225  19.5288296  71.6017151  28.9033718  20.0179062  70.8190918
  29.3757515  19.6583881  72.2114258  31.0205402  64.3218079   8.4488392
  30.5181847  63.9879417   7.7056003  31.4797153  63.5549736   8.7914076
  80.6064529  29.7426758  34.5212364  81.5622864  29.7283707  34.4720879
  80.3735428  30.6616039  34.3887520  39.9761772  39.8882332  51.6806679
  40.3714676  39.9196968  50.8094711  40.7165070  39.7680550  52.2753944
  15.6902866  51.9063454  79.0053635  16.0277138  52.7385521  78.6739960
  14.8031092  52.1088028  79.3022842  40.1347618  24.7850151   1.1490127
  39.7452164  25.4259930   1.7436841  39.7447128  24.9806919   0.2970706
  63.9377365  13.5024576  77.9912186  63.5072212  13.2086048  78.7940521
  63.2495384  13.4748240  77.3264999  44.4949760  20.2258358   8.3517208
  43.7840004  19.8191738   8.8470707  44.1817856  20.2354431   7.4472589
  80.7639084   3.6641855  30.7991982  80.7565994   4.4069862  30.1955204
  80.7488632   4.0626140  31.6694050  62.4130669  38.9112740  60.6600914
  62.9413452  38.2630424  61.1258659  62.2591553  39.6023636  61.3042488
  79.3858414  34.1866264  58.9371033  79.1720886  33.6373596  59.6913223
  80.3284760  34.3364296  59.0093727  77.0996323  66.4726257  13.3266077
  77.6700363  66.8956680  12.6848040  76.5561600  65.8784103  12.8091364
  16.4195919  15.2196550  11.5348587  16.3840275  16.0307884  12.0418386
  15.5510912  14.8318272  11.6422243  83.4317474  30.1882477  15.7382641
  82.7735672  30.8529778  15.9411411  83.7291870  30.4073696  14.8552303
  18.1059780  47.0622826  67.3566589  17.5287189  46.5958519  66.7521362
  18.5302372  47.7289047  66.8164291  24.1142483  26.4633179  52.7878418
  23.5392361  26.8645840  53.4394379  24.6577778  25.8559074  53.2896996
  81.0391083  19.6825581  47.0006332  81.8932953  19.5052776  46.6067276
  80.7808228  20.5310631  46.6406860  14.3363466  53.3328552  87.6380386
  15.0380554  53.6547737  88.2039032  13.9634705  54.1225052  87.2460480
  21.1679935  44.8047485  59.2344017  20.2803917  44.4497833  59.1854706
  21.7095585  44.1589661  58.7806358  44.3094902  29.1969280  81.2702179
  43.9331169  29.4363995  82.1171036  45.1138954  29.7123756  81.2112503
  20.8452740  64.7606201  51.5179024  20.3983784  65.4017868  50.9652519
  20.7746105  65.1170883  52.4034386  65.3491058  26.7350082  71.2888107
  65.2923813  27.4351692  70.6385880  66.0632935  26.1779385  70.9792404
   1.4494263   8.4872532  59.3411102   1.8495674   9.1329079  58.7586594
   0.9283394   7.9319429  58.7611694  41.7796974  60.5736465  64.7933960
  41.9178314  60.3600235  63.8706169  41.1535072  61.2974930  64.7805328
   7.5424743  35.7366447  51.5725784   8.3220272  35.8871994  51.0379181
   7.8055997  35.0576363  52.1938210  84.4220734  64.7464828  48.7797585
  84.1695404  63.9115372  48.3856468  85.0835342  65.1013489  48.1858177
  77.3718719  14.5732765  10.9863853  77.6020584  14.0054350  10.2509937
  76.8127213  15.2483454  10.6018543  55.9650841  27.9408226  23.8813496
  55.0105362  27.9074211  23.9442291  56.1668739  27.4920979  23.0602779
  76.5967026  27.1380081  13.0125685  76.8513107  26.6541958  13.7982712
  76.0340652  26.5322781  12.5301104  61.3899078  25.0596008  49.0418282
  62.1802711  24.5370407  48.9058380  60.7291031  24.4260864  49.3215256
  35.1289291  33.3929901  65.3438492  34.7945862  34.2770233  65.1924210
  34.6827736  32.8531532  64.6913452  42.0069923  13.1395283   3.2145138
  42.3454170  13.2013330   4.1077552  41.0698471  13.3142843   3.3008204
  75.2986679   8.5905170  28.6158276  74.8264236   7.9419909  29.1379700
  76.0932388   8.1378021  28.3330956  84.3323135  20.8195057  49.5435028
  83.6472168  20.9655724  50.1958351  83.8566818  20.6177864  48.7377014
  79.5497971  11.7494516  21.0069065  80.3806000  12.1204805  20.7096958
  79.8021774  11.0261374  21.5807991  47.1667557  14.9300385  72.8083878
  47.2782898  14.0350904  73.1291122  47.9130821  15.0704050  72.2257004
  26.6001797  67.5174637  14.0666218  25.9894791  68.2472458  14.1700726
  26.7666111  67.4760818  13.1249113  81.6144638  54.4275436  86.8121414
  81.2278290  55.2965775  86.9194794  81.7413483  54.3368301  85.8677368
  83.5531998  25.5512943   5.2018738  83.9394989  25.5830650   6.0770841
  82.6101532  25.5010796   5.3579917  84.9519119   4.8516626  20.3356228
  84.4113007   4.4961076  21.0409927  85.8512573   4.7410278  20.6441135
  19.5116520  10.1841698   7.9504404  20.2952118   9.6403608   8.0312920
  19.1905212  10.2764063   8.8474350  21.3179150  69.6861877  16.0609055
  22.0598373  70.2388763  16.3065071  20.5494804  70.2377853  16.2074795
  77.5828171  27.6307907  64.4771423  78.1265564  27.3678341  65.2197266
  76.8313522  28.0708561  64.8744812  66.0908432  52.9872589  38.1041870
  66.3412170  53.3722610  37.2643547  65.1461868  52.8503113  38.0327606
  72.1072464  45.2828789  84.9331970  72.9209976  45.7248268  85.1755066
  71.8164978  44.8572578  85.7397614  40.1049309  10.5531139  81.5948334
  39.2777939  10.9134989  81.9145203  40.6086349  11.3185587  81.3180542
  78.7262955  30.1841469   9.0398769  79.2725601  29.6438808   8.4689646
  79.2246857  30.2518215   9.8542814  43.4008102  32.2633209  86.3590469
  43.9369583  32.2335014  87.1514359  44.0310669  32.2042007  85.6410522
  36.6511192  62.6999855  67.9396591  36.4396744  63.4169426  68.5375748
  37.2258110  62.1266899  68.4468994  72.2127228  64.8493118  73.5780106
  72.7751160  65.6168747  73.6818619  72.7705841  64.1997833  73.1500702
  75.9010849  63.8609581  32.7486267  74.9742889  63.8157959  32.9836655
  76.2423782  62.9900208  32.9516373  80.5224838  25.1510906  27.9473877
  80.6177444  25.4017887  27.0285263  79.6282578  24.8159580  28.0127525
  28.1628838   6.7202339   8.7850666  28.3072376   7.6655302   8.7425404
  28.7434502   6.4205189   9.4845982  73.4549103  55.5848045  26.4040527
  73.1909637  56.4455299  26.7291870  72.8651199  55.4150543  25.6695023
  20.2521496   4.1388936  27.0250034  20.8235302   3.7545135  27.6898403
  20.8514404   4.5582452  26.4075680  23.3658619  39.3928108  60.4146652
  22.6124191  38.8196907  60.5563927  23.9460506  38.8889580  59.8439217
  79.9781189  36.2022324  47.7293434  80.4561920  35.5377235  47.2332458
  79.2958984  35.7130661  48.1892586  26.7508850  14.8568583   8.3265142
  25.8053799  14.7096853   8.3021402  27.0218143  14.8260088   7.4089751
  63.7592087   0.3876220  86.6569443  63.5681190   1.2918473  86.4077606
  63.3404045  -0.1415076  85.9780807  46.8764992   0.8442359  79.9685364
  47.7388878   1.2337087  79.8242264  47.0350266   0.1356647  80.5922546
  23.9509468  25.7988853  80.2412415  24.1183090  25.9718990  81.1676788
  24.2121830  26.6049805  79.7960510  63.3207932  66.4758224  21.0328770
  64.0110703  66.2448730  20.4112530  62.5087280  66.2222748  20.5941334
  23.5918789  68.3249664  50.8959732  23.5272522  67.6800842  50.1915741
  23.4006195  69.1619415  50.4727364  81.9137268  22.6658287  15.7680864
  81.7858887  23.3708382  15.1333799  82.1467133  21.9045105  15.2367249
  36.4422073  48.3006668  18.1501484  35.8232689  47.5788651  18.0399380
  37.2983475  47.8759613  18.2038422  57.6406021  66.9906998  63.9322052
  57.3226585  66.1646423  64.2965775  57.6023521  66.8647461  62.9840965
  41.0634689  36.4842300  72.6742783  40.5931358  37.0314255  73.3032455
  40.3774033  36.1138000  72.1190109  18.4005680  28.7600594  62.7759666
  17.5696716  28.8357716  62.3068047  18.7880936  29.6334667  62.7192574
  45.8006020  52.7988281  74.1181259  46.0316887  53.6493835  74.4914703
  45.1070824  52.9942970  73.4880066  68.7333069   5.6883864   6.7223978
  67.9686890   5.1830854   6.4462438  69.4652557   5.2934728   6.2485600
   7.0066357  15.3830872   7.5091152   6.5228863  15.6166105   8.3013811
   7.9096107  15.6404333   7.6952357  35.1540871   0.1685551   6.1746888
  35.4092216  -0.6635908   5.7763538  35.9651031   0.5142787   6.5474596
  81.6090546   3.7681117   6.3747897  82.2378464   4.4884996   6.4182673
  81.7011185   3.4231062   5.4866867  37.5139008  22.5357227  12.4383917
  38.3936691  22.2788639  12.1622334  37.1260109  22.9362335  11.6603394
  42.4924889  44.7821770  64.6839218  41.8606644  44.2201271  65.1324005
  42.8792458  45.3117142  65.3812332  48.9341583  48.5093155  61.4790154
  48.8883591  49.0788956  62.2469444  49.8557014  48.5288734  61.2209282
  33.1553955  36.5671654  68.3365173  32.4483566  36.1568909  67.8385162
  32.7446251  37.3218765  68.7583084  53.3668213   6.3093872  46.0003967
  53.8298798   5.7290606  46.6045723  54.0087662   6.9830103  45.7759628
  18.9170685  55.5709381  69.0492706  19.8407326  55.5613403  68.7983093
  18.7230816  56.4937630  69.2135620  62.9325371  41.6168098  74.5582123
  62.8436241  42.2439499  75.2758636  62.0797653  41.6276894  74.1235962
  58.6510239   5.4619188  88.9815369  57.9103889   5.6280785  89.5646973
  58.2644691   5.0273857  88.2212753  24.3044968  31.6576080  82.3034973
  25.1608315  31.8605022  81.9269943  23.6994095  32.2477112  81.8541946
  56.1668167  39.3149834   2.1617923  56.3356781  38.8056602   2.9544506
  57.0130882  39.7050438   1.9429095   8.5963955   4.6879945  55.8521423
   8.2592344   3.7998772  55.7346611   7.8662844   5.1723213  56.2376251
  60.3181458  51.7421036  10.1738491  60.7846222  51.0470619   9.7095766
  60.9330864  52.4755135  10.1875534  42.2301025  52.6055603  28.7860584
  42.5792770  53.4942207  28.7182865  42.8299065  52.0721321  28.2645969
  74.8161240  32.3943062  48.2042847  74.2639084  32.7571449  48.8968430
  74.2967072  31.6813622  47.8326035  84.6811829  49.3307457  62.1848640
  84.9825974  50.1648483  62.5449371  85.4585266  48.7722435  62.1912079
  15.9919643  67.3692856  35.5501785  16.2591972  67.6522675  36.4246712
  16.1037731  68.1462708  35.0024223  34.8266563  70.3398361  68.0932922
  34.0791130  70.0403824  67.5758514  35.5440750  70.4038467  67.4628601
  62.9418335   9.1577435  63.7280464  62.6761131   8.9315081  62.8367310
  63.7765541   9.6137524  63.6206703  26.7460995  28.0337563  58.5677490
  26.2095833  27.2410660  58.5729370  27.5492077  27.7764435  58.1149368
  40.3516960  10.3648052  69.2104950  41.2091293  10.1301079  68.8555908
  39.9170609  10.8323364  68.4972305   7.1965952  51.8499756   6.8800235
   6.7087669  52.4283180   6.2937002   7.2666326  51.0252380   6.3992553
  66.9419861  42.5771942  69.0622406  67.0077133  42.9757652  69.9300232
  67.7310715  42.8676758  68.6048660  67.6254730   0.0715665   1.0854678
  66.7059402   0.1793071   1.3285464  67.8085022   0.8116453   0.5066630
  53.2299271  45.8941460  84.5686417  53.7608452  45.1030579  84.4762344
  53.1168671  46.2126808  83.6731033   3.7911046  67.7015076  29.0319252
   4.2798676  66.9757996  28.6437283   3.8732462  68.4126434  28.3965034
  19.2837830  70.2494812  68.0769501  19.5558567  71.1189194  68.3706894
  20.0062084  69.9453430  67.5275574  76.4166260   8.3383818  64.9566498
  76.4825439   8.7838955  65.8012848  76.6306839   9.0132961  64.3125229
  76.1150970  10.1179810   6.4558959  76.7409210   9.4569159   6.7518167
  75.9147720  10.6268148   7.2415099  22.6954556  66.5423126  -0.1498960
  22.7875767  66.4046936   0.7928696  21.9991703  65.9404449  -0.4128965
  11.2759876  42.6075287  19.1785660  11.8274660  42.0318336  19.7083569
  11.8934059  43.0970001  18.6350155  65.4762192  22.7422562  40.7410316
  65.9897766  22.2411499  40.1074829  64.7404785  22.1700897  40.9590569
  83.6842041  19.1357765  80.0626755  83.1951599  19.4797573  80.8101654
  83.4788361  19.7356186  79.3455658  47.5529060  21.3124123  84.2788391
  47.0992508  20.9796886  83.5044174  47.5305176  22.2641373  84.1790924
  75.0620804  17.8840351  78.9607010  74.3575821  17.6850739  79.5774155
  75.8380890  17.9926701  79.5104675   7.1253376  18.1318035  31.6651325
   7.7430387  18.4644451  31.0139580   6.5393348  18.8687096  31.8377628
   8.3116627  26.0031090  12.9893951   7.8665051  25.7454338  13.7966566
   8.6646729  25.1852779  12.6390133  69.0298920  56.1018410  59.5767632
  68.3161316  56.3172340  58.9764481  68.6020279  55.9829216  60.4247169
  67.9251556  39.1474762  72.4558334  67.8711777  39.6135902  71.6215286
  67.4001923  38.3580780  72.3235626  25.0356293  59.2828827  88.2128067
  24.7564983  59.8236046  88.9516754  25.1608925  59.9039726  87.4953156
  27.0979710  15.0184689  88.5724945  28.0145607  15.0416670  88.2976227
  26.7421360  15.8613472  88.2911301   2.7958105  41.7309647   1.3442732
   2.6413045  42.2087135   0.5293402   3.2179191  40.9173050   1.0685666
  35.8958740  58.6887894  57.3423119  36.0759773  59.3563156  58.0042801
  36.0645714  59.1269951  56.5081940  57.2019424  47.0088692  52.5450478
  56.4611130  47.2061539  53.1181793  57.0094528  46.1387138  52.1957474
  54.3602867  64.1508942  18.5590363  53.6010742  64.4895172  19.0335560
  53.9863815  63.6724014  17.8191204  68.2391586   7.5801425   4.7313404
  67.5184555   7.1592636   4.2626367  68.2277603   7.1774278   5.5996275
   1.1528257   2.2513106   8.5504026   0.3063160   2.1121974   8.1257849
   1.2419947   1.5139019   9.1541491  80.0799866  65.2303162  82.5685959
  80.4140930  64.6126022  83.2190094  80.7903595  65.8608322  82.4500198
   6.4236717  61.3303185  64.5409470   7.1725297  60.7373695  64.4788437
   6.5080624  61.7330246  65.4052048  14.9634724   5.2345114  79.5860062
  14.5702028   5.9886279  79.1468277  15.0110760   4.5604854  78.9080276
  69.4030304  27.2962341  72.3629150  69.1829605  27.5276546  73.2652740
  70.3599319  27.2790012  72.3466339  72.5672455  35.6946182  45.1269150
  72.7437439  36.4209061  44.5289345  73.1431808  34.9915962  44.8264351
  55.9806938  35.6909981  78.0478821  56.6682205  35.4721527  77.4188766
  55.4248466  34.9122238  78.0757523  65.7355042  39.8515129  53.2454567
  66.1064758  39.0268097  52.9316559  66.4728851  40.3063469  53.6524315
  15.7763939   6.4910979   8.3900986  15.7952547   7.3489347   8.8143539
  15.0823898   6.5631819   7.7348170  80.6309052  12.6610918  16.4269886
  80.4937439  13.6034603  16.3302364  80.0559006  12.2667847  15.7711563
  16.2933025  64.5750885  16.9413204  15.7213221  64.3571625  17.6772385
  16.9396763  63.8693275  16.9231701  56.0592308   3.9829516  22.5714626
  56.6801300   4.1342936  23.2840710  55.6251411   4.8271790  22.4486713
   9.5994692  65.2391434  14.5179749  10.0623217  66.0277405  14.2349310
   9.9812326  65.0303650  15.3705597  55.3901672  38.2759590  78.2358093
  54.4836044  38.5657272  78.1337585  55.3285294  37.3255196  78.3311768
  54.2085991   6.4523787  36.9788818  53.8210716   7.3198524  36.8625069
  54.3542061   6.3796806  37.9221458  58.3690643  12.8181677  89.2614670
  59.1518707  13.2517157  89.6012955  58.4976578  12.8005161  88.3131104
  70.2243195  42.1905403  76.9257660  69.7622528  42.7983360  76.3484344
  69.7681351  41.3569794  76.8104248  86.7505951  27.8051338   5.2749672
  87.3313293  28.4837475   5.6191483  85.8845139  28.0392246   5.6086464
  62.1835823  68.4095993   6.0031576  62.1475258  69.1197052   5.3623071
  62.2429848  67.6133423   5.4752588  28.0271473  35.5987511  14.6729012
  28.5533104  35.1567955  15.3392801  27.4905758  36.2203445  15.1647816
   2.7629914  33.2049332  50.0711479   3.3518379  32.5723648  50.4826698
   2.1300333  33.4231834  50.7552261  37.2749290  31.1360264   2.6876802
  37.5686760  32.0385704   2.5637276  38.0498734  30.6047001   2.5049539
  81.6265259  68.3820114  36.3172874  80.8562393  68.0819092  35.8347588
  81.3978577  69.2647095  36.6084595  61.9715347  67.2512207  26.2323837
  61.5081520  67.5507965  25.4502296  61.2786827  66.9537735  26.8220520
  48.2650452  21.7169247  11.8878450  47.6221199  21.1341686  12.2919197
  48.7285843  22.1112328  12.6266842  86.1924896  44.8308830  56.4760742
  86.1148376  43.8814316  56.5695877  86.9899902  44.9564743  55.9618263
  29.6812553  53.0401649  76.7811203  29.0211163  52.4457016  77.1375885
  29.5441322  53.8613358  77.2534637  47.3510399  35.4766121  80.0053024
  46.9216614  34.8598557  80.5981598  48.0658226  34.9744873  79.6139145
  11.6444550  11.6496143  76.7051086  12.4048538  12.0667906  77.1100693
  11.0037575  11.5807962  77.4129257  10.5373993  51.0554085  10.2796440
  10.5875225  51.9864388  10.4962130  11.0966740  50.9583359   9.5089169
  37.0203705   3.8866174  67.6780548  37.8020401   4.4085579  67.4969406
  36.5125923   3.9266021  66.8676300  23.1025372  69.5997086  85.9529114
  23.2054176  69.2927017  86.8536911  23.6294327  68.9938965  85.4317474
  47.3328438  62.2732086  79.5391464  47.9062767  61.5267601  79.7129898
  47.9163017  62.9475098  79.1911011  37.9150276  32.8175926  78.5076141
  37.9514236  32.1070137  79.1479187  38.1256256  33.6042709  79.0106277
  54.2342300  57.6925354  85.8121033  54.6878204  57.6297226  86.6526642
  54.4703445  56.8871994  85.3517609  46.7263680  68.1493225  66.3832703
  47.2097702  67.7880630  67.1262665  47.3040161  68.8243866  66.0271149
  53.9989700  61.4265671  58.3685036  54.5355530  61.1843872  57.6137466
  54.2621422  60.8144722  59.0557556  30.1931839   6.1487789  77.7663269
  29.7577076   6.1688700  76.9141617  29.5880737   6.5996494  78.3552170
   7.5558696  37.1154404  11.3972645   8.3226509  36.6776047  11.7668295
   7.2586846  36.5303917  10.7003918  79.0360031  32.6713600  27.7305832
  78.9349289  31.7976322  27.3529415  78.7618561  33.2669067  27.0331593
   6.0586519  16.2852497  18.6775036   6.3734388  17.1707897  18.4959583
   5.4380140  16.3946781  19.3979664  79.9804840  52.7174454  59.6522369
  80.2836838  52.3845253  58.8075676  79.5256500  53.5322990  59.4392204
  39.5670815  46.5876579  38.5759506  40.0895844  46.1099777  39.2201920
  38.7980614  46.8834610  39.0631218  29.2358494  29.5818195  12.6058226
  29.8951454  28.9097061  12.4331255  29.7424164  30.3752041  12.7794952
  58.0462532  49.3427124  80.1965866  58.2144623  48.4176598  80.3760834
  58.7741356  49.6144218  79.6374893  22.6581879  56.5103683  61.2660751
  21.9006157  57.0812225  61.1378555  22.9584026  56.7065086  62.1535606
  60.3387985   2.7444358   0.8641627  60.3180161   2.4972525   1.7886628
  59.4632149   2.5333693   0.5400647  10.1528902  18.1104755  26.9423084
   9.8862514  18.4924908  26.1061287  10.4513359  18.8566933  27.4622345
  78.1519852  67.4566269  25.8971882  77.8721237  66.5929871  25.5938015
  79.0146484  67.3066940  26.2839108  80.0966721  45.0000114   7.8603425
  79.6882935  44.3707047   8.4548407  79.3844757  45.5872841   7.6071324
  10.1761446  12.8076506   8.5284767   9.9286928  13.1614656   9.3827686
  11.1292000  12.7284241   8.5689869  75.9203873  21.1959763  76.9298325
  75.3596497  21.3395367  77.6921997  76.6167450  21.8466740  77.0187683
  83.6021500   4.3816872  29.9582615  84.0351944   4.6579027  29.1505413
  82.6674042   4.4351683  29.7592373  52.1852837  62.1646309  84.0238876
  52.2744064  62.2871208  84.9690323  52.6821785  62.8875122  83.6407852
  57.6983147   0.1058424  57.0404053  58.6424446  -0.0204617  56.9460526
  57.4172134   0.4523345  56.1935539   1.1620914  70.2831421   4.1833277
   1.2895073  70.8269348   3.4059672   0.8072365  69.4610443   3.8450003
  56.8176498  15.7562532  76.7155075  55.8692627  15.8635683  76.6428604
  56.9583511  15.4754705  77.6197128  50.7801971  32.3301353  17.5475368
  50.7120667  32.3021355  16.5931759  50.2714348  33.1001358  17.8014889
  64.8884048  65.8787766  74.6110687  65.8437729  65.8197250  74.6163940
  64.5952530  65.0531311  74.9965439  44.8541069  60.7096138  74.9541931
  45.1355171  60.4020882  75.8158646  44.2760315  60.0188141  74.6303787
  28.3435707   4.1075063  79.9678345  28.2905312   3.3535573  79.3804855
  27.6696949   4.7076850  79.6485977  48.6562958   8.4103222   7.8122897
  48.8381119   8.8421640   6.9776125  49.3388901   8.7311754   8.4016523
  57.6092529   6.5132151  38.8708725  58.2874298   5.8411903  38.9393616
  57.5111008   6.8462248  39.7628937   7.5277820  41.6855927  28.2475433
   8.1520157  41.0869637  28.6576748   7.7031331  42.5324707  28.6577644
  33.1217003  45.9071884  54.0079346  32.4526901  46.3387413  54.5393677
  33.9480820  46.1279755  54.4375572  73.5586243   3.5958321  83.7567215
  73.6744156   3.6822469  84.7029495  72.7509232   3.0914764  83.6593399
  80.0774155  29.7531528  20.0851536  79.2633438  29.9973469  20.5254860
  79.8031921  29.1575031  19.3878498  61.0998383  59.2397842  60.0175972
  60.2877426  58.7733994  59.8195724  60.9437332  60.1331673  59.7114487
  65.9752197  14.3145714  13.3101473  65.4070969  13.7362280  12.8012390
  65.3884430  14.9925528  13.6452093  58.3193474  52.1444893  27.5665531
  58.9129524  51.4380035  27.3121185  58.4626808  52.2507477  28.5069752
  40.4452629  63.2995262  88.2333069  39.7856750  62.8847237  88.7892914
  39.9570808  63.6021652  87.4675903  84.7182999  12.7535343   9.4456215
  85.2270737  12.9078989  10.2415819  84.5062408  11.8205538   9.4740753
  44.4094963  39.8505745  75.3825607  44.1271820  40.6299210  74.9038620
  43.6429176  39.5933647  75.8948364  71.5043945  19.8852749  31.0555897
  72.1151810  20.0089207  30.3290329  71.8349457  20.4591713  31.7466831
  52.3863716  68.3373413  76.5980530  52.0284233  67.7056046  77.2217636
  51.6449776  68.5674133  76.0380173  23.7092495  31.3780022  62.9415512
  24.6018353  31.1319027  62.6987419  23.1529751  30.8949146  62.3304749
  30.1143398  64.9718170  37.2999420  29.6890373  64.5029678  38.0179443
  29.4539623  65.5945740  36.9961205  46.4761200  43.8124847  68.8140259
  47.3274841  43.4696922  69.0858765  46.1426201  43.1625061  68.1955261
  28.6113663  63.1409645  28.4129391  28.9140720  64.0459595  28.4877014
  27.7046280  63.2155037  28.1154461   5.0324988  35.7237587   4.9242349
   5.2127438  36.3663712   5.6103773   4.3550763  35.1593094   5.2966981
   4.6256948  56.8845291  83.8846817   4.9542632  57.5573006  84.4810486
   3.9271929  56.4506035  84.3746185  72.0336761  29.3158875  58.4560776
  72.0005264  28.4809990  58.9230804  72.0772247  29.9758205  59.1480484
  69.3721695  70.1135712  23.4101048  69.1637497  69.4305420  24.0474873
  69.3042526  70.9307480  23.9039116  39.5049171  45.0035896  29.3666401
  38.6349487  45.2434349  29.6857986  39.3360672  44.4367256  28.6140518
  74.9604950  27.6669941   7.8896232  74.3508530  27.3987579   8.5770969
  75.7223816  28.0019417   8.3624563  17.4614334   0.6338370  39.8019638
  18.3589916   0.9388057  39.6692390  17.4904652  -0.2979213  39.5846710
  44.4907379  46.3539276  14.7502136  44.9451599  45.7238312  15.3094177
  45.1867943  46.9120941  14.4035330  79.0525436  46.1181870  30.4944172
  78.1153412  46.0539055  30.3107204  79.2498703  45.3358955  31.0095005
  71.7831802  60.6379089  69.7341080  72.1194077  61.2094841  70.4243851
  72.5192337  60.5315857  69.1314926  30.6151905  54.5157051  47.7947922
  30.4911366  55.2911110  47.2474442  30.0551720  54.6677895  48.5560265
  17.3040142   4.0720448  83.4844894  17.9625206   4.6203079  83.9111176
  17.1236076   3.3775721  84.1180496   6.2595282  45.7919540  34.2716103
   7.1783447  45.9026604  34.0271683   5.8125520  45.6069984  33.4456367
  53.9233856  46.7987671  27.0660801  54.5191956  47.3908539  26.6070824
  53.1005707  47.2844200  27.1239643  22.9169426   1.4518518  34.5479851
  23.6002865   1.4388614  33.8778305  22.6866436   2.3766284  34.6373291
  70.4586105  24.9918022  28.3296757  69.7357712  24.3690853  28.2524586
  70.1990738  25.7296467  27.7778969  23.1089458  45.2854347  87.5158386
  22.3988895  45.2938347  88.1576920  23.6404362  46.0502968  87.7366028
  79.8434982  26.3963413  73.1655807  80.2140274  26.5259037  72.2925720
  80.5522156  26.6325722  73.7640457  42.6835899  39.2234955  52.2808800
  43.5510979  39.2280502  52.6854057  42.8577538  39.2572365  51.3402634
  44.9167213  49.1656036  81.3410721  45.3947372  49.8460350  80.8670044
  44.8991508  48.4215965  80.7390976  77.0958023  25.5006924  60.8611336
  77.5817642  26.3003426  61.0627022  77.6382675  24.7953835  61.2139893
  36.0122414  38.3098221  75.2284393  35.8807983  38.8750992  75.9896393
  35.5773697  38.7699051  74.5104980  58.0502472  41.2932930   3.9452198
  58.3138695  40.8798447   3.1231508  58.7870407  41.1409950   4.5369735
   1.8146276  54.7615128  42.4151649   1.2667539  55.1828690  43.0773773
   1.3151668  53.9904709  42.1463432  58.4657974  31.5682163  51.7768860
  57.6599464  31.6501007  51.2668571  59.0832253  31.1420307  51.1824226
  75.4840088  68.9488831  38.3283195  74.9154205  69.6248932  37.9595947
  75.4934006  68.2569275  37.6669998   4.6574059  14.6707802  20.3607311
   5.2224174  14.2661896  19.7024765   4.9345608  14.2778778  21.1884060
  29.9872456  41.5194664  16.7259560  30.4899311  40.8551331  17.1973381
  30.2889423  41.4501610  15.8201923  56.6572304  54.2260742  78.3457184
  56.9709816  53.6819725  79.0680313  57.1969986  55.0154114  78.3884506
  81.6067886  38.7320404  79.3555069  80.6750717  38.5808525  79.1964874
  81.6407623  39.5863075  79.7859802  66.1267548   6.0674996  46.0663185
  65.9236755   5.6835980  46.9193230  66.2497406   5.3147125  45.4880333
  51.4538574  32.6411896  30.7529526  51.2184563  33.3968658  31.2912598
  52.3619461  32.8029213  30.4971294  78.2683029  17.8484707  83.7232590
  78.3186340  17.2503853  82.9776077  78.7542343  18.6236267  83.4417648
  39.8263054  47.4365540  53.8794899  40.1945267  47.0483971  54.6732025
  40.2818451  46.9944229  53.1630859  81.3634186  40.6446991  60.8433685
  82.1460953  40.3059578  61.2779961  80.7791290  39.8892326  60.7792778
  53.1398659  31.8234501   2.5516505  53.9932137  31.4113712   2.6866140
  52.5184402  31.0954361   2.5593112  24.9100628   6.5351272  18.4392681
  23.9993458   6.2592211  18.5427227  25.0288124   7.2206144  19.0967159
  83.1104431  65.7273560  70.8428726  82.7989349  64.8376236  70.6768112
  83.6253891  65.6547470  71.6464844  70.4609528  36.7682152  80.0241013
  70.4462051  35.8343811  79.8144073  69.5957642  37.0855064  79.7652512
   5.6937127  25.9702148  60.6924782   5.0719924  26.5740681  60.2862053
   6.2423849  25.6683903  59.9685364  68.7769318  71.0493164  33.3126755
  68.0290756  71.6449051  33.2656517  69.5411835  71.6155319  33.2052002
   9.7259674   2.5438886  65.2426529  10.0458946   1.6962074  65.5513840
  10.5176964   3.0268645  65.0057297  86.0206375  12.4569588  77.3744202
  85.3432312  13.0246248  77.0068512  86.7453690  13.0487299  77.5764313
  77.6101913  16.6666088  27.5452347  77.6749191  15.9344082  26.9321098
  77.0519791  16.3396206  28.2507210  55.0322266  53.2506218  86.2880707
  54.2063828  53.7042770  86.1195297  54.8474884  52.3335876  86.0852203
  50.1375580  42.8549118  73.0742188  49.7778091  43.5283813  73.6514969
  50.9193077  43.2568512  72.6953430  47.0341187  61.3410530  29.3371220
  46.7279053  60.4546432  29.5288239  47.8157501  61.2134132  28.7995453
  58.7773666  20.3710823  48.2248306  58.4511986  21.2470226  48.0184898
  59.5895271  20.2938328  47.7241707  71.1702347   4.5047727  14.0829592
  71.5857239   4.3427682  14.9299259  70.2628860   4.2248931  14.2038555
  85.4111786  36.8912582  15.2785616  86.2402191  37.3432045  15.4356174
  84.8896637  37.5158310  14.7744217  86.3246918   9.2427368   1.1748768
  85.4572296   9.6196966   1.3220276  86.3783493   9.1284170   0.2260440
   7.4880595  14.8136597  63.5054207   6.8348031  14.6327906  64.1812744
   7.8104734  15.6907959  63.7125740  69.4433670  30.2040710  79.1854782
  68.8092804  30.6227436  78.6033478  69.9609985  29.6406727  78.6102753
   7.1549106  62.5803223  36.9710464   6.7777047  63.1082382  37.6747894
   7.4110217  61.7619781  37.3964348  74.2639542  10.9657087  27.9023609
  74.7911682  10.1892853  28.0906162  73.3647919  10.6956768  28.0889874
  40.6411324  31.5693512  78.2420807  40.2238197  30.7498398  78.5075684
  39.9182434  32.1918831  78.1638870  66.5301971   0.0984459  71.3011475
  66.0756073   0.6189551  70.6388397  67.0572510  -0.5221339  70.7978287
  75.5882568  -0.3149807   7.2462282  75.4115677   0.4969946   6.7711411
  75.3272018  -0.1266920   8.1476889  80.5016785  39.6415672  89.2291412
  81.0537109  40.1701775  88.6528931  80.8505554  38.7540054  89.1470261
  54.2159309  59.7980957  50.1619263  54.1625328  60.7167549  50.4254570
  54.8350945  59.7939262  49.4319611   2.7137594  20.3470287   3.2889476
   2.7518222  21.2540836   3.5923212   3.2254279  19.8574181   3.9329267
  73.3526001  30.5428200  68.7832413  73.6226501  29.6335106  68.6549454
  73.0281906  30.8195114  67.9262466  81.5028763  40.1323853  12.7810965
  81.4506531  40.7835541  12.0814657  81.6350861  40.6466217  13.5775328
  81.0863342  19.7945042  78.3642273  80.7402802  20.3430252  79.0682144
  80.8880692  18.8991890  78.6386948  76.7128754  19.5247517   5.9016509
  76.4811859  20.3952446   6.2253680  77.3018799  19.1704273   6.5678039
  30.0411797  61.9102783  62.3750458  29.0952930  62.0288239  62.2885666
  30.1408176  61.3109283  63.1146965  79.5165634  15.6882448  19.3519688
  79.3655014  15.2008228  18.5421333  80.4250717  15.4940605  19.5824757
  12.7897396   9.3274698  20.7862530  13.0750675   9.4483528  21.6919041
  12.1677904   8.6009502  20.8260288  57.1267967  12.5137119  83.5901337
  57.9899368  12.5682278  83.1799545  56.7978630  11.6497135  83.3420563
  43.4863243  51.2811546  12.7073488  44.1253891  50.9226799  12.0914564
  43.6649284  50.8256302  13.5300465  28.1330643  65.8808975   0.2613990
  28.3047886  64.9970322   0.5862507  28.7866573  66.0150146  -0.4249400
  56.3321075  54.3476639  57.1151619  56.6929436  54.6524086  57.9477234
  57.0893974  54.0152054  56.6332703  53.5340385  66.4581146  65.8063049
  53.3360405  67.1824188  66.3999481  53.6853447  66.8772736  64.9591675
  11.0910234  44.2558899   8.5273008  10.7387619  44.5162354   7.6762047
  11.5503244  43.4339218   8.3551378  69.0110626  27.4195042   9.5565882
  68.6243820  27.8420525  10.3235035  69.0764160  26.4959354   9.7994576
  10.3954439  62.8313408  46.1406708   9.8131933  62.3498077  46.7283287
  11.2738886  62.5331383  46.3765564  17.2986851   7.3463774  11.9801941
  17.1417675   7.7444396  11.1239491  18.0666885   6.7903929  11.8487272
  14.4915648  21.4632530  74.0749283  14.8700504  21.1148548  73.2677155
  14.6522493  20.7823162  74.7281799  80.6497574  26.9783707  88.9770279
  81.3043747  27.0317383  88.2807007  79.8745880  26.6141491  88.5496140
  44.0218506  60.7636375  30.8229485  44.1680717  60.7445068  29.8771763
  43.9898453  61.6949883  31.0415668  41.2151070  13.8215446  61.4986801
  42.1049576  13.9984217  61.8038216  40.7512627  14.6500483  61.6197624
  52.8125153  47.9524307  65.7175598  53.4411621  47.3967896  65.2567978
  52.3132668  48.3781395  65.0205994  37.1767960  56.8122902   2.8417349
  36.6245537  57.5929832   2.8838880  36.6221123  56.1081314   3.1774786
  57.0808601  53.3714142  45.1104889  56.7470741  54.2529907  45.2767410
  58.0183907  53.4317474  45.2938576  83.0085526  14.8290443  24.9861736
  82.9806900  15.7847795  24.9411564  83.1077347  14.6359682  25.9184380
  26.4655590  22.9964657   6.4395390  27.2465534  22.6217060   6.8467689
  26.5027485  22.6981983   5.5307565  81.4877167  10.5439539  67.2948761
  80.7680969  10.4930096  66.6657562  81.0787201  10.3651400  68.1416168
  63.5054436  59.3643379   7.0505252  63.3358269  60.2491417   7.3739238
  63.1964836  59.3771019   6.1446486  73.1993027  17.0834522  28.5088348
  73.4274521  16.3165169  27.9834919  72.2438660  17.1255627  28.4688244
  62.2412567  61.0154381  18.3876114  62.2537155  60.6200142  19.2592278
  63.0070190  61.5895996  18.3741188  76.5826187  52.5706329  59.7054558
  77.2772675  51.9143066  59.6513443  75.9409027  52.2947197  59.0509987
  13.3683796  44.3025246  71.5605240  12.6692619  44.7538414  71.0874786
  14.1488724  44.8318977  71.3967438  -0.1220162  43.0287819  73.8568268
   0.7914523  42.8794937  74.1007919  -0.0741482  43.4802704  73.0141525
  20.8513374  45.3694992  28.4734039  19.9238415  45.4259987  28.7031670
  21.2713032  46.0460892  29.0045204  41.9688187  44.6246567   5.1856084
  41.2128448  45.0726814   5.5650907  41.6682472  43.7272682   5.0421662
  80.4441376  62.0730476  76.7537308  80.1203842  62.3328705  75.8912277
  79.6635056  61.7814980  77.2247314   7.7996850  43.7118645  44.5887909
   7.6647725  43.2197113  45.3986130   7.6932330  44.6280441  44.8447456
  63.0666428  53.4813080   4.8858085  62.7392044  53.9774551   5.6360416
  62.2840157  53.0908661   4.4968524  21.5758266  28.0851040  78.3593292
  21.4818649  27.9292202  79.2990646  22.5014114  28.2998543  78.2435303
  79.1092072   8.5741520  87.5576477  79.4082642   9.2077503  86.9054642
  79.6442719   7.7964787  87.3990173  64.0907059   0.7235565   9.1919365
  64.6481476   0.8474765   9.9601374  63.2369232   1.0648875   9.4579830
  46.5902328   3.0479023  26.9088879  46.5878639   2.1168764  26.6865883
  46.3988762   3.0707657  27.8464870  48.1027946  42.7655296  35.9483452
  48.6565590  43.0112267  36.6894341  47.6634789  41.9641380  36.2329483
  68.1552811  27.4055157  19.3168411  68.3246765  28.0182724  20.0324306
  67.8384171  27.9555988  18.6004353  79.6004562  40.7307663  58.1148911
  79.9530945  40.7098312  59.0045166  78.6526337  40.6651573  58.2313499
  34.3758087   1.2532914   0.4450603  34.5724297   1.6798337   1.2791071
  35.2239265   1.1809944   0.0072197  24.8126163  64.8357697   8.5042019
  25.7016926  64.8958664   8.8537216  24.8384361  65.3461533   7.6948366
  29.1497860  10.0838661  80.6057892  28.5435810  10.8094664  80.4566193
  29.9109306  10.2924538  80.0641403  45.5279236  69.8988800  81.6185989
  45.5417709  69.0038223  81.9575806  44.7072487  69.9570389  81.1293793
  86.3943710  21.1341534   4.5156417  85.5201721  21.5234928   4.4951220
  86.8563995  21.5441742   3.7844448  39.7082024  26.7919617  58.8067398
  39.5406570  27.1928329  57.9538269  39.1147575  27.2455788  59.4053116
  46.8229256  30.5863953  81.2314148  47.2294655  30.6529331  82.0954361
  47.5182343  30.8296585  80.6201782  86.8339157  28.8820457  61.0446968
  86.3581848  28.3394012  61.6735420  86.7815704  28.3964443  60.2214813
   4.8629174  29.1844616   9.5847025   4.1442986  29.7652798   9.3347654
   4.4327297  28.4333248   9.9933147  29.4237041  52.2792130   8.0389061
  30.0111427  52.1199722   7.3001299  29.9322681  52.8288383   8.6351490
   7.8317490  22.9035568  78.7453537   8.1219406  22.5793743  77.8927536
   7.0831509  23.4656792  78.5457230  54.8673935  43.8130608  20.7996368
  55.5887794  43.8037910  20.1705532  54.6485977  44.7395515  20.8995247
  10.7936773  12.2735672  12.4714260  11.3749142  11.5612011  12.2051001
  11.1067247  12.5260849  13.3400278  11.0641766  23.3016567  80.6247253
  10.7436142  23.4838676  79.7413940  11.9123640  23.7432175  80.6675415
  32.9409218  62.0924454  19.6605549  32.1555290  62.0428810  20.2054729
  33.5198097  62.6939278  20.1288891   0.8670949  64.1677780  46.0781937
   0.9415302  63.7789116  45.2067146   1.2587907  65.0364075  45.9871292
  42.1884880  42.4081764  45.7780495  42.0536385  42.7001915  46.6795883
  41.9101639  41.4923363  45.7787666  82.3691254  32.2011337  76.2050552
  83.3053131  32.0164566  76.1296539  82.0152054  32.0023499  75.3381882
  68.3300858  33.5851021  38.9502068  67.9694901  34.3089447  39.4623070
  68.2061386  32.8145523  39.5043907  52.6567039  36.0325890  71.8950348
  51.8341942  36.2035027  71.4362335  53.3363190  36.2409859  71.2539978
  24.8419743  59.9872131  78.7941284  25.4363308  59.8897057  78.0501785
  24.3585911  60.7927361  78.6105270  86.5197449  18.3011570   4.2185488
  86.1153946  18.1439381   3.3653104  86.7064972  19.2399349   4.2257633
  22.0824356  51.3051453  20.8846283  22.8412399  50.7367630  21.0164967
  21.9337406  51.7084160  21.7399025  48.2364693  50.3296852  44.2098083
  48.8470421  50.6338539  43.5383034  48.3661041  49.3817749  44.2397232
  75.7972717  50.3220825  10.2425804  75.5410385  50.1819801  11.1541433
  76.7535019  50.3584862  10.2654638  30.7441750  28.2917862  66.3898773
  31.4922428  28.8259239  66.6569443  31.0134907  27.9010181  65.5586166
   0.2744579  34.6482964   7.2456450   0.6349089  33.9691620   7.8158073
  -0.3656421  35.1046371   7.7917724   2.5191844  53.5992775  87.5177689
   1.5892051  53.4729042  87.3296127   2.9226196  52.7570000  87.3079071
  70.2711411  44.9008865  28.6558723  69.4480972  44.9496307  29.1421375
  70.3494339  45.7551765  28.2312660  74.4294891  49.0740395  35.3164711
  73.6946487  48.6837463  35.7896767  74.3524323  50.0128326  35.4866371
  47.6935196  47.8200378  42.6927910  47.4423332  48.6266289  42.2427368
  46.8896561  47.5236168  43.1196060  75.3022842  30.0988693  13.7107954
  74.9771729  30.9722481  13.4922981  76.2377777  30.2244148  13.8699093
  73.2389908  56.4934998  30.2944717  73.7109985  56.5090103  31.1270561
  73.1201553  55.5630379  30.1038132  70.2286758  57.1071320  31.3996410
  70.1209030  56.7698784  30.5103283  69.4704742  57.6758080  31.5336647
  43.6841087   3.9863369  61.8588676  43.9711227   4.8674316  62.0987129
  43.8355141   3.4626403  62.6456642  58.4966431  17.5785046  54.4684105
  58.3914490  18.2669411  55.1250839  57.7732620  16.9746075  54.6365089
  35.6342697   6.1610694  73.1376724  35.4161949   6.4267802  74.0310211
  36.0198174   6.9430423  72.7425766  75.9418793  15.1929016  34.5486717
  75.8344269  15.6295424  35.3936768  75.0793381  14.8241529  34.3582230
  80.1009140  43.8609238  20.4751663  80.0461502  44.7718086  20.7641621
  79.3764954  43.4236908  20.9226894  11.5720425  43.7626648  75.9489136
  11.6719084  44.7144089  75.9698486  12.2772007  43.4355049  76.5074387
  28.6257172   9.6858912  86.6296997  28.0715542   9.0653839  86.1563034
  28.1254807  10.5019770  86.6298828   5.1551471  27.3768215  14.3500996
   4.6274824  27.3028545  15.1452913   5.8814659  27.9492989  14.5970030
  69.2518005  24.5244923  88.5369873  68.6635056  25.0476837  87.9925461
  70.1169662  24.6552410  88.1488724  31.6048965  26.8794823  61.7184105
  32.4641457  26.8975887  61.2969933  31.1255436  27.6038151  61.3161774
  56.8621178  39.2760162  70.8080902  56.0675774  39.0081902  70.3463516
  56.5628891  39.9290848  71.4407043  60.2094421  46.3991356   0.8318345
  59.9859772  46.6570168   1.7261453  59.6718864  46.9652176   0.2779239
  67.6960983  28.2166195  11.8674364  67.4748840  29.0496025  11.4509830
  66.8501740  27.8287621  12.0915136  85.5690079  68.6108780  71.4424362
  85.9398651  68.1818466  70.6713104  86.1950302  68.4273911  72.1428986
  28.1865425  34.6469498  83.6505432  27.4707928  34.0382462  83.4677429
  27.8440380  35.5032654  83.3943329  49.4507637  25.7628250  13.5176334
  48.6702080  25.6963406  12.9675903  49.8290100  24.8836365  13.5039434
  43.5224380   3.7368650   4.6759043  43.8853722   3.2875450   5.4392004
  44.2861328   4.0941315   4.2227311  84.5568085  28.8070087  88.4676285
  84.6665344  29.4736156  87.7895203  85.3985443  28.7877483  88.9229889
  18.8458042   0.6492520   5.9608450  18.3918266  -0.1929333   5.9314890
  18.1847401   1.2669207   6.2734332  59.3113861  47.0997047  39.7744179
  60.1404800  46.6434097  39.9180679  58.6854095  46.4027977  39.5776825
  13.9133806   7.8698373  14.6771631  14.8541603   8.0449638  14.6548958
  13.5090189   8.7368822  14.7080841  34.1787148  45.6106758   6.3784409
  34.6546097  45.8935509   5.5975814  34.6741295  45.9819641   7.1084709
  18.6869793  62.9499702  10.4739761  17.7481155  62.8346596  10.6204901
  18.7674789  63.8368950  10.1230965  80.8777084  22.4468040  46.9389114
  80.4536133  23.0596504  47.5395699  81.7996902  22.4588737  47.1958847
  63.8733253  45.9655685  41.3246460  63.6640244  45.6288490  42.1958809
  64.4056702  45.2784195  40.9238167  86.1897736  40.8609772  79.1017075
  86.0548553  41.6096077  79.6827240  85.8369980  40.1148567  79.5865631
  31.2461243  64.9163742  78.1809616  30.8012543  64.0778580  78.3043289
  30.8716068  65.4871979  78.8518753  46.0094566   4.8213601   3.7454934
  46.9235802   4.5740571   3.8849504  45.9841957   5.7599616   3.9315627
   7.3831320  48.5813141  44.2896385   7.9711328  48.6267204  43.5356979
   7.4876833  49.4267349  44.7261772  25.2350903  34.3921127  83.3561707
  25.2811985  35.1935806  83.8774796  24.4160786  33.9771423  83.6268158
  47.4116135   5.7725916  60.1384430  47.8382530   5.3531852  60.8856430
  47.1349373   6.6271358  60.4692535   5.4887385  27.8940086  37.3312798
   5.1343918  27.4840965  36.5422058   4.9466014  27.5527859  38.0425377
  23.1619053  66.9417572  19.2549686  22.3870354  67.4778976  19.4233780
  22.8123646  66.1064148  18.9447174  30.2197819  23.8805656  40.9997292
  30.6368370  23.9466858  40.1407051  30.8620930  24.2482433  41.6067543
  54.4476357  39.8592491  83.8448944  53.5011597  39.8840141  83.7041779
  54.6522789  40.7037773  84.2462997  71.7311935  26.1234589  76.0435333
  72.3841476  25.7331352  75.4625626  72.0504532  25.9322472  76.9254303
  55.9053116  20.1013355  70.9490509  56.6967697  20.3266716  71.4379807
  55.7436943  19.1829338  71.1650391  83.7470703  53.5573196  75.0431824
  84.0219574  53.9187355  74.2005386  84.4164276  52.9065208  75.2544861
  85.7675552  28.9038849  16.9702034  85.8432465  29.2875481  17.8438778
  84.9530106  29.2645645  16.6199760  60.5419350  43.9473839  37.5360336
  61.0355415  44.4730644  36.9065552  60.6207733  44.4256248  38.3614426
  74.9560623   2.1326337  67.2754364  74.5373001   1.8793697  66.4528046
  75.8834763   2.2198932  67.0551605  54.5821877  60.2652321  21.3680248
  53.7972832  60.6881561  21.0197525  55.0519409  59.9568405  20.5931320
  61.4212303  51.1626015  41.7598572  60.5814056  51.6203651  41.7970161
  61.3537331  50.6006012  40.9879570   6.5316200  20.9165726   8.5752163
   6.1506600  20.0411186   8.6436596   5.8225274  21.4601688   8.2318192
   9.2769003  56.7514687  50.4798088   9.2714176  57.5530357  51.0029640
   8.6090574  56.1972961  50.8836746  47.4858246  11.6984959   7.3733368
  48.4362373  11.7905350   7.4402103  47.1416283  12.5356960   7.6845546
  45.9360428  51.1167526  87.9397736  46.8459206  50.8216553  87.9754105
  45.5189400  50.5312691  87.3077393  44.6989250  35.3063622  88.8662949
  44.2159500  36.1003113  89.0956726  44.6808243  35.2830009  87.9095535
  29.1987400  19.6412392  89.0615768  28.9000874  18.7928753  89.3891678
  28.5972633  19.8468647  88.3459091  84.7419968  57.2567024  16.7711792
  83.9612198  56.7307472  16.5979939  85.2974014  56.6913490  17.3079662
  48.8160667   4.9988079  62.3328247  48.7777672   5.0572214  63.2874756
  49.7195778   4.7450113  62.1444511  67.5950928  68.5112915  33.0653877
  68.0916519  69.3278351  33.1193466  68.2507935  67.8454819  32.8580360
   7.0349674  58.3679237  89.0004196   7.0375996  57.4281425  89.1821823
   6.1828918  58.6702766  89.3147125   4.5227952  58.1485977   0.7171282
   3.9965425  57.4847298   1.1627421   4.0624771  58.9710312   0.8842753
  77.5862656  62.6417274   8.5166836  77.4022675  63.5587349   8.7203360
  76.7573776  62.2998238   8.1815872  25.8083572  54.4594078  68.6431580
  26.0540009  54.8143463  67.7888107  25.6967926  53.5212059  68.4896469
  53.4682388  70.4119034  56.3671646  53.6955376  70.9592209  55.6154900
  52.9935150  70.9986725  56.9558601  32.3747330  57.7720070  47.6303520
  33.2648582  57.4337730  47.7278519  31.9310722  57.1243744  47.0826569
  80.3815994   9.9473667  22.8643513  81.0336151  10.5665464  23.1925678
  80.6787186   9.0951700  23.1832752  67.6499252  45.7791748  86.2305527
  68.1233292  45.2151337  86.8420944  66.7547226  45.8009377  86.5687332
  68.4869232   5.9990621   9.3595638  68.7123795   5.9409337   8.4311113
  68.4623108   6.9384513   9.5417023  57.8297920  34.8666916  59.2998810
  58.2226028  35.5532799  59.8388824  57.6493874  34.1544037  59.9133415
   6.2638106  36.0935707  59.4336052   7.1882677  36.2377930  59.6356201
   5.8426442  36.0058594  60.2886810  56.2983475  60.8143806  11.0408278
  56.4749031  61.7380486  11.2194214  55.4573746  60.8153152  10.5836658
   4.6900206  34.9457550   9.1979046   4.7635455  35.6093254   8.5119734
   5.0557408  34.1533432   8.8047590  79.2912750  61.8969498  39.8639297
  79.0976791  61.2396812  39.1955376  79.0066986  61.4949379  40.6846848
   2.8849342  28.4636726  74.1524734   2.8055141  29.4053955  74.0005417
   3.1169930  28.3891335  75.0781174  79.1533203  10.4397783  65.4878006
  79.8373337  10.9326906  65.0345993  78.4737320  10.3096218  64.8264008
   2.9247246  66.1190186  38.0998650   2.1542222  66.0198212  38.6590729
   3.3904755  66.8713074  38.4650688  37.1225624  51.6434212  28.4351158
  37.0717125  50.7044945  28.2560520  37.9918938  51.7678909  28.8159065
  58.4443550  48.6040688  61.6614532  58.1085968  48.2809944  62.4975891
  57.8981514  49.3643227  61.4616890  70.0823898  59.8887138  76.7089691
  69.9904785  59.6163902  77.6220016  71.0066528  59.7426643  76.5073471
  15.3928404   8.6386786  10.1864071  14.5290937   8.2650766  10.3613234
  15.5536613   9.2262096  10.9247675  37.8452339  53.8981705  31.5380535
  37.2761841  53.3179398  31.0323391  38.5432281  53.3279037  31.8602810
  63.6853867  36.0064735  15.5368080  63.9509506  35.6197319  14.7024574
  63.7552261  36.9507027  15.3961411  23.6708012  54.7184181  42.4737167
  23.0675411  55.3070831  42.0200844  24.4442863  55.2550507  42.6468658
  64.0857162  50.2174683   8.9540367  65.0204391  50.1632195   8.7550688
  63.7333107  50.8092957   8.2893677  16.2178879  66.9355545  20.2057972
  15.6787529  67.7253647  20.1637974  17.0676098  67.2068481  19.8585110
   1.0006342  70.8089600  41.8520737   1.1503739  69.8943939  42.0916214
   1.7795736  71.0567093  41.3539734  79.5270386  70.7413635  33.5245705
  78.9042130  70.8758774  32.8102684  79.4601746  71.5363235  34.0535355
  11.4751549  22.2168961  10.4043255  11.4084654  21.5630531   9.7084274
  10.8482103  21.9264450  11.0667524  77.0700455   1.5311258  81.9549103
  76.3903122   1.2775859  81.3304825  76.7076187   1.3003864  82.8102722
  17.1579361  20.5706768   0.9618727  16.7539101  20.6343975   0.0964622
  17.4838314  19.6718712   1.0084617  10.7859259  55.1963730   0.8118112
  10.7202225  54.3987579   0.2867153  11.6576586  55.1532669   1.2048182
  12.0864410  63.5555687  13.3724871  13.0160036  63.4607849  13.5802412
  11.8189363  64.3528671  13.8296318  31.5779400  64.2958908  27.9266205
  32.2235146  64.9844284  27.7673054  30.7711067  64.6284103  27.5333252
  64.3720322  69.1901245  42.3924904  64.1960983  69.0044937  41.4700928
  65.3141785  69.3554382  42.4280701  65.1949234  19.2391281  11.9773941
  65.5286331  18.4286652  11.5926609  64.3806534  19.4111938  11.5045414
   9.7499189   0.5218785  47.5173950   9.0039263   0.5917569  46.9217110
   9.5086937   1.0646466  48.2680283  55.8040733  62.6621208  35.9241676
  55.6946373  62.7455177  36.8714294  56.1351395  63.5158310  35.6452293
  69.2835770   6.6360040  61.7536545  68.7187576   5.8634629  61.7732544
  68.8243561   7.2821255  62.2901955  56.3954773  15.4887714  11.5440426
  56.0149460  15.9871054  12.2672939  56.9699287  16.1122913  11.0996809
  56.4693909   1.8590945   9.9425631  55.9273796   1.3777454   9.3174572
  56.0152206   2.6933610  10.0607100  80.7520370  23.0342369  31.9943657
  81.4219666  23.1864662  32.6608963  81.1365967  23.3739262  31.1863060
  49.4805107   0.7561727  81.5063171  49.9268761   0.2543159  80.8243103
  49.0556145   0.0940763  82.0515900  47.4992790   1.6157687  15.9625673
  46.7527313   2.2047734  16.0719910  48.2537613   2.1986389  15.8774137
  65.8038635   2.8103724  58.6539383  65.3372345   2.2562668  59.2796021
  66.0811844   2.2095978  57.9622765  25.5089779  52.4240303  64.8618011
  25.8600178  51.5559616  64.6631622  25.1681099  52.7416267  64.0256348
  58.3457108  20.5540524  32.2065201  58.4643326  20.3478241  31.2793598
  57.4231682  20.7980366  32.2814903  49.4762001  19.0179901  75.2054291
  49.3986015  19.6730804  75.8990173  49.3886185  19.5173035  74.3934937
   7.3969221  15.5086288  49.3107605   7.2386408  15.2816095  48.3944397
   7.0155959  14.7839289  49.8063698  21.4932518   4.4105282   9.7762651
  21.6856327   4.5804400  10.6984100  21.8839474   5.1495523   9.3099699
  78.7854538  50.2447586  36.8577843  77.8746414  49.9999084  37.0212059
  79.2479706  49.9943848  37.6575470  49.7757492  26.2498360  65.5457306
  48.8303833  26.1039925  65.5810928  49.9143600  26.7246208  64.7262192
   4.8216853  55.5566673  32.9782867   5.4827523  56.1192970  33.3816109
   4.9479427  54.7033768  33.3932381  59.7828598  69.3335876  28.6443501
  60.6757507  69.6436310  28.4931679  59.3186264  70.0977402  28.9861069
  70.8800583  32.0173607  74.9203339  71.2962494  31.3636093  75.4821320
  70.1436157  31.5551758  74.5199890  65.7681274  39.3480873  80.2461548
  65.0563507  38.8548584  80.6539993  65.9741898  40.0375023  80.8774033
  22.5403233  63.3065033  28.8603897  23.1666832  64.0133438  29.0161991
  21.6829185  63.7253380  28.9356918  42.6202164  63.2365799  45.5813065
  43.4128761  63.2987099  45.0483322  41.9487076  63.6820183  45.0646858
  50.0870438  34.0612450  78.8377380  50.3346596  33.5204926  78.0877380
  50.8539124  34.0423012  79.4102631  38.4703865  22.4770336  66.1627045
  38.6667747  21.8385162  65.4771652  39.2198868  23.0723915  66.1573181
  41.6051788  61.6459961  36.2198639  40.8340302  61.8490753  36.7493210
  42.3384247  61.7045631  36.8323555  15.7548618   9.7347403  81.1204987
  15.5008564  10.2909784  80.3840790  16.6841183   9.5560493  80.9763260
  12.9040518  49.8006020  71.6620560  13.2004528  49.0511932  71.1455688
  13.5704851  49.9017181  72.3416672  23.5159855  28.4793816  84.0427322
  24.4218864  28.2859058  83.8015976  23.5652943  29.3137188  84.5092926
  55.7035370  69.3951416  28.4003448  55.9152870  69.2026672  29.3137703
  56.0644569  70.2688141  28.2497864  32.5702248  33.8452072  88.4848785
  32.3947830  33.7090149  89.4159546  31.7177830  34.0675888  88.1105499
  68.9201736  62.7567749  69.1494370  69.7697067  63.1713066  68.9988251
  69.1271057  61.9526596  69.6256866  79.8105927  32.4480667  56.8946457
  79.5927963  33.2450066  57.3780518  80.6100082  32.6687851  56.4166832
  57.2806931  30.1244183  58.4166603  57.6040192  30.9513359  58.0590286
  57.6155128  30.1039810  59.3131599  83.8988724  56.7467155  58.8890533
  83.3677368  57.0257339  58.1432114  83.6964493  57.3801384  59.5775528
  81.3657227  37.1284294  73.6573639  82.1781616  37.2469559  74.1494217
  81.5727463  37.4370956  72.7752686  24.1016541  22.0382271  88.9803619
  23.3787746  22.4558029  88.5120544  24.1104469  22.4651585  89.8370285
  76.1112823  63.9051933  73.1735840  76.0385895  64.6673355  72.5990524
  76.0869064  63.1546249  72.5800476  34.8265724  59.7535782  27.1490803
  34.7897835  58.8149223  27.3329449  35.2576065  59.8139343  26.2965546
  33.0142746  71.5308838  25.1280308  33.2456131  71.2698288  24.2366486
  32.4109840  72.2651672  25.0136070  30.9623241   5.4352388  59.8162842
  31.0405407   6.3236551  60.1638947  31.3279953   5.4904294  58.9334106
  64.4495697  43.4288177  89.0192261  64.2168274  42.5022202  89.0781937
  63.6395950  43.8931274  89.2303925  42.8966408  29.7860909   7.7538605
  43.5210419  29.3431149   7.1792898  43.3565331  29.8682365   8.5893145
  36.4869576  53.7739830   9.8084240  37.2355194  53.5373840  10.3560648
  35.9988785  52.9572067   9.7040682  12.9021749  66.3831635  71.0639877
  13.6775970  66.6806259  70.5881042  12.9401426  66.8494568  71.8990707
   6.3940520  40.1381721   5.1830878   6.5300231  39.6963196   6.0212460
   6.9619555  39.6703682   4.5708165  73.3833160  38.0188637  88.8530579
  73.8745728  38.8396988  88.8865967  73.9143677  37.4442673  88.3016434
  46.4715157  40.0895920  76.8665619  47.1960030  40.2884560  76.2734299
  45.6882439  40.1645966  76.3214951   2.0253627  29.5798969  42.8022041
   1.8670923  29.3549652  41.8853683   2.9362798  29.8732014  42.8230553
  49.5526428  10.9781446  88.3643646  50.4995079  11.0055056  88.5019302
  49.4381218  11.2037230  87.4412003  30.9263554  41.7754936  69.0059357
  31.8783131  41.8726997  68.9822388  30.6484375  42.3185043  69.7435913
  35.7478256  14.1919336  69.0571365  35.1019058  13.7074423  68.5430450
  35.7879028  13.7256861  69.8921432   2.0607507  12.2788343  54.7704391
   2.3419919  13.1870394  54.8813438   1.1253802  12.3397360  54.5765190
  64.4484863  45.3112831  84.2192612  64.8043747  45.1133995  85.0855331
  65.0362015  45.9789619  83.8656769  58.2279205  54.9361610  61.2832870
  58.1513367  55.2487869  60.3818245  58.3193474  55.7327423  61.8060951
  84.2703400  43.5117836  78.4164276  84.5486526  43.7299995  77.5269547
  83.5963287  44.1595497  78.6221924  32.8546371  62.7631798  68.1899872
  33.0834732  63.1215019  69.0475769  33.5112457  62.0851364  68.0307465
  60.1081963  66.2825546  53.9257774  59.2952690  65.9067230  54.2636185
  60.1507988  65.9838333  53.0173798  53.1923828  57.4616928  39.6963768
  53.6092873  57.4249420  40.5572319  52.8095856  56.5923424  39.5783310
  50.7283096  34.0097618   2.6802611  51.1582031  34.8443680   2.8669550
  51.4319649  33.3624382   2.7257833  58.5339355  42.9832039  35.2646103
  58.0960541  42.6429901  36.0448341  59.4672165  42.8731537  35.4465637
  67.7749710  29.9925652  69.3008499  68.1491852  30.7953587  68.9379196
  68.0797043  29.2999287  68.7146530  33.1627235  34.8240509  71.0966263
  32.5409775  34.2998924  71.6015244  32.7862396  34.8610611  70.2173538
  29.4977322  17.1693439  13.4188337  29.3884315  17.8825359  12.7898321
  29.7418537  16.4138069  12.8842325  50.6958122  22.6174316  75.8778229
  51.4348679  22.0930252  75.5695572  51.0192833  23.5182228  75.8646698
  28.5401878  42.5705147  49.5428810  28.0777988  42.2371407  50.3118324
  29.2334557  41.9299393  49.3838959  72.1048355  45.2136612  24.0214329
  71.4010773  45.5388527  23.4599972  72.9087296  45.4459839  23.5566673
  61.2522278  28.5448895  30.7173367  60.7569923  28.2139740  29.9680233
  60.6409950  28.4892139  31.4518604  37.9239082  28.5526733   5.0387588
  38.6519012  29.1741352   5.0319796  37.1400261  29.1019173   5.0291009
  84.6928024  61.0095901  69.4392014  84.5166168  60.8124962  68.5192337
  83.9238968  60.6820793  69.9058304  -0.1530652  29.1526260   0.8044357
   0.3742051  28.9684372   1.5817984  -0.0884833  30.1008091   0.6903722
  65.9440308  49.2682076   5.8155127  65.4209595  48.7163544   5.2340655
  65.3075180  49.8515701   6.2287498  65.4144363  69.3891602  15.2791691
  65.5730515  69.9737778  16.0203094  66.2751465  69.2739410  14.8765078
  12.3494816  58.3868294  77.9297409  11.9529524  57.7036476  78.4703522
  13.2799568  58.1634865  77.9059143  41.9675598  16.7714348  88.8555374
  42.4381905  15.9935694  89.1549683  41.0498962  16.5886211  89.0573044
   8.6774626   3.6262534   1.1882590   8.9995518   3.3833761   0.3202145
   8.4595757   4.5551682   1.1116146  84.3068390   2.1833408  34.6827774
  84.6340256   1.6132035  35.3785667  84.9466324   2.8936698  34.6344757
   0.9467228  33.3663521  41.2867126   0.5766318  32.5136909  41.5152512
   1.0320792  33.3427238  40.3336182  67.4987869  40.4071121   9.6301346
  66.7333984  40.8148422   9.2249441  67.4846191  39.5038261   9.3137465
  81.5697403  23.6012211  83.9215775  82.2524261  23.9962978  84.4638824
  81.2527466  24.3197842  83.3743973  60.4088669   6.2448931  35.5791817
  61.1641541   6.4478688  36.1310692  59.7174721   6.0077238  36.1972084
  63.2142830  31.1204700  20.0268002  64.0337753  31.1333370  19.5323372
  62.9700737  32.0422707  20.1097050  80.6304169   6.0120044  32.5677338
  80.3009567   6.5620446  31.8570004  80.4209595   6.4993143  33.3645325
  47.4684677  68.6910248  57.0209961  47.8403053  67.8432236  56.7776756
  47.6238060  69.2484131  56.2584915  20.1271305  61.2883377  19.1509686
  20.0717907  61.9555473  19.8350773  19.9788704  60.4616432  19.6101227
  13.1237030  29.8655510  14.6195698  13.0805702  30.6441631  15.1746674
  12.8347893  29.1507015  15.1868019  66.5799255  57.4831009  78.6903381
  66.6410675  58.3728523  78.3427124  65.6408691  57.2990875  78.7136917
  17.2164040  42.9907494  22.4309998  17.1408329  43.9397659  22.3315659
  17.1417179  42.6498375  21.5396900  76.5831299  41.3495598  43.7295799
  76.9799805  40.4883080  43.8599167  76.1558380  41.5450706  44.5635071
  24.5704041  51.9120102  67.7708969  24.4929657  50.9613609  67.8515320
  24.5995693  52.0707703  66.8274002  67.2898178   0.8780344  53.4520645
  66.7923813   1.5616698  53.0032539  67.6464386   0.3387634  52.7462006
  41.9846573  46.7051735  87.6404343  42.5050201  46.9877319  86.8883591
  42.0946999  47.4048729  88.2842865   5.2960968  32.0557938  15.7469997
   5.4233427  32.6482353  15.0060186   4.3494148  31.9194260  15.7848015
  64.9290390  46.6898155  33.3497505  65.5058060  45.9418831  33.5051880
  64.7917480  47.0707283  34.2170982  25.2283344  60.0607986  22.7708549
  25.6928864  59.9344788  21.9435310  25.1186028  59.1768494  23.1213188
  39.2532425  65.3164139   7.3064537  38.5142250  65.7382355   6.8681049
  39.1398544  64.3837967   7.1231623  20.2862930  27.0262184  12.9641008
  20.9896431  26.6314964  12.4486151  20.7034168  27.7593460  13.4166098
  43.3821106  22.9780598   5.0858216  42.9984894  23.7846699   5.4299831
  42.6465302  22.5151005   4.6847968  56.4605331  66.4936523  51.9777069
  56.4967270  65.5479965  52.1214066  56.7032928  66.8736801  52.8220291
  80.2450485  28.8163795  76.1363220  80.8697815  28.1903954  75.7701416
  80.2060699  28.5989056  77.0676727  30.4746552  66.1729279  87.7905655
  30.7838020  67.0775681  87.8383636  31.0494881  65.7570114  87.1480637
  43.1469727  42.5331116  71.3697052  43.6595039  41.8588676  70.9236832
  42.6357269  42.0533905  72.0214157  30.8455162  53.1414680  53.5577965
  31.7023182  53.2841949  53.9599800  31.0060024  52.4867668  52.8782043
  14.3917265  18.3587456  61.6111870  15.2833185  18.7057514  61.5814781
  13.8533783  19.1040802  61.8774376  72.5957108   4.6765676  59.8130608
  72.1729736   3.8189788  59.8585434  73.3923645   4.5242424  59.3047600
   7.4807467  67.7141342   7.5095139   6.7670751  67.3043594   7.0206470
   8.0905008  66.9982834   7.6883616  22.9492702  70.9122314  50.4370537
  22.0822144  70.5758133  50.6634750  22.8956242  71.8513260  50.6144257
  38.9502296  65.9952087  87.6587067  38.5830956  66.1017838  88.5362549
  38.8357353  66.8510590  87.2456207  50.6473083  12.8420286   5.4499774
  51.2665138  12.2248421   5.0602345  50.6945076  12.6672935   6.3899088
   6.9586568  23.5485497  64.3884277   7.5960269  22.8356686  64.4307327
   7.4528494  24.3272018  64.6447678  71.9147034  40.0607605  75.1792755
  71.1043625  39.7848587  74.7509613  72.2292328  39.2746964  75.6258240
  68.4614639  55.0112305  55.2605553  69.2743225  54.5553131  55.4787903
  68.2331390  54.6895447  54.3884201  13.2768602  39.9113731  18.5464325
  12.4854116  39.4639549  18.2469978  13.5893354  40.3863831  17.7763977
  37.1824532  28.5087986  64.3024597  37.9643898  29.0572796  64.3654938
  36.8008575  28.7323761  63.4535637   2.7002027   7.1181650   5.1289473
   3.4793110   6.5656052   5.1913953   1.9877453   6.5646472   5.4487190
  79.6572571   0.7612514  20.2964516  79.2503052   0.5292152  19.4617157
  80.4619751   0.2435887  20.3226814  61.4472351  59.4150352  36.5476685
  61.3344383  58.4706001  36.6551361  60.5648041  59.7738495  36.6414642
  13.8266964  22.6129284  21.8281689  14.4521866  22.9499550  22.4695797
  13.1166868  23.2548885  21.8258095  43.6174583  50.1223221  49.5610428
  42.7304153  50.4530449  49.7025185  44.0713387  50.8373146  49.1149368
  52.6465721  69.1973572  26.5500622  53.1931763  68.6555481  27.1191864
  53.2254333  69.9039764  26.2639809  40.9793701  52.1728172  72.6672134
  40.2546501  52.2286797  72.0444031  41.0809326  53.0655785  72.9972153
  54.3453903  44.1124840  43.9513092  54.8772774  43.5432205  44.5074272
  53.7644310  44.5677757  44.5607567  54.8159142  24.2837238  48.5917358
  55.6985130  24.2110386  48.9550095  54.7721062  25.1749973  48.2454071
   7.5846066  67.1748734  60.4790573   8.3794165  67.6048203  60.1633682
   7.1506333  67.8380280  61.0158310  15.6869087  63.1041031   3.8084874
  14.7327080  63.0457344   3.7602658  15.8572989  63.9958458   4.1117873
   3.7487087  25.7902603  74.5288162   3.7528932  26.3985500  73.7897644
   4.5854917  25.3298950  74.4648514  84.2327499   4.6885118  80.2328415
  84.5178909   5.4694643  80.7072296  83.2767258   4.7307730  80.2546387
  83.2872467  40.0625076  36.6779022  83.0287094  39.8881607  35.7729187
  83.0800323  39.2538185  37.1462212  32.8449860  39.1927185  -0.0569046
  33.0418587  39.6639900   0.7526489  33.3757324  38.3977432  -0.0063867
  16.4671879  19.5458088  20.8906689  16.7852058  18.8311291  21.4423313
  16.7750626  20.3402843  21.3268490  43.8283539  10.6479931  72.8645401
  43.7482605   9.7544203  72.5308533  44.7071877  10.9232483  72.6035538
  71.4531784  27.4243011  86.5140991  70.9936600  26.6153183  86.7391052
  72.3506241  27.1467915  86.3302231   1.5462787  51.4101830  36.7976646
   2.2626693  50.8153458  37.0194397   1.2777417  51.1443062  35.9182167
  54.7193565  61.0088730   2.1636653  53.7925720  60.9511490   1.9313445
  55.1616745  61.2039375   1.3375082  60.0358620  63.7077942   9.6920681
  59.5642853  63.0216599   9.2197676  60.2007637  63.3330231  10.5572777
  37.7073059  43.1987038  26.6316414  38.4500389  42.8457108  27.1215134
  37.2548943  42.4261665  26.2929020  74.6626282   3.2532890  17.0859928
  74.8272934   4.0732689  16.6204262  73.9372253   2.8490708  16.6099358
  77.5704498  54.7144508  35.7159882  77.1705704  55.2150307  36.4271431
  78.0342636  54.0020027  36.1559029  51.9498177  37.2220116  13.8700695
  52.6018677  37.7518921  13.4114971  51.1829567  37.2374382  13.2974300
  79.5508270   4.3829598  38.7945671  80.0998001   4.1368542  38.0500603
  79.7572021   3.7355127  39.4686966  66.3395386  46.3682060  38.0238571
  66.2506485  47.0392570  38.7006302  66.7212296  46.8300056  37.2773438
  82.5950851  34.7302704  77.0074844  82.4871674  34.6983643  77.9580460
  82.5021820  33.8203697  76.7252121  60.1229897  55.9793358  28.3556099
  59.9248085  56.9074440  28.2308178  59.7346497  55.7633896  29.2034225
  78.4018784   1.2335641   6.6862855  78.7374954   0.6746588   7.3871574
  77.8392029   1.8660741   7.1330051   4.9747353  55.0742226   7.7665839
   4.6816583  54.7965202   6.8987021   5.4755368  55.8739471   7.6057343
  53.4285431  25.6566200  52.0663147  53.9168320  25.2717953  52.7941322
  53.1324043  24.9051552  51.5526695  10.3080206  47.8390350  58.3880768
   9.9545803  48.4679527  59.0171814   9.9625483  46.9936256  58.6747208
   2.5818763   0.0925054  29.4644146   2.4461675   0.7318649  28.7651043
   1.7041589  -0.0793610  29.8054523  77.1039505  16.8725891  56.1202240
  76.3450165  17.4454041  56.2303886  77.3895035  17.0239716  55.2192383
  71.3065796  55.1038933  12.7535334  70.7289352  55.1731567  11.9934254
  71.9721603  54.4678802  12.4913902  35.3223686  16.5274010  12.6678858
  34.7121658  17.0781975  12.1774712  36.1619148  16.9824047  12.6017838
   6.9953442   7.2138104  53.2858353   6.7294970   7.8597827  52.6314087
   7.3784347   6.5000153  52.7759628  84.3849869  44.1662407  38.4071388
  83.5475464  43.8428841  38.0749168  84.7369080  43.4379501  38.9189720
  37.4481850  50.9934082  75.6667023  38.1539574  51.0540161  76.3104782
  36.9854126  50.1868896  75.8938522  38.7156448  67.8107605  39.2484093
  39.4391670  67.4347610  38.7470360  37.9572372  67.7328720  38.6696320
  23.3403320  18.8896160  10.5635586  24.1576557  18.9513264  10.0691872
  23.2360020  19.7533779  10.9626360   5.0936174  39.5444145  87.4019012
   4.6810246  38.9752502  86.7522507   5.1843390  40.3877602  86.9583206
  59.7082977  56.2717056   8.5440340  59.2613411  55.6142883   8.0108719
  59.0357285  56.9269333   8.7299271  68.1109314  64.8169098  54.5926094
  68.6104355  65.5978546  54.8310356  68.1458969  64.7929306  53.6363487
  16.2602844  16.9076710   2.3984482  16.5114326  16.7339973   3.3056381
  15.4567261  17.4232674   2.4668987  73.9690781  23.6556587  11.4378767
  74.0348282  24.4317417  11.9942970  73.3762131  23.0715179  11.9106541
   0.1083541  58.5959740   0.6152106  -0.2026689  59.4240723   0.2494965
   0.7292053  58.8533134   1.2967916  10.7374792  67.5120544  13.7267599
  10.9361401  68.3929291  14.0442991  11.5763922  67.1765137  13.4107466
  57.3064346   1.7413940   0.8616881  56.5418854   1.9263680   0.3162710
  56.9437065   1.5580900   1.7283248  48.1352272  18.2670364  57.0483627
  47.5673599  18.1048985  56.2950592  48.4621773  19.1566906  56.9147530
  52.4554329   6.1299210   4.4424882  51.6625023   6.4209566   4.8928132
  52.4154739   5.1743155   4.4806194  70.1732712  11.4024305  65.5055084
  69.9318466  11.1896162  66.4069824  70.7895355  10.7145920  65.2538528
  68.3787842   1.9819049  21.1683769  67.8551865   1.1916224  21.0359879
  69.1406174   1.6839824  21.6654568  64.5431747  55.0946846  59.5621300
  64.2332611  55.2070503  60.4607735  64.0859680  55.7726479  59.0645676
  79.2735901   8.8475962  82.5165634  78.5178223   8.7615900  81.9354858
  79.9640961   8.3420019  82.0878372  40.6941032   2.6026971  18.7929306
  41.5731659   2.5876086  18.4144459  40.7267265   1.9584514  19.5001183
  24.0447464  15.4482155   1.8303016  24.1752110  14.6540613   1.3121033
  23.1075211  15.4561043   2.0246689  40.4969635  34.6052589  22.1730289
  40.7036095  33.7216873  21.8683605  39.5756989  34.7281952  21.9441338
  45.0176926  33.5329399  79.3098984  45.6674118  32.9617729  78.9001846
  45.1339188  34.3780251  78.8756714  60.8856544  39.1902084  55.1346817
  61.6831665  38.6609726  55.1238327  60.4448471  38.9759903  54.3124695
   8.7551489  47.7493820   2.7991986   8.3640776  46.9252090   3.0890832
   9.6755562  47.5365677   2.6449506  53.8701134  41.7526360  81.6591797
  54.3366241  42.4724655  82.0839691  54.5526199  41.2621307  81.2011185
  72.2422409  29.1524086  31.2854290  72.7875366  28.3839684  31.4538937
  71.6491928  28.8766918  30.5864944  71.6295242  57.6880798  74.5672455
  70.9928284  57.5953903  75.2759476  71.1724396  58.2001266  73.9000778
  18.1511860  15.0818901   7.4413433  18.8842297  15.6814699   7.3021255
  17.5834808  15.5378609   8.0626593  81.6492233   9.4206896  31.0335274
  82.0975342   9.1953430  30.2183781  82.2329559   9.1046677  31.7231770
  82.1672516  65.0471344  29.5915146  81.9905319  65.7456207  28.9613476
  82.9468307  64.6086197  29.2506504  79.7736053  27.0313873  14.9632225
  80.2258148  27.8750248  14.9604082  79.9779282  26.6529636  15.8183718
  13.4911728  41.3330383  11.2408924  13.4182940  42.1622581  10.7683296
  12.9520311  40.7225838  10.7379980  14.5425014  26.2942467  10.1139593
  13.9926596  25.7370872   9.5630684  14.5358620  25.8659191  10.9699516
  75.6209259  27.1433010  54.1731720  74.7667923  27.2149773  53.7470856
  75.4234619  27.1586952  55.1096573  15.9423046   3.1686969  81.4712982
  15.6655664   3.9033239  80.9235992  16.3828335   3.5778608  82.2161102
  12.0780716  31.0115509   4.6444407  12.5472660  30.8744392   3.8214653
  12.3160257  30.2577591   5.1842623  62.9246826  30.5305424  17.0760670
  62.2939262  31.2415504  16.9627342  62.5823784  30.0215588  17.8109112
  33.6393433  65.1833725  40.7767677  33.0357437  65.3813705  41.4927979
  33.8822479  64.2678146  40.9145241  41.0228806   1.2118713  36.9176674
  41.9314728   1.1555363  36.6218414  40.9452782   2.0916283  37.2867699
  51.2908058  39.3102493  71.4285736  50.7455292  39.1834412  72.2049942
  52.1489105  38.9688148  71.6801682  48.5169144  42.3613586  83.1980972
  49.4723816  42.3679428  83.1409073  48.2221451  42.5030823  82.2985077
  82.3222733  54.1471214  60.2871361  82.8014755  54.4669418  59.5227356
  81.6333847  53.5913887  59.9226799  65.7407684  69.6244965  35.3213043
  66.2028122  69.0253143  34.7350197  64.9956512  69.1173019  35.6434746
   9.7320271  30.5183201  54.7176132  10.4014549  30.0994396  55.2585716
   9.2206831  29.7908516  54.3632851   5.7568626  66.1372910  53.3981743
   5.8935161  65.2798233  53.8010483   6.6393886  66.4580307  53.2124214
  27.2390957   4.4027848  50.1357231  27.9141579   3.7486141  49.9552155
  26.7912006   4.0757694  50.9159012  54.3961411  53.5025139  33.2995796
  53.8687859  54.1212425  32.7943077  54.0944595  53.6113396  34.2014542
  69.6162949  37.1346359  64.4424820  70.5271378  37.4196243  64.3691788
  69.5721054  36.6890144  65.2884750  78.4690933   4.2480292  56.9214439
  78.7603073   3.5253921  57.4775200  78.5549545   3.9130595  56.0288887
   1.5314410  29.9801083  49.9033165   1.9132112  30.8491879  50.0265312
   0.6191596  30.0784092  50.1759186  29.6738720  66.4645462  18.2725391
  30.0093994  66.3792114  17.3801422  29.4665928  67.3946838  18.3625698
  28.3425941  49.9910202  57.3795280  28.5665722  50.6164322  56.6903801
  27.9544888  50.5262108  58.0717545  30.3848972  59.5737000   2.7212114
  29.6778545  58.9986534   3.0138609  30.4638157  60.2284279   3.4149969
  25.8534393  15.0040989  45.5381966  25.5938511  15.1934366  46.4398575
  25.9372368  14.0510464  45.5081863  25.6194134   4.5825825   9.1097870
  26.3874207   5.0999451   9.3521328  25.9796638   3.8005910   8.6915283
  16.1946545  42.9625664  67.0744247  15.4411068  42.7385101  67.6204987
  16.9536667  42.7932968  67.6325302  80.1109695  32.4083786  72.7118759
  79.2420578  32.7323685  72.9490509  80.6066284  33.1954651  72.4859467
   6.0998778  37.1203423  35.0016441   6.1932783  38.0010834  35.3646889
   5.2443213  36.8231125  35.3113327   2.1325366  44.2129974   2.7025409
   2.4530079  43.3120499   2.6598585   2.6056178  44.6687241   2.0063086
  58.2870331  44.9000244  14.8679562  58.3219223  45.6209908  14.2392902
  57.3532524  44.7155724  14.9692755  26.9522343  48.2581177  84.6839828
  26.5236073  47.4092140  84.5750351  27.6721725  48.0867615  85.2910767
  41.6995735  61.0308838  41.7492599  42.5231438  61.1628685  41.2796364
  41.9655571  60.8106346  42.6419945  66.4949417  57.7040405  81.3388596
  66.6148834  57.3467140  80.4589996  67.1708984  57.2769089  81.8650436
  44.0643120  54.9633636  69.4779968  43.2241821  54.5488243  69.2816010
  44.5570412  54.2933388  69.9518204  66.3906784   6.1418419  77.3438492
  67.0703506   5.4940329  77.1577911  66.2445526   6.0714884  78.2872162
  29.7469101  32.6046410  66.4628372  28.8781872  32.2166405  66.5677490
  30.3511181  31.9209709  66.7522507  76.2779770  43.1609612  69.3163452
  76.3946457  44.1080322  69.2410049  75.3365707  43.0451012  69.4450531
  25.5543880  54.2069664   5.9985766  24.7626228  54.2134628   5.4607129
  25.8415260  53.2938766   5.9911013  45.0998611  53.7566490  53.4611282
  44.7582130  53.2864723  52.7005730  44.6269646  54.5888710  53.4605179
   2.3477395  66.0781555  76.5463028   2.9563153  65.6708298  75.9299011
   1.5478646  65.5575943  76.4725189  35.0416985   8.6376553  16.1545658
  34.3958817   8.5108013  16.8495903  35.2451706   7.7525439  15.8522253
  21.3494968  23.5592232  11.1920776  20.4609566  23.8864555  11.0519094
  21.8744164  24.3463039  11.3376656  53.7890091  33.9899292  56.0751991
  53.5571632  34.7836075  56.5574341  54.5813026  34.2257347  55.5926056
  55.2212219  36.2341080  87.4844589  55.4985390  36.3182449  86.5721817
  54.8347931  35.3599930  87.5376740  55.4907761  52.9790497   3.6101649
  54.7159882  52.8582382   3.0612202  56.2107277  53.0849953   2.9883344
  46.4450645  55.2011681  75.1017380  46.0597115  55.3376236  75.9672546
  46.4866447  56.0767937  74.7173157  56.7228584  51.4038620  55.7802734
  57.1510239  52.1296043  55.3261757  55.8383217  51.3813515  55.4151459
  57.1050568  15.2701797  65.4716187  57.7311325  15.9881010  65.5656967
  57.6448746  14.4797220  65.4743729  81.9469681  71.4947510  55.7313881
  82.3612671  71.7441406  56.5574608  82.6062164  71.6880493  55.0648651
  61.4571342  52.6623726  85.3369751  60.6042442  52.2537422  85.4847260
  61.7678375  52.2784615  84.5170288  79.3952942  53.9548187  29.5164757
  79.0586929  54.0034866  30.4112167  78.6158142  53.8379135  28.9733601
  25.1808777  30.6652756  10.1400576  25.9847946  30.9080811   9.6807184
  24.4767342  30.9565239   9.5607576  40.3826523  62.3881226   8.6874256
  40.2518044  62.2876434   7.7445502  39.5814095  62.8106956   8.9967365
  78.7804794  12.2128000  69.8140793  79.2173996  11.4171982  70.1179733
  78.3098831  12.5359983  70.5823975  63.0817947  56.8540115  54.7399216
  62.4432144  57.2019119  54.1175003  62.7999153  55.9522247  54.8934021
  55.8879166  13.4529514  18.4127159  55.7846794  14.3571291  18.1160069
  56.7259140  13.4468632  18.8752708   9.5370941  35.1161156  17.9145412
   8.7811804  34.8411369  18.4333992   9.3167076  35.9997787  17.6199188
  31.1306000  20.5613632  63.6318169  30.3474789  20.8750191  64.0841141
  31.6685638  20.1761513  64.3235092  46.6080704  69.4904709  14.2226000
  47.5002213  69.7017593  14.4976625  46.1736298  70.3399353  14.1457033
  12.6084309   1.5277951  84.6690140  11.8587685   1.5451597  84.0740891
  12.2352123   1.2897990  85.5177231  71.4776535  -0.3245541  29.4793339
  70.7145844   0.2507733  29.4250183  72.1265335   0.1835501  29.9661751
  63.8801270   1.3298078  14.8127232  63.4661102   0.5775514  14.3897171
  63.7192802   1.1977237  15.7470226  66.4142151   7.1970234  35.8333168
  65.9278717   6.3725882  35.8299828  67.3264542   6.9374881  35.7041473
  86.2740250  41.4085464   0.2404757  85.4907150  41.0023003   0.6114610
  86.8483658  40.6725273   0.0292019  81.9892731  20.3049183  27.5715981
  82.6272812  20.9933262  27.7593937  81.5270386  20.6129360  26.7920475
   5.3211069  70.3171768  11.1505775   5.5960894  69.4194794  11.3369732
   5.1173553  70.3159561  10.2153158  10.5999231   4.1143980  50.6615753
  11.4366827   4.2524500  50.2177200  10.8405561   3.8283474  51.5427704
  61.5637283   0.9312598  43.3863182  61.5741463   1.2344772  44.2941628
  60.9992294   1.5563276  42.9314919   3.2700524  64.1373215  88.6958160
   3.0220718  64.1236801  87.7713928   2.6629155  63.5279541  89.1156845
  10.2518644  17.0885487   8.4611330  10.9023857  16.4441547   8.1821890
  10.0288019  17.5652390   7.6616068   4.5470490  54.5759468  79.3203278
   5.4873338  54.7547112  79.3321609   4.1791277  55.1864128  79.9592285
  20.6909599  59.2443008  73.1365356  21.1016941  58.4488525  72.7977295
  21.1311722  59.9570541  72.6734772  34.1184387   7.7202072  62.5181465
  33.2389793   7.4568663  62.7891388  34.1184425   8.6739855  62.5990067
  73.9028168  66.5817719  65.4594345  74.5438614  66.4935303  64.7540970
  73.1142883  66.9093628  65.0268402  45.8459091  54.8172073  18.5364017
  46.6560860  54.3158455  18.4443130  46.1054115  55.7238960  18.3726692
  24.4632568   7.5519614  42.0664978  24.3574066   8.5020761  42.1145477
  25.3045177   7.4265909  41.6274147  52.3692284  55.5052681   8.8266096
  53.1153564  54.9162521   8.7144423  52.1586571  55.7966881   7.9394994
  52.1920662  22.8717213  27.1960735  51.2747383  22.8255177  26.9266148
  52.2183495  23.5836868  27.8353271  38.7720261  57.8269730  63.9781380
  37.8809776  57.5303040  63.7930717  38.7843056  58.7406731  63.6931267
   4.4009876  50.1901245  17.7671528   4.2156801  50.1723404  18.7060757
   4.0406990  49.3673553  17.4362869  37.9679413  27.2177792  75.7900620
  38.5414162  26.5130386  75.4888992  37.0952873  26.8249111  75.8089447
  70.2822266  38.6909027  85.2303238  70.5178299  38.3226624  86.0818710
  70.3110809  37.9453468  84.6307068  20.3229542  68.9311981  48.2159462
  20.3993359  68.2175827  47.5825806  21.1694794  69.3764191  48.1783791
  54.2380867   9.2764111  70.3109970  53.3396111   9.4498339  70.5918732
  54.2412720   8.3479528  70.0782089  37.8968811  46.7119675  87.3924179
  37.4435349  46.0283852  86.8990326  37.2173615  47.3573303  87.5873184
   7.6542625  21.5010319  74.1383057   8.3577137  21.2265739  73.5500412
   6.8922267  20.9977016  73.8516159  34.6582947  49.6858292  67.3660736
  34.0936356  50.4203529  67.6066360  35.5458603  50.0414886  67.4104309
  14.3191128  53.1634941  81.5953293  14.2505102  52.2242775  81.7667847
  13.4721203  53.5186729  81.8649216  43.4607849  68.2484055  10.7115669
  43.6531067  67.5622635  10.0724573  43.5361176  67.8128204  11.5605831
  54.6835556  38.5728683  66.4770279  54.8472290  37.7810135  66.9892960
  54.0445480  38.3034782  65.8172302  62.5660591   5.6564875  27.8959732
  61.6306992   5.4603095  27.9493332  62.7130470   6.3102131  28.5795441
  72.8128128  58.0072861  11.6179380  73.0295105  58.1465645  10.6960506
  72.1681519  57.2997971  11.6082029  72.6080322  50.9027252  26.7409782
  72.0268631  51.6146278  26.4732761  72.0495834  50.1253166  26.7423744
  70.1271133  63.7174416  19.8066902  69.2224274  63.8888855  19.5451756
  70.1189575  63.7926712  20.7608948  36.9494629  21.1661434  70.8940201
  36.7610550  22.0186825  71.2863312  37.6584740  21.3389549  70.2746048
  52.6454048   5.1208720  50.1874313  52.6292877   5.3420238  51.1185951
  51.8295021   5.4823866  49.8412437  76.0605164  64.0383759  17.2866764
  76.1492004  64.1985931  16.3471565  76.6038971  63.2675858  17.4505424
  80.2435837  66.8730240   3.3657100  79.7098541  66.9869232   2.5793288
  79.6654739  67.1243591   4.0860224  41.8394089   6.0161152  67.9548721
  41.5086746   6.4401255  67.1630020  41.7493896   5.0792742  67.7803497
   0.6139017  48.1062927   8.5758696   0.9073969  47.9291382   7.6821637
   1.2202433  47.6138649   9.1291313  62.1624260  45.4869041  70.6069031
  61.5162697  45.7696304  71.2540359  61.9189491  44.5836678  70.4041367
  69.0701523   3.5085826  18.5433540  68.9277344   3.8102148  19.4405537
  68.2559814   3.0635357  18.3082123  56.8425102  65.9930954  12.0128603
  57.1240807  66.7531433  11.5036669  57.3462181  66.0488739  12.8248940
  17.0343018  12.2902956   9.9430532  17.7012157  12.9405756  10.1634932
  16.4806576  12.7253504   9.2946424  58.1642113  36.7858391  29.4119587
  57.7899704  37.0347939  30.2570610  58.9042740  36.2211266  29.6347580
  73.9862442  12.3063364  82.4068527  73.2941208  12.9242868  82.6420975
  73.7635498  11.5053282  82.8812256  70.4844666   9.0162411  31.0203419
  70.9369125   9.4864702  31.7206326  69.6248703   9.4340515  30.9677868
  76.9599380  15.8307419   3.0563359  77.7728119  16.2435760   3.3479326
  77.2241745  14.9556284   2.7724600  46.4137688  10.0765162   9.4843788
  46.0452843   9.3695755   8.9545813  46.9272728  10.5964661   8.8661566
  73.1619186  67.7596512  47.3759766  72.6149597  68.3372421  46.8435745
  73.7614822  67.3535156  46.7500267  16.1803722  58.4911003  68.5794144
  16.1022797  57.6557655  68.1185989  16.7135201  59.0353622  67.9999619
  15.0571146  41.1159477  76.0817413  15.9229069  41.1567650  76.4879074
  15.1478872  41.6200714  75.2731323  55.9561310  60.7642708  65.5050735
  56.8428574  60.6891670  65.1525040  56.0369797  61.3892975  66.2255173
  64.3189011  50.5852966  18.7526722  65.2138062  50.3096924  18.9512177
  64.3383865  50.8103104  17.8225002  28.1326847  38.3102646  56.9223175
  29.0364227  38.4342003  57.2123642  27.7247868  37.7990646  57.6212616
  46.6718941  46.1301384  55.2084007  46.6257362  46.8895111  55.7893066
  46.2946129  46.4362106  54.3836555  69.6719208  23.1948681  35.6139679
  69.6917725  22.4272270  35.0425072  70.4142303  23.0722084  36.2057076
  82.8773727  54.4355125   5.4099445  82.0447540  54.5511513   5.8677731
  82.6930923  54.6974220   4.5079031  18.4362564  37.3670273  19.7065506
  17.7249660  37.5144501  19.0832005  18.3352318  38.0642815  20.3545189
  83.1295853  67.0026550  16.1270618  82.8242188  66.9457321  15.2216635
  82.6530838  66.3099213  16.5845432  29.8588905  38.3059158  63.6209755
  29.1603355  38.9301834  63.8173027  30.3581581  38.7189178  62.9164276
  21.3303871  30.8660946  79.8730316  21.9027081  31.4715824  80.3442688
  21.8101902  30.0378456  79.8680038   8.2130852   5.3416581  51.6687317
   9.1050653   5.6206393  51.8755493   8.2241783   4.3925738  51.7926140
  51.5331688  50.3214760  64.3979492  51.4760475  51.1110115  64.9360962
  51.9950104  50.6028328  63.6081581  59.9958572  71.1327209   3.1853740
  59.2611885  70.8333511   3.7209828  59.9533730  72.0877914   3.2328753
  42.5115814  56.6296577  45.0112762  41.7457657  56.0996056  44.7903709
  42.4222107  56.8005600  45.9488487  26.2386780  47.9610481  37.5557175
  26.8649082  47.4299469  37.0637817  25.4170647  47.4727783  37.5029869
  46.1095009  26.7735634  86.1267548  45.9520798  25.8367538  86.2443848
  45.7624321  27.1765423  86.9226074  73.2233353  52.8906059  86.8661423
  72.6859360  53.6366539  87.1323166  73.8584137  53.2597351  86.2524261
  51.1079674  52.3215141  86.3749695  51.5344849  53.0994301  86.7343597
  51.8219643  51.6991081  86.2369308  38.1512642  26.6608181  70.6976624
  38.8708954  26.9999142  71.2299881  38.1123962  27.2499542  69.9442444
  60.0039406  52.8716736  60.5752258  60.1932259  52.7756805  59.6418495
  59.1753693  53.3501053  60.6036148  83.7987671  11.1969881  30.2607708
  84.1878433  10.6899509  30.9733467  82.8565216  11.1557713  30.4241848
  53.2677345  32.1632538  74.0265427  53.9585533  32.5129204  73.4637451
  52.4699783  32.5975037  73.7244720  35.9143066  28.9653378  62.0050735
  35.0144730  29.1201153  61.7177124  36.4225731  29.6592236  61.5850487
  29.7258415  53.4744568  32.6412392  28.9887695  52.9098244  32.4085426
  29.9447117  53.9298286  31.8282413  51.8888626  35.9321175  88.6791992
  51.9863739  36.2132874  89.5889587  52.6914253  35.4453506  88.4916153
  35.0190201  61.3773689   0.0758806  34.0843849  61.5135345  -0.0795134
  35.3772202  62.2599983   0.1702008  47.8142776  57.3377342  43.8084183
  46.9329300  57.6147842  43.5580177  48.1309395  58.0357666  44.3817482
  22.7844105  10.0920277  12.3487282  22.4728088  10.9650030  12.5875797
  22.1469154   9.4947891  12.7400570  40.4079933  58.5925217  67.3896942
  40.7864113  58.2251740  66.5908890  41.0698357  58.4344864  68.0629044
  53.6952095  -0.1624839  50.5487556  53.2444153   0.1097715  49.7494469
  53.7415428   0.6323057  51.0801620  73.5657578  43.4717484  83.4355087
  73.0307770  43.9815750  84.0438690  72.9891205  42.7659111  83.1430893
  59.0392303  55.3424835  57.2338409  58.2549667  55.5657196  57.7351646
  59.3354607  56.1762314  56.8686790  72.1991959   8.7317400  44.7043381
  72.3796463   9.6448660  44.9276505  71.2534103   8.6394587  44.8193016
  21.4504204  65.1619568  79.1347809  22.4069920  65.1454315  79.1042709
  21.2269688  66.0926971  79.1392593  83.9682999  33.6020279   8.2997389
  83.3142319  33.1631927   8.8436556  84.1644440  34.4131813   8.7685556
  35.8373871  49.8386536   7.2350821  35.7329178  49.9578362   8.1790705
  36.5025978  50.4798470   6.9848828  73.2288132  64.1137238  44.9602356
  73.0990677  64.7347488  44.2434845  73.3686295  63.2723427  44.5257797
  82.7085724  62.9774780  71.2246933  82.8997040  62.9251709  72.1611557
  82.6571274  62.0652237  70.9394226  59.2195015  59.0460625  20.8901005
  58.4397125  59.5387611  20.6343498  58.9886627  58.1313362  20.7281590
  60.7608681  12.1991367  64.3882370  60.4686050  13.0361872  64.0274582
  60.0139236  11.6127081  64.2682037  28.4145832  44.5692253  14.4603205
  28.6445427  43.8302193  13.8970966  28.8396091  45.3232231  14.0515823
  63.3296471  23.3722439  61.1933975  62.7152214  22.7759857  61.6214027
  63.8735962  22.8044147  60.6475754   7.6780496  51.2909813  44.5718918
   8.5561352  51.6715622  44.5530167   7.3857017  51.3179131  43.6608276
  15.5695353  38.5738411  19.9813423  15.4726677  39.0838165  20.7855644
  15.0871944  39.0725746  19.3219147  69.8852768  32.9302788  29.8723469
  70.6066284  32.3095016  29.9749088  69.1081161  32.4411697  30.1425934
  49.5089455  18.6610146  17.0863609  50.2115479  18.0189800  16.9845276
  48.7507591  18.1449356  17.3603058   8.1017551  23.7355289  11.1976185
   7.3714447  24.1433372  10.7322474   7.6899929  23.2571259  11.9172115
   9.1068830   9.7752047  77.0840530   9.5608854   9.3399820  76.3624649
   8.7164288  10.5535641  76.6866455  82.7484055  24.3454514  44.2585335
  82.5259552  24.2078724  43.3377609  83.6758575  24.1161900  44.3177109
  50.5340004  12.3403511   8.0863867  50.5234070  11.4807978   8.5074415
  50.7479286  12.9502773   8.7924013  55.2244034  41.4055443  22.2305508
  56.1458168  41.3081932  22.4708805  55.2377319  41.9590492  21.4497280
  52.3299446  40.0649757  15.9551916  52.4682922  40.2588654  16.8822842
  53.1768150  40.2401695  15.5448885  74.9698410  71.4116669  87.0689087
  74.3940125  71.2601242  86.3194427  75.5235138  70.6317825  87.1070938
  23.6761799  70.7464371  75.1675949  24.3280315  71.3584595  74.8259125
  23.8104706  69.9457474  74.6605453  13.1735249  15.0182247  24.2630024
  12.4590616  14.7558727  24.8434734  13.0386620  14.5015993  23.4685574
  33.1974640  17.1471214  70.0293274  32.3653450  17.4950352  69.7087555
  32.9525795  16.5659447  70.7493973  82.5314331  34.2121735  16.8065338
  82.1305008  35.0395737  16.5402794  82.7455750  34.3363953  17.7311630
  58.5868530  21.1938038  44.1042786  58.1712265  22.0559216  44.0888405
  58.5259056  20.8823223  43.2012291  28.0454502  39.0820427   9.7639380
  27.5895462  38.9074135  10.5872774  28.2704029  38.2151222   9.4261770
  15.9186535  22.1412640  77.1813583  15.8320723  23.0862083  77.0556030
  16.4235821  21.8441658  76.4243851   6.0157986  65.1881714  21.5501022
   5.9727182  65.3064651  22.4989853   6.4660182  64.3515854  21.4332256
  61.9717674  42.4689865  81.1827698  62.0942802  42.6283913  80.2469177
  62.2995911  43.2625732  81.6058350  80.1935196  69.3061218  16.2527351
  80.0089264  68.6432953  15.5872850  80.8946533  69.8366470  15.8743353
  23.3456078  48.1650505  77.6119308  22.9098606  47.8599472  78.4077148
  22.6528111  48.1838684  76.9516907  12.4463358  51.6363602  63.8516808
  12.7802677  52.0181198  64.6634598  13.2181158  51.2597427  63.4288979
  54.7203598   3.6608751  33.7827148  54.6167221   4.3090982  33.0860825
  55.5387230   3.2113948  33.5718231   0.5484926  25.0411987   4.8080673
   0.2251520  25.8673744   5.1673946   0.3476913  24.3919411   5.4821415
  15.5728254  48.0201683   8.6193676  14.9880791  48.4007454   9.2747030
  15.1747847  47.1766624   8.4042206   9.3869343  24.2966900  26.1618233
   8.9081812  24.7801800  26.8350735   8.8715696  23.5016289  26.0257816
  64.9441986  42.9272842  15.5067463  64.9754944  41.9956169  15.7241173
  64.5953903  42.9537621  14.6157551  84.3089142   7.0782104  45.7213173
  84.3565521   7.3947539  46.6234055  83.4573593   7.3808980  45.4059296
  28.4783344  70.4627228  34.3313179  28.4783974  71.2079697  34.9320145
  29.3755417  70.1305618  34.3616600  19.9361610  41.5504456  10.1744432
  19.0907097  41.2761307  10.5296860  20.3728523  40.7324982   9.9367609
  78.0942459  46.3379021  64.0043488  77.3276367  46.1783485  63.4538155
  78.8168106  45.9201813  63.5356827  40.7924461  66.1595001  15.7303066
  40.1269302  66.5041275  15.1348629  41.5564766  66.0082855  15.1738691
  34.8025818  26.0648518   9.2627001  35.2230530  26.8537788   9.6047955
  34.8839188  26.1430683   8.3121758  78.5107498  56.4122276  24.9825096
  77.9173203  56.8721275  25.5762825  78.2495117  56.7042160  24.1091633
  21.0713558  61.0112419  64.4830475  21.1246223  61.9643974  64.4131088
  20.3129940  60.7739410  63.9493713  29.7986660  26.9755936  83.2511444
  29.6059456  27.5974102  83.9528809  29.7304382  27.4920139  82.4480896
  73.0526733  55.0125313  52.7229385  72.4076843  55.6093941  53.1023865
  73.5039673  55.5367355  52.0612869  53.9744568  46.1652374  32.8706932
  54.8070297  45.8719215  32.5005302  53.4803696  46.4928169  32.1191597
  86.1819229  64.3716049   8.5509243  85.7073898  63.5436058   8.6248560
  86.1159973  64.6035614   7.6245980  40.6159935  31.2962036  12.8219080
  40.1373367  31.6723537  12.0832396  41.5382919  31.4193344  12.5973339
  69.2141724  35.0459747  23.5535278  69.2235947  35.7548790  24.1966419
  68.8754272  35.4512558  22.7552624  17.9218922   9.7025833  70.0678558
  18.1079044  10.3790073  70.7190704  17.6585598  10.1884756  69.2863159
  31.5741482  23.3053532  88.5135803  31.6730118  22.4515553  88.9348679
  31.3879299  23.1002121  87.5973511   3.7199697   6.7594104  17.0916080
   4.1155505   7.0046606  17.9280281   3.0133278   7.3927464  16.9660110
  18.3979797  35.3803024  78.0796051  17.6598072  34.8122902  77.8589401
  18.8898716  35.4620895  77.2625427  74.8349457  61.3007240  45.3280983
  75.4824829  60.7405014  44.9002228  75.3501511  62.0050545  45.7214317
  11.8790808  23.4223728  69.0419464  11.8413038  22.8238182  69.7879639
  12.7669525  23.3216419  68.6987762   9.8712864  70.7408752  61.9137955
  10.4988585  71.4314804  61.7006149   9.1055155  70.9383011  61.3744926
  83.4106369  60.9028740  52.6756935  84.3464890  61.0990791  52.7194748
  83.3570786  59.9579353  52.8187141  31.3766632  55.5404816  57.3638496
  32.2670670  55.2187424  57.5049019  31.3830814  55.8781471  56.4682083
   9.4738159  29.6470737   0.7670190   9.6111698  29.0372696   0.0421018
  10.1449442  29.4123440   1.4078941  10.0531368   9.8799057  87.1060410
   9.3158121   9.2704639  87.0719070  10.5335531   9.6306391  87.8955383
  -0.0929298   2.6664991  47.8672905   0.7551451   2.2608259  47.6872063
  -0.5268201   2.7029767  47.0148582   8.3127203   3.0914011  75.0895462
   8.3949900   3.3359859  74.1677856   8.1791611   2.1436784  75.0748749
  28.3953590  65.0604630  85.5257492  28.6760464  64.1507339  85.6249237
  28.4818058  65.4347153  86.4025040  47.6541557  59.3046265   7.8078461
  47.6810455  60.2609177   7.8397360  47.0927925  59.1056595   7.0585022
  28.4666405  48.8298683  18.4890232  27.7219906  49.3634300  18.7665863
  28.3455544  47.9954681  18.9421749  24.6089211   9.3250732  59.4287033
  24.3304005   9.8340702  58.6674004  25.2197189   8.6788654  59.0743408
  78.8776321  57.6795578  22.6124878  79.3082047  57.5843964  21.7629108
  79.5493546  58.0568619  23.1805172  17.0646152  44.6047821  48.3538284
  17.1466141  44.7122612  47.4062233  17.3585911  43.7090569  48.5196114
  85.4576569  30.3416252  54.5927238  85.3151245  30.3941612  55.5377922
  84.9063644  29.6129589  54.3074989  32.0392418  34.4699135   6.0802140
  32.4796791  33.6653252   5.8065600  31.8490200  34.3349762   7.0085673
  81.5996704  64.3041000  89.0501633  80.6485519  64.2150116  88.9894943
  81.9410019  63.5002251  88.6583633  24.0840302  14.3836203  85.0640869
  23.8953285  14.1568089  85.9746780  24.1323910  15.3395910  85.0604477
  54.4565239  45.5044823  78.2033844  54.0852699  44.8499756  78.7950134
  55.3856430  45.2803726  78.1509933  42.2639084  48.3665237  52.2416992
  42.6219025  47.7963524  52.9221230  42.4005203  47.8824883  51.4272804
  44.6590195  15.9328632  65.6101379  44.4709930  16.2928810  66.4768982
  45.5961266  15.7387314  65.6295624  23.5625420  60.8723488  66.9553223
  22.9332333  61.5395813  67.2291870  24.1668148  60.7956123  67.6936951
  68.9554672  55.5490685  70.2162018  69.1778488  56.0484543  71.0019455
  68.2350388  56.0374985  69.8178940  41.4335823  68.7734909  88.0462799
  41.3390198  67.9900513  88.5880432  41.7448959  69.4468536  88.6511765
  80.0603409  35.3028679  15.1606350  80.2334824  35.7555542  14.3352089
  79.1880798  35.6007652  15.4187965  24.4446964  62.7296028  60.4913940
  23.5363903  62.5180740  60.7069588  24.4185467  63.6463356  60.2172546
  51.9937325   8.8700476  21.2998829  51.5197525   9.6646748  21.5451202
  52.9004135   9.0444336  21.5523643  74.9816971  46.8778000  32.8942757
  75.2801056  47.3978424  32.1481209  75.5339355  46.0961418  32.8776016
  17.6853657  52.0481339  -0.0454098  17.7720966  51.1543732   0.2861115
  18.4924984  52.4842606   0.2276560  48.9037361  62.2134056  64.4086609
  48.8138962  63.1442451  64.6128693  48.5397453  61.7645760  65.1717453
  82.6111526  51.3809547   0.3258306  83.4838181  51.7469444   0.1818555
  82.7345963  50.4340744   0.2594169  28.2498589   6.8244610  36.4111252
  28.9977589   7.1941581  35.9418678  27.9281197   7.5442200  36.9539528
  40.4222717  42.8485146   3.6636906  40.6545792  42.1655159   3.0345812
  39.5243301  43.0890045   3.4354451  69.9272919  53.2299805  51.2256279
  70.6368332  52.5874977  51.2277756  69.9703293  53.6314430  50.3577499
  38.3373260  40.4191017  66.1169815  38.2898598  40.7937965  66.9965134
  37.6407700  39.7628288  66.0983124  27.3015671  62.5137749  69.3011627
  27.6456451  62.9718781  68.5343628  27.9772511  62.6252441  69.9699402
  18.3851147  46.1564827  42.0379028  18.3072720  47.0464401  42.3816299
  18.3327847  45.5954437  42.8116760  52.2541618  31.7467365  15.1320648
  52.1320190  30.8017044  15.2227612  52.9472694  31.8369865  14.4780884
  76.6643448   1.2034541  10.2735958  77.0683212   1.9831787  10.6544724
  75.7232895   1.3508669  10.3680096  79.4457855  33.8416252  45.2630920
  78.6285706  33.5790176  45.6866798  79.1677628  34.3316956  44.4892960
  59.7360725  23.6799870  27.2575741  59.3385277  23.6292934  28.1268387
  60.5110397  23.1211662  27.3156643  47.8812485   5.2766047  17.2099590
  48.4079132   6.0752382  17.1776543  47.4897537   5.2124748  16.3388386
   2.8498743  38.7496986  73.4314651   2.6243629  39.6410103  73.1651154
   2.0595062  38.4203796  73.8593597  61.7455254  14.6866341  14.9730692
  62.0223846  14.9687109  15.8448572  61.8981361  13.7416945  14.9673729
  57.7765808   1.3322707  35.3976479  57.5290871   1.9837892  34.7415199
  58.1302910   0.6025684  34.8890648  67.7171555  20.1815186  40.8970337
  67.5895767  19.5731487  41.6249352  67.2674789  19.7697811  40.1591339
  59.0998039   6.6726475  14.7227087  58.7558136   6.5648408  15.6094332
  59.9414139   7.1121817  14.8440876  26.8761730  50.1943665  45.9596748
  26.4494114  49.4100227  45.6148415  26.1621799  50.7107925  46.3335037
  69.2673035  46.5610313  49.5089607  69.5458145  46.3575821  48.6160583
  69.8822632  47.2323418  49.8045807  74.5007095   8.4209728  11.8231297
  74.5107803   7.4928899  11.5890512  74.2250366   8.8669882  11.0223141
  73.0467682  45.9343071  67.2121735  72.1970367  45.4973373  67.2691116
  72.9467773  46.7229080  67.7454071  71.4057083  49.2149124  10.2459583
  71.7384567  49.7613792   9.5339975  71.8804016  48.3886337  10.1556187
  29.0711117  48.1003685  67.5871429  28.3384724  47.7153854  67.1062546
  28.6588345  48.6015663  68.2907486  74.6852646  71.5481644  14.4217386
  75.5037689  71.2141342  14.0547180  74.3884583  70.8568954  15.0135899
  27.2335091  31.2289066  66.1634979  26.7525101  31.8794098  65.6519165
  27.2365036  30.4458046  65.6130676  78.7946777  26.7930107  78.8345566
  78.3555069  27.1729908  79.5954666  79.6958008  27.1101017  78.8950043
  60.9683228  31.3273563  42.1455803  60.9171104  30.6474075  41.4738083
  61.8996124  31.3828049  42.3597336  82.5933990  38.1020012  82.1772003
  81.9613266  38.7508202  81.8677826  83.4373550  38.4160042  81.8525772
  79.9475479  41.6716537  35.4644508  80.3227997  42.5335274  35.2839127
  80.1645966  41.1493874  34.6922035  40.2164154  38.3895302  59.7699051
  40.1607666  38.8014908  60.6321259  40.6972008  39.0200996  59.2337570
  77.9203796  48.0275841  83.7975388  77.0331802  48.0419502  84.1565628
  78.0085678  48.8655548  83.3433762  81.1249466  54.9120407  74.7400513
  82.0336151  54.6551552  74.8967819  81.0923538  55.8373604  74.9828491
  25.1173859  -0.1451471  78.9492569  25.5730667   0.6695135  78.7373276
  24.3048954  -0.1032975  78.4449387  16.3946877   1.3260572   7.7580137
  16.0206509   0.7061954   7.1318345  15.8961954   1.1838319   8.5626945
  85.1505585  33.1934776  54.3412361  84.6477509  33.2922592  53.5327492
  85.2462234  32.2472649  54.4497032  40.6388435  53.8999138  51.9447975
  41.0222015  53.3669930  52.6414108  40.9841576  54.7793350  52.0984306
  23.2305050  71.6150818  31.1372280  23.6461887  70.8640900  31.5608444
  23.9355145  72.0304260  30.6405544  81.7648163  50.1622009  69.6091156
  81.3967514  50.4149132  68.7624130  81.9398880  49.2249985  69.5240555
   6.4451580  18.4340267  46.0080223   6.7992311  17.7422810  45.4491386
   6.7070618  18.1836872  46.8940086  82.7386780  56.3320122  32.7426872
  83.3522797  56.7663879  32.1501999  82.8355408  55.4001045  32.5467300
  66.5312119  48.5832825  85.9460297  66.2306061  48.2363014  86.7859497
  67.4862747  48.5644989  86.0071182  70.6510010  25.0126362  51.4501724
  70.5490875  24.9385872  52.3990479  71.5197830  24.6516609  51.2736969
   0.6065487  35.3706741  35.5658226  -0.0620255  34.7282829  35.8036728
   0.2436289  35.8233986  34.8045311  11.5623178  29.8902130  69.2583542
  11.1568098  30.0833359  70.1036377  12.3882608  29.4609299  69.4814453
  74.0647125  51.0991478  68.7227631  73.2330170  51.5497398  68.5762253
  73.9496307  50.6503296  69.5603485  62.2619247  45.5508118  12.7412310
  62.1096725  45.3537941  11.8169813  61.5902748  45.0519447  13.2062607
  58.0320816  13.5916290  20.1791058  58.4003601  12.8810568  20.7041664
  58.2327843  14.3850784  20.6754818  50.8293648  27.5005589  76.2600403
  50.4491615  27.6622047  77.1234894  50.6483688  28.2996998  75.7652206
  34.1145363  65.1486282   8.6589375  33.3724289  65.6866837   8.3832531
  34.7303009  65.7705002   9.0466824  59.0994301  39.9301262  17.2861595
  59.7991104  40.1649361  16.6766148  58.9151115  40.7396393  17.7625465
  59.4947052   4.6775732  33.2359810  59.3027039   5.1318440  34.0563507
  60.4423981   4.5439930  33.2522850  65.5185013  71.5699463  80.3702469
  65.1925354  70.9675064  79.7016373  64.8541794  71.5456009  81.0589523
  64.0195312  39.2616615  42.7130356  63.2548332  38.7568245  42.9898033
  64.6733475  38.6006393  42.4854088  54.1976204  39.8499260  48.5289459
  55.0065727  39.3876266  48.7482796  53.5126762  39.3664093  48.9907799
  82.7563095  50.3562279  81.1670761  82.5288773  50.9358177  80.4400406
  83.4254456  50.8358192  81.6554184  80.2809906  45.9259262  57.7862549
  79.7046661  45.3754845  58.3164406  80.9776459  46.1913185  58.3866539
  63.7844696  22.1078224  56.8911552  63.3885231  21.6768360  57.6485901
  63.1018257  22.0881824  56.2204514  66.3733215  12.4364538  23.3074265
  66.3759003  13.2600393  22.8196430  66.4147949  11.7584972  22.6329727
  10.9483490  53.9134979  68.3136139  10.1528587  54.2363243  68.7369461
  10.6382227  53.2568016  67.6900787   4.2618895  11.0139446  78.5152283
   4.6809411  10.2257757  78.1696625   4.7395468  11.7370129  78.1087189
  82.1868820  31.1411724  54.9084778  82.5485535  31.9220829  54.4894218
  81.7352905  30.6781063  54.2028847  45.5970573   6.5837955  71.7379532
  45.1936493   6.9899001  70.9707718  46.4846268   6.9415522  71.7594604
  39.4601822  38.1971169  25.2761154  38.8144455  38.3726044  24.5916729
  38.9420166  38.1001434  26.0750732   4.0696707  10.7776623  24.4880314
   3.4097738  11.4652977  24.5770626   4.8963194  11.2097321  24.7029743
  43.1580734  56.5326462  55.3952599  43.9727058  56.9668694  55.1421585
  43.3251953  56.2065773  56.2795563  24.6147480   1.0946027  38.6775856
  25.3018112   1.2001523  39.3356400  24.0066624   1.8137475  38.8487358
  34.9209366   4.6869020  88.2838135  34.3148117   4.1838136  88.8276367
  35.3536530   5.2825322  88.8955460  34.5105972  68.4293823  27.4027348
  34.8780518  69.0226440  28.0579109  35.2515526  68.2061996  26.8393459
  69.1368256  68.3191910  78.2509537  69.2864838  67.4952240  78.7145462
  68.3648300  68.6951752  78.6739044  24.7471867  52.3576241   1.1435578
  25.0715790  52.1836700   0.2599621  24.6514606  53.3093071   1.1805193
  70.3999786  10.6736116  86.2889175  69.5578003  10.4085445  85.9191818
  70.1736069  11.1186037  87.1055984  11.8118181  23.3459721  25.0160427
  11.0479994  23.5181007  25.5666656  11.4452276  23.1309052  24.1583767
  29.3874092   0.6978059  52.4477386  30.3154507   0.5993772  52.2349434
  28.9290180   0.2749285  51.7215958  77.8907928  52.6304283   6.4230437
  78.6627808  52.3127251   5.9547172  77.5142288  53.2921753   5.8429370
  42.7509346  50.6678658  81.7899017  43.5296822  50.1270370  81.6584015
  42.4388008  50.4300423  82.6629639  71.3842926  61.3302917  33.2831688
  70.7801590  61.8582649  32.7611580  71.7298584  60.6833572  32.6681099
  58.7131157  64.3071442  46.1649284  57.9745941  64.7946625  46.5298195
  59.3823318  64.9720383  46.0027618  23.2024574  63.2453041  82.1878281
  22.6193180  63.9812927  82.3735657  24.0468845  63.6519394  81.9933472
  81.4002228  34.6954155  79.7310486  81.4329605  34.9094772  80.6634293
  80.5816422  35.0854034  79.4243622  63.7179756  61.0603218  32.0265121
  63.3976784  61.0421295  32.9283524  62.9605713  61.3333511  31.5088043
  76.9752884  31.3632832  33.1504288  77.9231186  31.4842911  33.0938148
  76.6854019  32.0304222  33.7726212  78.2473221  67.1466293   0.6027516
  77.8680344  66.4056244   0.1302256  78.6478882  67.6858444  -0.0791786
  74.8098145  10.6456776  79.8664322  74.9006119  11.0330191  80.7370377
  73.9584961  10.9531631  79.5550766  84.4268188  18.1427460  88.5943222
  84.1093369  18.9712639  88.2351608  84.2026901  18.1831722  89.5240326
  12.6996393  46.1265259  53.9676399  12.9389210  45.2180176  53.7843666
  11.8341923  46.0692520  54.3725510  54.7684517   6.0837531  42.0275879
  55.0134659   6.8292332  42.5757294  54.5472908   5.3911357  42.6501656
  65.4819717  58.1991577  85.8463745  65.8990250  57.3383369  85.8104324
  65.1918945  58.2870369  86.7543182  69.9510651  23.3304405  62.2834435
  69.4688034  22.7119312  61.7347183  69.5213165  23.2787704  63.1371880
   1.7034464  58.7552795   2.8984983   1.0498013  59.2918777   3.3468769
   2.4515681  58.7405434   3.4954309  24.9096508  65.3303528  59.7345924
  24.3000889  65.1557770  59.0175247  25.5973549  65.8660965  59.3392754
  13.9465504   3.3434687  55.0894394  13.7778950   3.8121181  54.2720337
  14.2969589   4.0103502  55.6799622  68.9195023   0.6455547  82.4977570
  68.1959229   1.2690845  82.5599518  68.5451202  -0.1116811  82.0475769
   4.9241652  54.9331322  72.0157242   5.1981139  55.7505417  71.5997620
   4.0872388  55.1438255  72.4297256  54.8966370  69.3844528  49.4021072
  54.9823418  69.7122498  48.5068779  54.6981506  70.1619949  49.9239006
  47.0531120  48.6058769   4.5814152  47.9243927  48.6052017   4.9777737
  47.2183838  48.5618477   3.6396198   1.8454356  48.1265907  71.1034851
   2.4570785  47.6107407  71.6288681   2.3707643  48.4472656  70.3703918
   4.5875382  54.2303925  27.6290474   5.0175967  53.9408150  28.4336758
   4.8135881  55.1577263  27.5570412  66.7976227  12.0430965   9.8063087
  66.8626175  11.6536388  10.6782780  66.4137878  11.3538990   9.2641735
  66.9540634  38.0174866  60.5507278  66.3586044  37.2968903  60.7566528
  66.4298401  38.6170959  60.0197906  39.3112869  52.3767014  70.4866867
  38.8700218  51.5516968  70.6888962  38.6211014  52.9366074  70.1311798
  59.2507820  11.5069942  38.4669914  59.2249832  11.1038685  39.3347816
  58.3402519  11.4986668  38.1718674  76.5897369  59.9504776  82.5845337
  76.6309662  60.8300323  82.9599228  76.1737671  60.0734940  81.7312622
  40.4163933  63.2869034  47.3576927  40.7590714  63.9835014  47.9176521
  41.1913681  62.7955589  47.0852432  45.1784859  67.5948029  82.8395157
  44.5252380  67.0480423  82.4029846  45.0163956  67.4620743  83.7735062
  83.2299347   7.1540494  53.6290741  83.9342575   7.2764492  52.9925308
  82.9984207   6.2282252  53.5550423  57.7624817  35.9787674  12.4109831
  58.1107140  36.5490227  11.7255812  58.2339973  35.1534119  12.2983398
  85.3377838  45.6302795  22.1871395  85.6359711  46.3158226  22.7849197
  85.8724594  44.8684273  22.4106064   8.0857258  34.2111130  80.7457428
   7.5909886  34.6675949  81.4262543   8.8124428  34.7999153  80.5422134
  15.1482162  35.0914154  55.3176193  15.7115698  34.4146767  54.9422684
  15.3006296  35.8611298  54.7694016  30.9302521  70.6637573  54.8623543
  30.0194340  70.6543121  54.5681534  31.2237301  71.5610275  54.7042198
   0.3768478  55.0209084  19.7823429  -0.1916302  54.2555809  19.8680077
   1.1525960  54.6933098  19.3272343   3.9644415  10.9414587   0.5222388
   4.0402732  10.3167086   1.2434660   4.7681398  10.8218756   0.0162735
   0.1652568  61.7286949  47.3467560   0.2411320  62.6672020  47.1744766
   1.0237756  61.3729095  47.1174278  36.2452583  14.5438099  63.6868324
  36.5182800  13.8691568  63.0651131  37.0628586  14.9520340  63.9716454
   2.6451311  65.6331787  53.2023315   2.7285528  65.4149857  54.1305885
   3.4049089  66.1850357  53.0167885  85.9622421  27.1118298  71.8667068
  85.0967026  26.7056637  71.8207779  86.1730652  27.1214275  72.8003464
  42.7437515  66.1801758  63.5797806  42.7353287  65.8559189  64.4803467
  43.6613350  66.1231995  63.3132744  36.6981735   0.0794908   3.6470416
  36.2829399  -0.5067293   3.0144591  36.0706367   0.7934435   3.7597530
  72.4289246   1.1937251  58.3757782  71.5915604   1.5514014  58.0806274
  72.2218399   0.7438836  59.1949196  81.5402527  60.2726440   4.7471666
  82.1939240  59.8445511   4.1942778  80.7202454  60.1832733   4.2615442
  25.8508434  17.4613361  71.5336838  25.8078747  18.3238258  71.9466019
  24.9576626  17.1223907  71.5934982   6.0450149  67.8677521  23.6886902
   6.4579687  68.4096222  23.0163231   5.1290565  68.1456833  23.6910915
  16.1123466  52.7460480  17.5002975  15.5088005  53.1060257  16.8503876
  16.4553318  51.9502411  17.0937519  61.6389351  22.7690182  73.7829819
  61.8665352  23.0057430  72.8838730  62.2607651  22.0788403  74.0136642
  50.3867378  57.1989632   2.6290791  50.4795647  56.2679329   2.4270921
  50.5416374  57.2560997   3.5719330  46.8642273  33.6639709  55.6807404
  45.9991264  33.5949821  56.0845718  47.4773216  33.5492477  56.4068146
  59.9934959  23.6801109  82.7869339  60.7947960  24.1966591  82.7013550
  59.9401093  23.1837788  81.9702148  48.8677330  34.7276192   8.0385761
  48.8886337  34.0470810   7.3657761  49.7436905  34.7102623   8.4241018
  56.5576363  62.8209763   6.6590557  56.8004799  63.4882278   6.0171552
  56.2054329  62.1015053   6.1350851  71.8781738   4.9441195  66.1077042
  72.3551407   4.4407377  66.7675018  72.5473480   5.2033792  65.4742813
  70.0740891  38.1660347  56.7603188  69.2240982  38.5112610  56.4872475
  69.9837112  38.0248451  57.7027245  16.3036327  65.8692856  37.9840431
  17.2356339  65.6620789  37.9157028  15.9249277  65.1204605  38.4445534
  30.5608482   4.8011842  35.0081673  30.3341007   5.5170298  35.6017838
  30.7491055   4.0615230  35.5858269  18.8886471  48.8625107  72.5026855
  18.4217319  49.5387840  72.0118942  19.3449516  49.3409004  73.1949005
  45.1407166   6.3346038  17.0157204  45.7379608   7.0468535  16.7871819
  45.0173874   6.4194922  17.9611378  69.4015274  59.4926987  69.1499634
  69.4384689  59.0475540  68.3033752  70.2689362  59.8841858  69.2527695
  54.6215019  15.7775965  86.5036926  54.0407639  15.0396824  86.6893158
  54.9525528  15.6059828  85.6221085  31.2154446  10.2187042  78.9158859
  32.0480118   9.8815346  79.2466202  31.2332706  11.1517105  79.1289902
  42.4208946  44.7620430  68.8994141  43.2282028  45.2672081  68.9958267
  42.6530418  44.0512810  68.3017883  60.0142593  64.5601425   4.7944016
  60.8766403  64.8866425   4.5376329  59.8195419  65.0161743   5.6131539
   2.5299556  12.9054298  24.8275166   1.6134723  13.0286827  24.5803337
   2.9829884  13.6602306  24.4516602  53.5857620  54.9898262  83.3459930
  54.5125961  55.0939980  83.1306915  53.1223068  55.3680153  82.5987244
  79.6281357  39.1334457  16.6739616  79.2103119  38.3654518  16.2842922
  80.2403488  38.7733192  17.3156261  30.6129456  17.2227497  64.8720551
  29.7876415  17.6955128  64.7643433  30.5955334  16.9137821  65.7778473
  72.2184219  10.8410349  32.3389587  72.2853165  10.4986019  33.2303047
  73.0831451  11.2096872  32.1584816  12.8505917  65.2819366  24.1414795
  13.7946806  65.2990570  23.9845238  12.6356058  64.3515320  24.2075348
  53.5530510  21.3145428   9.2540007  52.6283836  21.2641525   9.0117531
  53.6908607  20.5630951   9.8306847  71.1510086  51.2090187   0.3056385
  71.4687424  51.8342819   0.9570407  71.1050186  50.3763008   0.7754221
  52.5664482  16.7669506  81.8975754  52.7360687  16.1473503  81.1879578
  51.7455482  17.1935768  81.6519241  24.3204918   0.6275231  86.0786514
  24.2070675  -0.3184003  85.9859390  25.0749702   0.7224398  86.6600189
  14.6854429  14.3551903  70.4401474  15.6408243  14.3693533  70.4973907
  14.3939028  14.9100332  71.1635971  29.8433266  28.7482700  80.9619980
  30.7869911  28.8301029  80.8240433  29.5795078  29.5952053  81.3216248
  75.4984970  23.0383911  66.5506287  75.6415100  23.0806866  65.6051178
  76.1282120  22.3868752  66.8592072  35.4371796  35.6624336  72.1891098
  35.8529968  34.8105659  72.3219452  34.6076965  35.4592552  71.7567749
   1.6802510  43.8243637  25.5353642   1.2792805  43.1710701  26.1086540
   2.5994055  43.5629005  25.4803829   7.3626332  63.8440247  63.4005356
   7.1600313  62.9315453  63.1942368   8.2966633  63.8405685  63.6098366
   7.8502865  17.1077595  51.5790634   7.0266886  16.9248924  52.0312538
   7.9064012  16.4337654  50.9017029  14.4395428  50.8561707  31.9837894
  14.4847078  50.8687057  32.9398422  14.3512297  51.7765427  31.7360954
  39.1567917  34.6931572  11.9771414  39.0248108  34.2551956  11.1363068
  38.8347282  35.5835228  11.8365927  43.4133072  61.0374298  20.9521446
  42.6562080  60.9041634  21.5224667  44.0490837  61.4961357  21.5013351
  11.5001764  34.3070564   8.3358459  11.5081568  33.3660049   8.1609516
  10.8147001  34.4225693   8.9938822  16.6125011  68.2439804  29.6407681
  17.3390656  67.6216278  29.6088257  15.8286619  67.7018127  29.5519581
  55.8712807  11.5018253  63.0350609  55.3166580  12.2799168  63.0915985
  55.3332825  10.7974310  63.3964691  13.6604023   2.2318656  16.9237881
  14.3477983   2.6393795  17.4507141  13.6587172   2.7294431  16.1060791
   1.0815561  34.8076897  71.8760147   0.8581464  35.6067810  71.3987503
   0.8300266  34.0976944  71.2853622  59.3663483   0.4185016  60.3069000
  59.6063118   0.6854191  61.1942596  59.9533424   0.9182159  59.7394867
  73.6820068  20.1311665  33.0174294  74.3659515  20.6693840  32.6189651
  73.7225342  19.3015232  32.5417366  54.4032173  17.7011147  27.1975040
  53.5040970  17.3732758  27.2157974  54.5518875  17.9416618  26.2830296
  82.1984253  54.6039124   2.7151186  81.4705429  53.9822884   2.7175882
  82.6283112  54.4659958   1.8710767  65.3407669  31.5212879  82.2436523
  65.5525436  32.0468636  83.0151138  66.1780090  31.4082012  81.7936783
  33.8877182  47.4256096  22.7239933  33.6663246  46.9725418  23.5375938
  34.6934776  47.0032845  22.4262886  17.3365765  46.6812820  82.6543503
  17.4756031  46.3368149  81.7721710  16.3875027  46.7840576  82.7245331
  62.3985672  15.8945131  17.4200497  62.7201920  15.0863781  17.8196812
  63.0871277  16.5369740  17.5913944  72.2275238  27.2359867  72.7768707
  73.1550598  27.4649448  72.7177887  72.2224503  26.2865219  72.8982162
  49.7101631  27.7569523  73.0719299  50.5722771  28.1237297  72.8758163
  49.0940781  28.4438725  72.8173523  69.6645355  10.7029572  71.2273026
  68.8194656  10.3843708  71.5444794  70.2734985  10.5194511  71.9426498
  18.5391693  39.8827019  42.7253265  18.8399868  39.4792099  43.5395355
  17.8831787  39.2745094  42.3847198  62.2294083  46.2018738  85.4418716
  62.4569588  47.1277924  85.3574982  62.9689064  45.7368698  85.0505371
  38.7474709   2.1989508  28.2806091  38.9851303   1.2808582  28.4104385
  38.9093056   2.6105981  29.1294842   1.2650826  69.6055756  72.1110001
   1.6105287  70.1479416  72.8200378   0.9330366  70.2333527  71.4692230
  28.3352203  54.4373512   2.6125054  28.2910156  54.4716797   3.5680678
  27.5372562  54.8776245   2.3198526  -0.1047042  49.5997009  42.5574074
   0.0638191  49.4600067  41.6255722   0.1197089  48.7652206  42.9691238
  42.7583199  20.3210411   0.9793933  42.6046524  21.2540474   0.8306748
  43.6950684  20.2043400   0.8209004  61.2782059  40.2637825  89.1597290
  61.4930420  39.3935089  88.8240128  60.8811455  40.7162781  88.4155350
  44.1082726   0.3657184  70.5774307  44.3119125   1.2539344  70.2844543
  43.6307182   0.4877457  71.3979645   0.8668326  67.6870346  22.9458561
   1.3948954  66.9374237  22.6711540   0.7832041  68.2229767  22.1571846
  84.7325134  58.6206055  24.7331924  84.4156342  58.3488503  25.5945683
  84.2422256  58.0780983  24.1155128  58.7719116  59.3707962  79.7466507
  57.9544907  59.0143967  79.3987579  59.2542839  59.6627655  78.9731522
   2.9945583  29.6520691  53.7548752   3.4577925  29.3235130  52.9843597
   2.6945655  28.8641186  54.2080536  13.7926912  42.4387512   3.5681169
  12.9452152  42.8830757   3.5924535  14.1222343  42.5022240   4.4645567
  37.2773514  66.0409927  64.7840195  36.9238510  65.3450546  65.3380432
  38.2105789  66.0647812  64.9955521  20.6867943  35.4161339  79.7410126
  19.7430096  35.5615540  79.6750336  21.0523224  35.8664017  78.9795074
  10.3781471  27.8686295  14.1711683  10.8229952  28.2439804  13.4112644
  10.4264326  26.9225636  14.0338259  52.3152924   0.8672971  57.3956337
  52.9109421   1.6148201  57.4470062  51.5739594   1.1866784  56.8811874
  55.2175789  10.3526039   9.2073288  55.8477325  11.0670881   9.3003330
  54.7442093  10.3409405  10.0392046  18.6204472  66.6492844  31.5511036
  18.3403091  66.5251923  32.4579430  19.0167789  67.5205002  31.5399380
  63.9820061   4.7569332  30.8261795  64.2602615   4.2869759  31.6122742
  63.6530991   4.0734296  30.2423344  86.2679672  64.7700882  75.9373474
  87.0641861  64.3458328  75.6175232  85.6721344  64.7568893  75.1883240
  30.4540348  15.5313139  62.0030975  31.1275005  15.8960466  62.5772438
  30.8903122  15.4285564  61.1573219  57.5682449   3.7122786  30.4448147
  58.4281845   3.5081174  30.0773144  57.5145378   4.6674194  30.4123573
  62.0153809  55.2814674   6.9585276  61.4860420  55.0514526   7.7221541
  62.9103203  55.0531464   7.2098923  34.7602081  68.0024109  31.3978844
  34.9538040  68.5555954  30.6410885  33.8115463  67.8784943  31.3675652
  14.7449131  47.3088913  67.0096054  14.9306631  48.2127228  66.7550201
  15.3536320  46.7837868  66.4900284  68.4416885   3.9279509  77.8164825
  67.9861755   3.7984693  76.9846268  69.2729874   3.4658031  77.7088089
  31.1702938  69.2060699  77.8813400  30.6359539  69.2437744  77.0880585
  30.6835842  69.7236633  78.5227814  27.2227592  68.8583221  83.4908524
  26.3627968  69.2753906  83.5432892  27.0564251  67.9393005  83.7005234
  33.8979683  71.2388458  11.5436668  33.0455513  71.4012375  11.1396332
  34.0766029  72.0298920  12.0521669  80.1422806  48.7938614  88.3851547
  79.7969589  48.3051071  87.6380997  79.8897781  48.2745132  89.1485367
  83.4796982  39.1733322  73.4197311  83.8726120  39.6897049  74.1234436
  83.0426788  39.8188667  72.8642731  38.5127449  62.8664398   6.4334092
  37.6830940  63.2143517   6.7603173  38.2593307  62.2412758   5.7543049
  40.7772636  26.3448811  14.0799580  41.3086891  26.2931690  14.8744049
  41.0527763  25.5912800  13.5580301  37.4624481  45.4568253  78.7407761
  37.7437515  45.0345879  79.5524521  37.4347229  46.3897362  78.9532318
  61.1090393  29.4934502  56.5154839  61.0498123  29.9498997  55.6762085
  60.4189034  28.8312721  56.4772148  20.0431004  54.8878403  40.0817757
  19.4650173  55.6083412  39.8309174  20.8872948  55.1103020  39.6892471
  70.5283203  16.0165825  69.2072983  71.0899811  15.4562702  69.7428589
  70.6574783  15.7005062  68.3130722  13.3159103  50.0724983  37.7256546
  12.6231070  49.5747299  38.1597977  14.1284132  49.7115555  38.0803223
  17.6018639  34.9748955  72.4736633  18.2641449  34.2867775  72.4095535
  17.2940006  35.0954514  71.5753784  82.0519791  15.7459459   5.5019851
  81.2303085  15.8297262   5.9857907  82.4984589  15.0065098   5.9144430
  37.5082664  30.4985390  87.1974335  37.1708336  29.8840542  87.8491821
  37.2407494  31.3595295  87.5189285  75.1095886  29.6588249  75.5075607
  75.8889923  29.5017281  76.0405502  75.4325256  30.1438332  74.7481461
  15.4232664  63.5537796  54.4186745  16.0243587  63.8902512  53.7540627
  15.3599176  62.6170769  54.2321091  80.8023453  16.9869251  66.9564133
  81.1942139  16.1192665  66.8572159  79.8692093  16.8482418  66.7943573
  39.0837288  18.1121807  68.4518814  38.5122528  18.6212349  67.8769760
  39.0096207  18.5412941  69.3042908  44.1087608  23.1389999  77.7271729
  43.3737984  23.3399391  78.3065567  44.3408661  23.9803448  77.3341064
  58.7456589   9.9979620   6.7987857  59.6357002   9.8030415   6.5054169
  58.5352249  10.8353014   6.3854895  15.3846397  51.1166115  46.8228531
  15.5309010  51.4132957  45.9246216  14.4758787  50.8160744  46.8308449
  34.3472633  58.3114243  38.1552505  34.2320480  57.4246368  37.8138351
  34.4631157  58.1919899  39.0978775  79.6751938  57.7461090  43.6368027
  80.1663361  57.2826309  42.9584236  79.1895752  57.0587425  44.0927925
  18.3685913  52.7924690  48.1697159  17.6076069  53.1393738  47.7041092
  18.7523441  53.5548820  48.6029472  64.7982864  27.0232487  85.1693954
  64.3866882  27.5864468  85.8248520  65.1708679  27.6314297  84.5310135
  57.7315788  69.1183014  25.4961128  57.3408775  68.5711212  24.8148079
  58.1535149  68.4970474  26.0896091  57.4906235  63.8804054  52.0022202
  57.9224854  63.2583199  51.4167824  57.5663376  63.4844742  52.8703995
   3.0437720  28.6968937  77.0134735   2.2457259  28.1692715  76.9823456
   3.5704792  28.2940292  77.7037659  83.2616348  25.7401657  71.8102722
  83.4732361  25.4211559  72.6875916  82.3064880  25.6979027  71.7639618
  40.3496284  29.8956718   6.3052011  41.1931534  29.9773903   6.7501974
  39.7867241  30.5367012   6.7393112  26.3602982  51.3356323  54.5016899
  26.8213444  52.1078873  54.8292427  25.4350281  51.5252342  54.6571198
  37.8116112  49.5926628  63.3843803  38.5432129  49.9609604  62.8890533
  37.1307755  50.2640762  63.3408508  11.8910999  48.6331787  85.9112701
  12.5284863  47.9877396  86.2168503  11.1916161  48.6067276  86.5641556
  74.7750244   4.6526222  47.9607353  74.3656082   3.8754523  48.3410187
  75.4515381   4.8997302  48.5912132  42.6188164  57.5236740  87.8522415
  43.2615204  57.9317551  87.2720413  41.8382111  58.0711670  87.7677612
   8.5532217  54.0916061   7.5095596   8.1873312  53.2221642   7.3469987
   8.3712263  54.5817909   6.7077937  26.2634411  22.3568172   3.4014955
  26.6522579  21.8679314   2.6762056  25.3784409  22.5655670   3.1024468
  72.6617050   7.5172071  27.3951530  73.5654449   7.2368898  27.5397148
  72.7128677   8.1156816  26.6498737  81.5363770  31.6547966  17.0037670
  81.9240341  31.3132458  17.8095570  81.9905548  32.4836121  16.8520603
  36.1085358  66.6713028  60.2784576  36.7691879  67.3459702  60.1216393
  36.4653130  66.1491394  60.9969902  78.4822311  46.9618340  35.1030769
  78.3628006  47.2730331  36.0003624  79.3822021  46.6366272  35.0801544
   0.6610931  49.3752136  73.1948471   0.5142776  48.7223129  73.8792419
   1.0715382  48.8863640  72.4815521  59.4541092  24.4123840   4.4000344
  60.2147942  24.7412338   3.9210310  58.7102013  24.6043835   3.8290973
  80.7996063  20.0416946  81.6693192  80.7977524  19.0887699  81.5789566
  81.5245743  20.2241898  82.2671051  74.2395477  52.2526245  58.2813225
  73.2940826  52.3025398  58.4221573  74.3483353  51.5605278  57.6290970
  82.5643539  18.1113453  39.1270256  83.2260742  18.6735382  39.5298882
  82.7018661  18.2163181  38.1855888  59.4748573  11.5349169  45.0253372
  59.6534996  12.4385519  44.7650223  59.3140411  11.5844488  45.9676285
  24.8727322  65.5541992  87.9838409  24.0108643  65.8846130  88.2372971
  25.3413048  66.3261337  87.6663589  42.0416107  51.4964600  67.2279816
  42.6550407  52.1156464  66.8323212  42.2756004  50.6504440  66.8462219
  20.8942738  25.4837551  65.8449478  21.2107639  25.5442829  64.9436188
  21.6290417  25.7878761  66.3777313  18.5489120  11.0304689  13.2226343
  17.7461624  11.2732506  13.6840229  19.1012077  11.8104219  13.2762470
   0.2744616  61.9941902  65.4709549  -0.0214807  62.8614731  65.7474899
   1.1599534  62.1383972  65.1372757  10.8893957  68.9824753  51.3667183
  11.0956230  69.9087219  51.2411156  10.9370737  68.6052246  50.4882889
  12.0898294  52.8514023  14.9564629  12.1797295  53.5731583  15.5787277
  11.2220840  52.9738159  14.5714102  21.1202621  61.8411255  32.3825188
  20.7028351  62.6605377  32.6481323  20.4426079  61.3747711  31.8931007
  10.3597078  60.1725082  68.1918488   9.5185165  59.9487610  68.5900497
  10.6378136  60.9659309  68.6494217  75.8061218  52.3050156  19.0278187
  76.3606720  52.6540871  18.3300667  76.3784637  51.7119522  19.5145721
  70.4972458  41.7164345  18.5467224  71.3315353  41.6662407  19.0132675
  70.6404190  42.3786316  17.8705368  39.8630447  43.7418137  76.6369934
  39.9624710  43.7525330  77.5889511  39.3635292  42.9453011  76.4573059
  21.3813248  41.3461914  19.5021763  21.6995277  41.5999947  18.6358261
  20.9503613  40.5031471  19.3615360  17.5062447  68.2014008  45.1814041
  17.7564888  68.3483047  46.0935631  16.8827438  68.9015579  44.9883614
  53.6449127  12.7629976  29.5247021  54.1274567  13.3603249  30.0961742
  53.5487404  13.2435274  28.7024651  33.4395866  15.7944574  75.4842911
  33.8493958  16.5024872  75.9812622  33.6706276  15.9763136  74.5733719
  34.1746826  17.6975365  83.2871704  33.4323959  17.1496277  83.0321350
  34.9029732  17.3769493  82.7551498  59.7605324   8.3621483  66.7860641
  59.8644485   9.1808596  67.2709808  60.6189804   8.2063751  66.3923187
  54.9322090  29.0033836  32.8664665  54.6822128  28.1721268  32.4630508
  54.6405754  28.9260349  33.7748718  50.5537796  44.3065033  12.5184364
  51.4104309  44.5693932  12.1818781  50.7518616  43.6796532  13.2141762
  20.0775490  43.3257217  20.3838100  20.8268642  43.7679100  20.7828465
  20.3992920  42.4481201  20.1776009  50.5832062  42.9614143  87.5539474
  50.3641777  42.0499344  87.7475052  51.0075722  42.9288940  86.6965790
  40.7879295  16.8807182  74.9462585  40.5285912  17.6699848  75.4216919
  41.6671906  17.0747814  74.6214981   4.4492726  50.6255150  50.8857117
   4.3238583  51.2941284  50.2123184   4.7621760  49.8584213  50.4062462
  79.9397278  35.8488503  63.1770401  79.3499298  35.9455338  62.4293633
  80.7584152  35.5305367  62.7966957  34.1814346   0.3569171  27.7590809
  34.4771423   1.2621604  27.6625271  34.1249008   0.0264967  26.8624992
  78.9682312  39.1485710  61.7248077  79.5264740  38.9729233  62.4822655
  78.8924789  38.3033562  61.2819672  68.9220886  71.1482010  48.6609955
  69.3920441  71.8760986  48.2541389  68.0064545  71.2901459  48.4207878
  86.5204926  45.3903236  40.8347054  85.8242416  46.0435753  40.7659378
  86.1460571  44.6975746  41.3788872  22.6727276  49.5181465  50.5920792
  21.9057579  49.5887756  51.1604118  22.4666576  48.7943726  50.0005417
   9.4919720  46.5863113  43.9207344   8.7749424  47.0963821  44.2974663
   9.4999542  46.8314438  42.9954872  62.2197723  18.0743237  40.8790894
  61.3520317  18.3420734  40.5764885  62.1161842  17.9483318  41.8222923
  58.7657127  48.7683678  72.0520630  59.2589111  48.9836082  71.2604523
  58.7363396  49.5876656  72.5461502  35.6204605  53.9485474  66.5108109
  35.2763023  53.8922234  65.6194000  36.5524330  53.7496872  66.4207382
  80.6134949  51.3481636  34.6803970  80.5797653  50.8787575  35.5139122
  81.1415634  50.7881851  34.1113586  66.1160507  25.1344872  65.5350723
  66.1980286  24.4970570  66.2444382  65.3358765  24.8585033  65.0540466
  61.9334450  52.1432838  17.3856411  62.1930618  52.2420387  18.3016529
  61.0455780  52.4990273  17.3486462  49.7107239  27.0065727  29.7565804
  49.8295250  27.5812683  29.0003757  49.8170052  27.5822163  30.5139236
  42.5815697  18.8554668   9.9312916  42.2336464  17.9933014   9.7035789
  42.0627136  19.1311836  10.6869364  48.2631950  65.0711365  24.5630741
  49.1255112  65.4338379  24.7657795  48.2138710  65.0904465  23.6073418
  84.7574463   3.2350514  77.9689636  84.7985687   3.7172866  78.7947922
  83.8215714   3.1551187  77.7846298  84.2654953  34.1813126   2.7433386
  83.5666275  33.6188889   2.4094279  83.8155670  34.8189354   3.2976284
  30.8554058   2.1462696  72.3484955  31.5597992   2.2350392  71.7064819
  31.2539711   2.4066939  73.1788940  83.6947784  56.6666527  11.6847811
  83.9790344  55.7534332  11.6466045  83.1644516  56.7855606  10.8968439
  49.6607475   3.1897993  39.4837646  48.9980316   2.5068636  39.5869141
  50.2347641   2.8637872  38.7906189  77.6375732  14.4256449  49.1025314
  77.2494354  14.2008734  49.9481430  76.9718323  14.9582872  48.6674232
  86.7219849  21.4975395  45.7771530  86.2872314  20.7756710  45.3231468
  87.1771927  21.0807991  46.5088272  76.5608292  52.1461678  85.6711731
  76.0893707  52.9792099  85.6694107  76.5352707  51.8584251  86.5837402
  46.5331535  66.9636459  50.0584679  46.2167702  67.5077896  49.3373299
  46.9283829  66.2043686  49.6300697  42.4575691   8.2305126  72.1273575
  42.5330772   7.3663487  72.5320206  42.9576797   8.1588001  71.3143539
  30.9446602  58.2631798  30.9105129  30.9155617  58.7125702  30.0658627
  31.7612152  57.7642021  30.8883324   2.6459689  39.3610725  62.6756668
   3.5625689  39.5026779  62.9123611   2.5199411  39.8827019  61.8830452
   4.6499457  35.6809120  38.8698807   4.6974106  35.0095062  38.1892967
   3.7264996  35.9316025  38.8950233  74.5489426  19.2386036  18.0604362
  75.4351273  18.8880730  17.9708385  74.2308502  18.8770142  18.8876629
  47.3274307  48.9734421  70.2216339  47.9832802  49.6199532  70.4826355
  46.5269394  49.2510796  70.6670151  59.7379990   3.1878138  12.1766510
  60.2070808   3.9136598  12.5881624  58.8832283   3.1801519  12.6073990
  73.1419449  64.3686523  76.2187424  72.5232086  64.5713425  75.5170975
  72.5982666  64.2922211  77.0028381  47.0422974  57.8877068  75.2726288
  46.4257202  58.2687149  75.8978424  47.8196564  57.6880341  75.7942352
   7.4293709   2.2230289  46.5311928   6.6883788   2.6397021  46.9711304
   7.1507249   1.3168790  46.3989754  79.5711212  37.7436829  81.8400879
  79.6335678  37.7855606  80.8858414  78.8199615  38.2965126  82.0554428
  44.4158707  61.1838570  28.1480350  45.2060471  61.5781250  28.5173664
  44.6265106  61.0452042  27.2246494  40.8269386  65.9684982  68.7307968
  40.9149437  66.8874817  68.4779282  41.5534096  65.8157272  69.3350601
  50.6481476  52.4824829  48.4052353  50.7462921  53.4344940  48.3888016
  49.7434082  52.3302231  48.1322975  84.1840820  27.5447865  64.6993332
  83.7533798  28.0279560  63.9941559  84.7734070  28.1828003  65.1016541
  45.9012184  35.8301468  53.4789963  46.4987946  36.5696259  53.5899582
  46.0284233  35.2993355  54.2653122  58.1603470   0.1955976  50.6387405
  57.6173363  -0.4583163  51.0789337  57.5608292   0.9178750  50.4513283
  36.3225670  64.0188522  72.9952469  36.8708420  63.2343597  73.0095825
  35.4933586  63.7386436  73.3827133  33.9817810  18.4486027  11.3495045
  33.9491539  18.3793583  10.3953705  33.2115707  18.9688206  11.5783730
   5.4733534  57.2448120  28.5764027   5.5448995  57.1882973  29.5292511
   4.6143599  57.6385498  28.4236488  52.2768631  31.1430626  87.1818771
  51.4948235  30.6017990  87.2899475  51.9384041  32.0261765  87.0342789
  53.9918365  68.5288467  64.0455780  54.8825493  68.6728287  64.3651657
  54.0481377  68.6818619  63.1023674  31.3502636  21.0000515   0.5160025
  32.0202866  20.3765316   0.7962222  30.6821480  20.4600487   0.0938017
  62.0621185  57.5491486  30.2780094  62.6961937  57.5738335  29.5613689
  61.7451401  58.4495888  30.3484764  29.5614891  69.1025391  18.5806980
  29.3305550  70.0268478  18.6731281  30.4561653  69.0445023  18.9159870
  22.7335663  42.7854729  84.2588043  22.9038525  41.9021263  84.5858154
  22.4610786  42.6561775  83.3503647  76.8068161  15.1122561  72.9774704
  76.7375031  15.9916172  73.3491592  76.0230637  14.6586628  73.2876511
  47.7067566  58.3073006  52.3777657  47.7030754  58.8753815  53.1481552
  47.7626305  58.9098549  51.6361198  51.0996475  18.1745453  85.6625214
  51.3032036  18.6266308  84.8437347  50.2919044  18.5865402  85.9691925
  56.7392654   0.9808728  15.3361330  57.0756874   1.6505141  15.9316444
  57.4992371   0.4342110  15.1365366  24.4594059  54.7331467  71.9301071
  25.0647202  55.4692078  72.0197754  24.2839050  54.4564400  72.8294754
  66.7530518  26.5976009  42.0355339  67.2199326  25.9832745  42.6019783
  65.9941025  26.1054001  41.7225342  79.6562271  49.8360901  72.6263428
  78.8433609  49.8701630  72.1220474  80.0676804  50.6870384  72.4752426
   3.4769826  37.4891472  48.7447052   3.8200829  36.9538040  49.4601898
   4.2479200  37.9232178  48.3793678  76.7898712  20.6350136  32.3742371
  77.0479660  21.1387081  31.6022854  76.9486618  19.7233639  32.1294708
   5.5394888  63.9312668  34.5948029   5.8808212  64.0466537  33.7080040
   6.0632381  64.5254745  35.1322403  85.4874344  18.4879818  41.8107719
  85.0474243  18.6142330  40.9701271  85.6299210  19.3746452  42.1420708
  69.6349792  66.2091446  72.8214417  70.3819656  65.6207123  72.9309616
  69.8656616  66.9863129  73.3303986  21.6030655  29.3028984  28.2163906
  20.9793453  29.9921455  28.4447365  22.4347782  29.7618732  28.0988007
  69.2207184  56.4552727  18.4935074  69.4763336  57.2027779  17.9530220
  68.3301773  56.2482109  18.2101402  14.2221727  28.2832527   1.1832744
  13.8677082  27.8846416   0.3884812  15.0075312  27.7718410   1.3779573
   7.3972216  63.1306763  29.4990482   7.2971787  62.5940742  28.7127380
   8.2671947  63.5206833  29.4137745   0.5855876   5.9179368  69.9531326
   1.2363225   6.2120128  69.3157196  -0.1830791   6.4610124  69.7786255
  67.5127487  53.4340134  29.6974888  66.8521881  52.8917236  29.2664261
  68.2364197  52.8334389  29.8759365  80.2531815  27.8882904   7.1305594
  80.5133057  27.2837353   6.4355183  79.5735474  28.4324265   6.7327595
   7.8127170   6.4878278   0.3815188   7.2987418   7.0861921   0.9237564
   7.3519111   6.4689574  -0.4572502  20.9551430  26.1799698  71.2180710
  21.1507568  27.0834255  71.4665375  21.5657082  25.9898968  70.5058136
  77.0715332  19.3147926  69.2968521  76.6947021  19.7024002  70.0867844
  77.0748978  18.3734169  69.4701462  51.3765945  34.7788162   9.5814838
  51.5128593  33.8355446   9.4926176  50.8109550  34.8678894  10.3485250
  46.5052948   6.5344329  65.0793533  46.2319679   5.6832867  65.4215164
  45.8605919   6.7384739  64.4018860  16.0428715   2.2814603  14.2326021
  16.7498417   2.7945096  14.6240168  15.3101912   2.8939631  14.1673985
  79.4923248   1.7809936  51.4719543  78.7588272   1.9510512  52.0629692
  80.1955872   1.4752555  52.0448227  79.7320328  17.5972862  25.4836578
  79.9036407  17.2633152  26.3641396  79.7383423  18.5492821  25.5831432
  39.0575638  11.8275881   6.6132851  38.6071854  11.0178289   6.3731151
  39.8961067  11.5377655   6.9725585  56.1323013  68.8862915   4.3409128
  56.8716888  69.2934647   4.7922964  55.7015419  69.6098938   3.8858676
  65.4968567  10.2923307  85.2606049  64.8039780   9.7131739  84.9432297
  66.2873688   9.9859619  84.8162384  31.2859631  37.2269135  59.9894905
  31.3782215  37.9291344  60.6333885  30.5503902  36.7042503  60.3088417
  74.3511810   1.2278471  72.4931641  75.1257095   0.6879715  72.6509018
  73.6343079   0.5992589  72.4083099  61.9733353  34.1725273  25.7263145
  61.7952766  34.1477509  24.7861481  62.1662102  33.2639275  25.9575787
   4.8253675   8.8994150  39.6453781   4.7407060   7.9696913  39.8567505
   5.4617224   8.9256029  38.9308167  71.4688568   3.8745556  44.7654724
  70.6298141   4.1574821  45.1290588  71.3267822   3.8591986  43.8190002
  71.2924118  31.0768414   4.1273160  71.9594116  31.7282925   4.3440151
  70.4726257  31.4607983   4.4383788  79.2948074  64.5942001  40.3274956
  79.2898941  63.6879311  40.0194511  79.4145966  65.1161880  39.5341415
  60.8309097  67.7092819   2.4153068  59.8930931  67.6213150   2.2450383
  60.9605713  67.2882919   3.2651229  40.2344933  49.2583389  27.4701881
  39.6260223  48.5748787  27.1893311  40.9449806  49.2244682  26.8296471
  49.5770950  62.9402733  31.2767448  48.8491669  63.5600548  31.3238506
  49.3630791  62.2697067  31.9254112  68.6955185  53.8324471   6.7923841
  68.1209869  53.4632645   7.4630904  69.1343765  54.5628128   7.2285113
  18.5829239  21.7373047  78.6802521  17.7116013  22.0488224  78.4353333
  18.8098469  21.1021061  78.0010834  62.5255241  21.6884937   8.7745447
  62.5940361  22.2347450   7.9915080  61.6743317  21.9137554   9.1499958
  20.3123989  15.6635523  87.1361465  20.5143681  15.5341187  88.0627975
  20.0525455  16.5826893  87.0737610  77.5038147  11.9717941  56.1729660
  77.4436340  11.9453163  57.1279030  77.5782471  11.0538321  55.9121246
  79.6094055  67.6069794  77.1352921  80.3257751  67.0153809  77.3656387
  79.1893845  67.8112259  77.9708176  11.7895880  56.6151009  68.6098785
  11.4297514  56.9915581  67.8067398  11.7008600  55.6693649  68.4917831
   5.0881863  71.1634140  14.0805454   4.6898437  70.6832047  13.3546314
   5.1394525  72.0674515  13.7701912  45.3957138  55.7337990  36.1771011
  46.3492889  55.8120956  36.1488342  45.0933189  56.5938644  36.4687843
  82.9028473  15.6014299  41.1022186  83.5466690  15.7191334  41.8007011
  82.6832886  16.4913464  40.8264046  14.8392973  31.0988331  13.0876656
  14.2714252  30.4857769  13.5544786  14.6468449  31.9502144  13.4805336
  29.4008751  44.0590248  82.3675842  29.7060814  44.2323532  83.2581100
  29.9277115  43.3156281  82.0742645  15.2391367  26.3039474  66.3003235
  15.3361406  25.9194145  65.4291382  14.3080158  26.5158272  66.3662796
  62.0311317  51.5906448  77.0058060  62.8549118  51.4987144  77.4845200
  61.8157997  52.5206642  77.0760345  28.9191456  45.6548386  80.0028381
  29.1196995  45.0301590  79.3058548  29.3285561  45.2820892  80.7836533
  65.2609482  30.0170708  75.7483597  65.0274963  29.8855515  74.8294296
  65.4876862  30.9451523  75.8074188  20.1031322  40.5737915  61.6404610
  20.5889378  39.8620186  61.2238083  19.8970051  40.2433586  62.5148506
  57.5218468  64.7418594  68.5188293  57.8016548  65.6446228  68.3672943
  58.2452354  64.2084351  68.1895981  72.2928772  51.9259949   5.1528540
  72.1325607  50.9833374   5.1967807  73.1977234  52.0011940   4.8498034
  70.9289703  26.1335239  81.4277267  70.2399597  25.4697018  81.3986511
  71.2826004  26.0729675  82.3151474  24.8519135  10.8729572  70.4543533
  25.8073082  10.8359213  70.4087448  24.6133823  11.6070576  69.8882904
  64.7345352  13.6742449  25.6123123  65.6007385  13.6934958  25.2054214
  64.1243896  13.6436615  24.8754158  16.0272980  29.8690434  61.4529076
  15.4194088  30.5904770  61.2909317  15.8120937  29.2196198  60.7834549
  80.9574966  38.3925438  70.9160614  81.5067825  39.0720940  70.5252609
  80.1038971  38.8104935  71.0296860  76.0661774  39.5082703  61.5325241
  76.9687119  39.3722420  61.2441444  76.0907440  39.3544579  62.4769669
  36.1063194  68.8217239  81.9247131  36.5038033  69.1765289  81.1295090
  36.4180832  69.3952789  82.6247635  22.6919212  49.3470383  45.9128799
  23.6440048  49.3815804  46.0054817  22.5394325  48.6642189  45.2596321
  25.3965206  61.4974518  86.6399765  25.7516232  61.6107521  85.7583313
  24.4580154  61.6586342  86.5427170  58.3756104  53.8954163  55.0217857
  58.4661560  54.2908249  54.1547852  58.8109550  54.5103836  55.6121445
  58.1508141  25.8339996  17.8558311  57.3146477  26.2420177  18.0807266
  58.1453857  25.0010471  18.3274174  60.8768311  17.7206039  16.3334770
  61.3409691  16.9320850  16.6146297  60.6706314  18.1801949  17.1474113
  27.7239895   3.4020331  30.5520458  27.5288486   4.0161877  29.8442554
  28.3795586   3.8515902  31.0852985   0.1876438  55.5419693  44.5159760
   0.0829660  56.4905052  44.5904808   0.7025609  55.2967110  45.2847023
  72.1664352  67.5733795  60.3936386  71.7566528  68.3050308  59.9321289
  71.4840698  66.9033203  60.4340096  47.1595497  11.2715178  26.3922501
  46.3818550  11.3243685  25.8367081  46.9311180  11.7763824  27.1727390
  33.1589584  64.3019257  12.0027971  32.9026604  64.8073196  12.7742376
  32.3338776  63.9695663  11.6492310  19.6892624  69.9652252  71.7256317
  19.0077152  70.5615234  71.4155502  19.5926132  69.1857758  71.1784973
  48.6927681  71.6827698  25.0548706  49.2173157  70.8896942  25.1649284
  47.8875885  71.3809357  24.6343746  60.2074280  47.6474228  48.9726639
  60.0668144  48.5822296  49.1229744  59.3456306  47.3123360  48.7251701
   6.4695635  45.0655937  71.8397980   7.1791587  45.6857719  71.6722107
   6.6963573  44.6629486  72.6780548   0.5195356  27.6589279  76.8728638
   0.6685745  27.2196846  77.7101746   0.2964571  26.9516296  76.2677231
  53.5123634  38.3335304  38.1545067  53.0971527  38.2927017  39.0159950
  54.3854637  38.6864395  38.3259163  67.1030273  20.6149635  89.2174301
  66.4817810  20.7212105  89.9378433  66.6830826  21.0465794  88.4734039
  66.9681168  48.4729233  56.0801086  66.1871338  48.9823151  56.2964935
  67.2852859  48.8564568  55.2624626  18.3842030  -0.0422759  24.4230862
  18.4143467   0.8236209  24.8299599  19.2396240  -0.1403257  24.0049076
  56.6244431   3.0916548  68.4381180  55.9813309   3.1605740  69.1437302
  56.7888870   3.9970691  68.1746521  32.2573242  49.5012856   2.0888963
  33.0783806  49.5947571   2.5719728  31.7081947  48.9567833   2.6529927
   1.2200810  12.5313911  34.7215958   1.3847225  12.2228870  33.8305550
   1.3301381  11.7535830  35.2685280  68.5470505   8.4971695  63.5063362
  69.3497849   8.9823952  63.6971550  67.9065018   8.8391104  64.1300354
  60.4925652   1.1921256  14.4416933  61.1113281   0.4620248  14.4596233
  59.8001862   0.9047312  13.8465061   4.6533055  46.8526115  19.8395996
   3.9296846  46.9068985  19.2153740   5.0749879  46.0155678  19.6452503
  77.3556671  60.1477051  27.2099743  77.1281967  60.0937500  28.1381874
  78.1933746  59.6896553  27.1416473  28.8400688  54.2177124  60.1988754
  28.0889931  54.8030815  60.1016312  29.5959187  54.8033066  60.2436180
  11.7205477  55.8182831  28.1766129  11.0050220  55.9440422  28.7998600
  11.5086823  56.4015694  27.4478321  24.4383831  69.7409286  13.9118757
  24.6033974  70.2285538  14.7188625  23.6736298  70.1681290  13.5260229
  49.8319244  57.7485771  28.0109520  49.9006271  58.2007713  28.8518028
  50.7153969  57.7883606  27.6447201  11.3296223  46.9748802  20.3610077
  10.9744835  46.1585541  20.0092754  10.7555170  47.1885796  21.0965137
  49.0503654  57.1291733   8.6834965  49.8146362  57.4550552   8.2081833
  48.4268570  57.8550949   8.6609802  16.0898151   0.2143317  88.7991638
  16.9558659   0.3918403  88.4321747  15.5961361   1.0204941  88.6487732
  41.7347069  31.4694424  68.5710068  40.8164406  31.6518478  68.3716507
  42.2075424  31.7284813  67.7800827   3.9864347  15.0888739  78.2876740
   4.7295761  14.5225153  78.4955521   4.3759880  15.9506922  78.1402054
  38.2097435  60.0817566  62.1650429  38.3388672  61.0301819  62.1722221
  37.5143242  59.9395676  61.5228539  15.3188686  50.7843361  15.2551289
  15.3901262  49.8465881  15.0768690  14.5666857  51.0702019  14.7367344
  50.6271286  20.9843388   4.7614379  50.1322327  21.8013325   4.8233399
  51.4705086  21.1838131   5.1678243  64.0400391  40.7359734  89.0718155
  64.0364532  40.1036224  88.3532410  63.1159134  40.8541946  89.2914505
  83.5875549  32.1143074   5.8431172  84.0600281  32.2769241   6.6595473
  84.2648621  31.8395214   5.2250767   5.6116514  33.7654877  87.5070343
   4.9828482  34.2297592  86.9545059   5.3947587  32.8403740  87.3914566
  21.0261211  39.2605972  35.7126160  20.1051216  39.5212784  35.7185402
  21.2735348  39.2342529  36.6369133  74.1816635  45.9801865  14.3565035
  74.3451614  46.9184990  14.4517431  73.3001404  45.9269257  13.9873085
  85.6769562  64.4672394  24.0335350  86.2643509  64.4058838  24.7868176
  84.8009567  64.3571320  24.4033070  10.9669027  15.1776285  75.2786102
  11.6637096  15.5733414  75.8021545  10.8688650  14.2957783  75.6377182
  58.7033539  12.5010252  34.6204834  59.2071686  12.4944983  33.8066292
  58.7354279  11.5955772  34.9292984   7.1153417  42.4429779  88.3383026
   6.8160496  42.1189117  89.1877899   6.9928093  43.3910561  88.3869247
  81.9458542  14.4455080  67.0291595  82.8820190  14.6447887  67.0186539
  81.8155365  13.9498787  67.8376160  44.4996109  42.9154892  12.0098028
  45.1165161  42.6540565  12.6934071  44.9120483  42.6320534  11.1938419
  41.1683006  58.7233467  17.3403339  40.6464500  58.4481049  18.0940876
  40.8544006  58.1773796  16.6194859  63.0645676  67.3175583  10.8081245
  63.4077148  66.4346771  10.6702852  62.2231560  67.3214493  10.3517847
  39.3089218  46.3335304  10.1300993  38.4786682  45.8993759  10.3261118
  39.8146095  46.2599678  10.9394817  64.7107239  69.1379242  24.3215122
  64.7366257  69.9548721  23.8233509  65.1625519  69.3422241  25.1402569
   5.8950558  52.4108696  77.9227066   5.0846615  52.1742859  77.4715729
   5.6141901  52.9881973  78.6326599  21.5339832   7.5941744  21.9745502
  21.3338013   7.8002787  22.8876114  22.0083275   6.7637529  22.0149059
  75.3794022  12.2020874  25.8104496  76.1652908  11.6569166  25.8478413
  74.8378983  11.8917952  26.5362091  78.6044693   1.4457387  65.2553406
  78.4103546   1.5811114  66.1828232  79.1460342   0.6566935  65.2366638
  57.6435432  27.0250244  48.7167625  56.8921852  27.6050377  48.5931702
  57.5478477  26.3604240  48.0345726  80.9061127  57.0948944  58.0651016
  80.2267685  56.4370003  58.2130585  80.7544937  57.7525826  58.7438431
  45.8567581  31.1485310  18.5555210  46.7410240  30.9694138  18.8752384
  45.9364891  31.1202259  17.6020679  74.9573441  56.4409332  32.5326881
  75.6286697  55.8509254  32.8753929  75.1420364  57.2822075  32.9502792
  51.1551437  45.8942490  21.6610241  51.6010284  46.0282631  20.8246899
  51.2160683  44.9517441  21.8166027  50.3308945  11.8774891  81.3133926
  49.9074402  11.6013279  80.5005875  49.6509285  12.3567734  81.7868576
  77.1931305  30.1831379  21.0332546  76.6494827  30.1298885  20.2472229
  76.9642029  31.0254059  21.4262009   7.5022073  64.0970917  23.8449726
   7.8395720  63.4294853  23.2477093   7.2784534  63.6151390  24.6411457
  20.1673756  63.8455467  23.5931492  19.9295731  63.3772316  24.3933754
  21.1106491  63.9885750  23.6706696  28.9716892   9.4755049  66.5675430
  29.3213615   9.3536234  65.6848755  28.0255814   9.3706446  66.4669571
  12.3611879  12.9022312  69.7000351  13.2007570  13.3396654  69.8414764
  12.1297474  12.5450983  70.5574265  29.7862186  32.3743324  86.1276779
  29.9347229  33.3191605  86.1660843  30.4351864  32.0551720  85.5006104
  82.7983017  65.2322083  65.6505356  82.5048065  64.8502731  66.4777145
  81.9954147  65.3498917  65.1428452  15.5105515  13.5776873   7.8919702
  15.8109217  13.4641819   6.9902349  15.6721210  14.5014553   8.0837536
  74.0199203  28.7823162  79.1985550  74.4659042  29.3202877  79.8527069
  73.4392853  29.3917122  78.7427750  25.9425659  42.4181404  55.7556992
  26.7211761  41.9118614  55.9873886  26.2061596  43.3306503  55.8743401
  45.4177475  59.8707390  77.4864349  44.8033524  59.1439285  77.5888519
  46.1520653  59.6459503  78.0578156  70.9777527  35.6740379  14.0594606
  70.7231827  36.5964546  14.0353994  71.1720428  35.4553413  13.1480589
  24.1262226  31.7134495  76.6469574  24.1576290  31.0619678  75.9463730
  24.7222519  31.3753719  77.3153000  84.4146576  18.5807953  33.9841728
  83.5203094  18.3079662  33.7793922  84.9386673  18.2514362  33.2539864
  71.6291428  52.2525024  83.6996307  72.0697174  51.4740028  84.0403137
  71.1645813  51.9436913  82.9217834  15.4798937  58.6254272  74.3765717
  15.2160683  58.3540955  75.2557831  14.9160385  58.1203461  73.7907410
  32.2266312  69.8834305  15.9521303  33.0456772  69.6168060  15.5346327
  31.5496197  69.3920441  15.4869099  15.7756367   5.4152217  12.9369068
  15.6741972   4.7335057  12.2726736  16.1503315   6.1576180  12.4628992
  73.7468491  61.3577843  67.5335617  72.8367081  61.6529503  67.5059814
  73.8669662  60.8750381  66.7157822  74.2821503  41.9932365  29.1889477
  74.1961594  42.3423729  30.0760441  73.6824417  41.2475548  29.1658497
  51.4586906  60.8536415  68.9172058  52.0824509  60.3894806  69.4755096
  50.6005211  60.5487862  69.2118988  26.0127316  65.3812943  70.4626923
  25.9665985  64.5727081  69.9524994  25.2916050  65.9157639  70.1301956
  63.0099335   2.1784368   4.6538501  62.1665115   2.4607375   4.3000422
  63.3312225   1.5348096   4.0223842  47.6911850   3.2447782  78.1393661
  48.2260361   2.5045934  78.4262314  48.3158913   3.8525703  77.7436829
  50.1854553  52.8565979  11.9958868  50.0952377  52.0390053  11.5063601
  50.0137901  53.5423584  11.3505230  53.2709160  61.9583435  32.2527504
  53.1939735  61.2375984  31.6275787  54.0508766  61.7478447  32.7661552
  25.4943352  19.6193752  54.1178780  25.1392136  20.3870964  54.5659027
  26.4126930  19.5890369  54.3860779  79.7295837  36.6033058   4.6728797
  79.7911987  36.2081909   3.8032129  79.2952805  35.9387589   5.2076526
  11.7611542  63.5402298  10.7611437  12.6076593  63.1361542  10.5703964
  11.7393675  63.6114769  11.7154398  66.7666931  14.1901398  37.5106125
  67.6158600  14.0050535  37.1094933  66.1268692  13.8576956  36.8810577
  63.7113571   5.8398185  61.1192856  63.1081772   6.3777328  61.6321754
  63.4740105   4.9387259  61.3382187  63.9322968  23.5849609  12.4715042
  64.6947861  23.3999786  13.0197964  64.2960968  23.7403297  11.5998707
  56.2401047  66.8157425  17.7272110  55.8493996  67.6893768  17.7085896
  55.4918556  66.2190933  17.7461967  74.3942032   7.0233269  19.7674236
  75.0909119   7.5795698  19.4189663  74.8487701   6.3891373  20.3218651
  64.4217072  58.7227325  37.5049477  64.0392990  58.4759674  38.3470268
  63.7230034  59.1971245  37.0544052  54.9561691  66.2777328   4.4727473
  55.6864967  65.6620483   4.4111972  55.3632126  67.1083145   4.7190847
  31.4805584  45.1318779  87.5650177  31.4963684  44.2815819  87.1257248
  31.8253613  45.7438583  86.9147644  12.5160789  50.1652718  67.7676544
  13.0636253  49.7040329  67.1322861  12.8908310  49.9357986  68.6180267
  62.4866028   8.7309265  52.9986610  63.1525574   8.1286030  53.3302383
  62.3337212   8.4464750  52.0975800  27.0515804  43.0027657  47.1574669
  26.1061153  43.1006470  47.2703781  27.3976974  42.9748230  48.0494614
  78.0618210  59.6967506  14.0025864  77.6838837  58.8928642  14.3591938
  78.7384415  59.9435234  14.6330709  27.0618191  69.7912369  26.2333279
  26.8243408  69.3738403  25.4053059  26.9352665  69.1075134  26.8911552
  64.2864227  62.7209129  18.2142639  64.3871307  62.9997864  19.1243858
  64.4605331  63.5100746  17.7012901  44.0564423   6.8733802  63.8660240
  44.0258904   7.8080025  64.0704193  43.2967873   6.5046654  64.3168030
  56.5040741  10.7653408  38.8483238  55.5857391  10.6457148  39.0903511
  56.9951706  10.4221249  39.5948219  15.8440113  29.5980682  74.5828247
  16.5791340  30.1735077  74.7942352  16.1857414  29.0108051  73.9085999
  63.7907257  24.7774086  51.0102005  63.9857559  24.6922722  50.0769577
  64.4230652  25.4212856  51.3292694   2.4156857  60.8901176  32.2786636
   2.5688431  61.6693954  32.8129883   1.6137701  61.0858192  31.7940369
  28.2537117  45.4938011  53.1815033  28.3379803  46.1147461  53.9050751
  28.9430237  44.8484192  53.3382263  77.7984695  18.2458820  80.0708694
  78.0382233  19.0921803  79.6933441  78.5532074  17.9997425  80.6056824
  43.6599426  70.0506973   8.8472843  44.2426682  69.6371689   8.2103748
  43.5537415  69.3945694   9.5360851  29.6042976  47.3094292  21.6218510
  29.1639156  47.0794296  22.4400177  28.9236698  47.7243500  21.0919285
  27.0837536  44.7058563  74.3681030  26.4403114  45.0377617  73.7419586
  27.9038887  45.1305161  74.1165619  82.1373749  24.0263424  87.1628113
  82.5033417  24.6327724  86.5189590  82.7790222  24.0151062  87.8730164
  46.4530602  39.0662231  83.9220963  47.1012650  38.3631935  83.8795395
  46.9475555  39.8303185  84.2185135  66.4510880  26.1720715  29.1316891
  65.8516998  26.1456928  28.3858528  66.2575150  27.0032120  29.5652428
  38.6075058  47.8774490  74.4141693  38.0427933  47.5101967  73.7341309
  39.2180977  48.4415474  73.9396133  39.1847610   9.7535419  76.8569183
  39.9545555  10.0972939  77.3102264  39.3067551   8.8041735  76.8639297
   1.3737307   9.2444429  75.8160629   2.0615726   8.8909636  76.3801193
   0.7765999   9.6900063  76.4170151   9.2786112  41.1691170  15.7090092
   9.4109383  41.8083115  15.0089016   9.2671356  41.6913605  16.5111084
  58.6478958  39.8050652   1.5767539  58.7772255  38.9862671   1.0981355
  59.1593781  40.4508057   1.0892688  77.8594513  54.3420296   1.4904555
  77.0116882  54.0190887   1.1850970  78.3459625  54.5330467   0.6885491
  65.6935043   8.4627113  61.2880554  66.3376083   8.5793056  60.5896492
  64.8580704   8.3694229  60.8302650  47.2184868  41.8735847  44.3246613
  46.6604652  42.5306664  44.7407036  46.7726860  41.6660614  43.5034256
  60.7153091  59.5277977  16.8244705  61.4397049  59.9792099  17.2577190
  59.9616776  59.6827812  17.3939018  26.2820244  30.0461025  62.2117424
  26.6572876  29.2291183  61.8831902  26.9167137  30.7181664  61.9632874
  81.8695984  65.9105453  62.5120926  81.2693329  65.9520340  61.7676544
  81.3196869  65.6433334  63.2485847  20.1273270  13.3391619  13.3040524
  20.9933472  13.3751068  12.8979120  20.2340107  13.7990627  14.1367235
  82.6945724  56.1119728  84.4000549  81.7985840  56.4482193  84.4193497
  83.1262207  56.6197929  83.7130127  41.8831596   9.4828033  78.1550369
  42.6252251   9.7596292  78.6925583  41.4239769   8.8387699  78.6941147
  31.3272324  63.0550117  30.5137177  30.5135727  62.5597496  30.6080761
  31.2802372  63.4273605  29.6331615  34.5772514   2.2448537  33.1203308
  35.0124588   2.5509961  32.3246536  33.8474426   2.8519747  33.2428780
  28.5423412  63.0523262  39.2688408  28.5089703  63.8722496  39.7616310
  28.6198177  62.3731575  39.9388847   4.0108657  47.3824425  38.6103134
   4.1437345  46.6206512  38.0461731   3.3661125  47.0928993  39.2558289
  70.6253891  16.8505878  27.6080513  70.0467300  17.6130390  27.6149025
  70.0863800  16.1377373  27.9508991  66.3824234   1.4241022   3.8474698
  65.8301315   1.3702291   4.6274109  66.2920837   2.3301094   3.5521357
  33.1735458  66.4822845   5.3664689  34.0876122  66.7375488   5.2417526
  33.1514206  65.5525970   5.1396942  79.1840286  62.3885994  11.9391003
  79.5830612  62.9992752  11.3193521  79.0981903  62.8913231  12.7491198
  12.9614792  47.0322189  36.5233879  13.3944511  47.8842392  36.5766144
  12.9102774  46.7324638  37.4309998  85.7828217   8.4211121  87.8548126
  85.9540787   7.7605767  87.1835480  84.8653183   8.6614532  87.7257614
  23.6947403  61.3647881  44.2579956  23.1346722  61.2249947  43.4944420
  24.5778542  61.4405670  43.8966103  45.7621689  52.6894875  49.1158867
  46.1926651  52.1605949  48.4441910  45.3805428  53.4236069  48.6345711
  25.2292252  15.6177931  30.8832970  25.4421349  16.4416924  31.3215790
  25.1287861  15.8557854  29.9616127  38.4347038   8.7059879  64.6690216
  38.9455605   8.1296291  64.1006241  39.0537148   9.3830986  64.9421158
  12.1316576  27.7178593  16.4010944  11.5872946  28.2563953  16.9754467
  11.5474844  27.4634933  15.6867628  82.9891968  34.4110451  69.1082535
  83.8120193  34.8874931  68.9978333  83.2230225  33.4935150  68.9679184
  81.6910172  41.5633812  10.5786572  81.7762527  42.4851685  10.3351946
  81.6799316  41.0952034   9.7438421  54.7834587  31.4118404  68.6332779
  55.2922134  32.2156601  68.7394485  55.1163445  31.0227489  67.8245621
   1.0470692  39.1058884  49.1569786   1.2237217  39.9999809  48.8643646
   1.8921685  38.6611557  49.0917664   5.9063940  65.9900131  77.2975235
   6.4832373  66.3352356  77.9789200   5.7981391  65.0655975  77.5210495
  71.9560547  35.2902679  31.9257851  71.1447144  34.7871819  31.8560143
  71.9195328  35.6839714  32.7975044  86.5835724  57.5554008  77.5335236
  86.1546021  56.7091293  77.6602097  86.6363220  57.9311218  78.4123154
  86.0950394  38.1627655  10.1818857  85.3561249  38.3344193  10.7656479
  86.5281982  39.0111656  10.0879698  29.5023270  50.9649391  45.1075401
  28.5708637  50.9363403  45.3261490  29.9363117  51.1723557  45.9351082
  67.2285690  11.3545837  69.5336685  67.4128876  10.9016933  70.3565598
  66.2828064  11.2641315  69.4171143  78.4391098  21.4186687  53.1284294
  79.3173141  21.7970867  53.1706467  77.8776016  22.0688457  53.5505791
  72.5446167  63.9600868  78.9941406  72.8346481  64.6334839  79.6094894
  71.9742661  63.3920174  79.5120468  40.6980362   4.1802869  88.3946915
  41.3633461   4.3049893  87.7179031  40.5345154   3.2371669  88.3989182
  40.5301247  49.3408546   3.7180033  40.2124634  50.2117081   3.4793854
  40.0620880  48.7462502   3.1318121  44.3329887  55.3944168  87.8701630
  44.3989182  55.2456894  88.8134384  43.9175949  56.2531967  87.7915573
  81.7812042  48.8494492  23.0944710  81.7354050  47.9513702  23.4224720
  81.8531036  49.3887024  23.8820438  49.2711334  63.4382973  50.0473976
  48.6309128  64.0072632  49.6200523  48.9728127  63.3814659  50.9551430
  14.3840160  24.3853588   6.0936999  13.6677723  23.7769928   6.2756882
  14.9990234  24.2540112   6.8153267  19.8916798  59.7708244  42.7395859
  20.7908096  60.0785828  42.6252022  19.5850258  60.2154846  43.5298195
  63.6529007  28.5611591  87.1203461  62.8381195  28.8190556  87.5514526
  64.3209839  29.1205425  87.5165634  10.5911264  34.5212288  60.7050323
  10.7681246  35.0023003  61.5134125  10.9133205  33.6365128  60.8773804
  60.1086960  51.5879974   7.0712523  60.5562286  50.8000031   7.3794909
  59.5411415  51.2801857   6.3645935  52.8445930  35.2505226  53.2167168
  52.1102486  35.0297585  53.7896309  53.0256462  36.1716805  53.4035721
  20.7074909  58.6704025  33.8734665  20.8059826  58.9017868  34.7970428
  21.5483532  58.9001617  33.4780006  27.5329990  16.8154335  80.5769577
  28.0728951  17.1242409  79.8493729  28.0838642  16.9332829  81.3508377
  47.0973892  57.1438293  27.6128597  48.0517998  57.2054977  27.5737228
  46.8028946  57.4365578  26.7504120  74.6596756  41.5577774  59.9771500
  74.9431763  40.9505463  60.6606216  74.4151840  42.3533401  60.4499435
  62.2134895   7.6672301  65.7520676  62.5199585   8.2786493  65.0823898
  63.0141716   7.2890220  66.1155243  19.0968342   5.4331293  85.2300262
  19.9399815   5.8591704  85.3843765  18.5715790   5.6560807  85.9985504
  82.9243011  28.9848671  72.9326172  82.8711166  28.8458290  71.9870682
  82.5517120  29.8561306  73.0679245  35.4005051  50.9449959  41.0773277
  34.7637596  51.5834923  41.3984337  36.1084213  50.9681053  41.7211800
  64.0905151  48.4817696  10.8928204  64.1069336  49.0104561  10.0950384
  63.1664276  48.4504585  11.1404266  65.7730179  27.4068108  56.3403206
  66.2003479  26.7986965  55.7371445  64.8908844  27.0525894  56.4525757
  10.1949673  47.4134483  68.0064545   9.3118925  47.7825928  67.9945145
  10.6454983  47.8467178  67.2815170  57.5736885  50.6071167  59.4578094
  58.1169434  51.2315331  58.9769630  57.7601929  49.7623062  59.0482483
  36.1211548  29.2896919  13.0501823  35.8490524  30.1511154  13.3666315
  37.0605011  29.2539482  13.2307081  36.6866798  51.2245064  58.0034866
  36.3548546  51.6460457  58.7962265  36.4181290  51.8063736  57.2924728
  12.9004135  60.3968887  49.4756393  12.2277431  59.9361305  48.9741936
  13.6484394  59.7996597  49.4781609  30.9774532   7.5405645   5.1914253
  31.5975399   7.4191766   5.9104452  30.4836445   8.3248253   5.4308400
  47.5668793  30.2394428  88.6455765  47.3636436  29.7145672  89.4198074
  46.7124939  30.5034008  88.3041306  78.9320145  48.4780197  41.5354271
  79.3654785  49.1057549  40.9572487  79.6284866  48.1620293  42.1110229
   6.8908868   0.9621913  68.9434662   6.3246050   0.4939725  68.3300171
   6.6315145   0.6363452  69.8053207  69.9549637  51.1592560  15.8826237
  69.3080750  51.4494972  16.5256863  70.6225891  51.8451653  15.8881292
  76.1830368  13.5857830  88.9339218  75.7143860  13.0039902  89.5323486
  76.8759689  13.0397158  88.5625916  39.1034698  29.3315811  77.9805222
  39.2902412  28.5540161  77.4544601  38.1503220  29.3381100  78.0682755
  20.5762959  28.1752071   8.7546034  20.7099571  27.2273884   8.7570295
  21.3270130  28.5241852   9.2350922  62.1000481  48.2160416  65.3141174
  61.3722458  47.8637161  65.8263702  61.6866875  48.8109207  64.6884308
  72.4805908  67.5518646   3.7892411  72.7997818  66.7566986   4.2159262
  72.2547226  68.1373596   4.5120215  78.0992432  50.3281822  47.6736488
  78.7565155  50.2969513  46.9784851  77.3095322  50.6543236  47.2421227
   1.4370106  29.1532478  72.0067825   1.8211871  28.8741550  72.8378983
   0.7880229  28.4793224  71.8046188  72.1298828  10.0784187  22.7672806
  72.4668503   9.2363224  22.4614067  72.8003616  10.7118702  22.5115013
  56.6495972  24.7117863  20.9814644  56.3133926  24.2409821  21.7440529
  56.9714508  24.0243454  20.3983135  13.2860765  47.1124153  18.3630219
  12.9041481  46.7062836  19.1411095  12.5969791  47.6874390  18.0302658
  86.5207672  43.4479942  30.1329918  85.7007141  43.2443619  30.5827503
  87.1556244  42.8346329  30.5030880  23.2592907  50.7449036  14.5647058
  22.7820950  51.1944885  13.8672886  22.7271919  49.9736481  14.7603302
  25.0977745   4.4334788  12.0283842  25.1778431   4.6495056  11.0993233
  24.9767780   3.4840851  12.0439672  77.2767410  36.6238251  22.7573147
  77.6594086  37.4522896  23.0461884  78.0289764  36.0492821  22.6149368
  11.2427540  37.5995750  53.1504211  11.1832600  37.2469521  54.0383110
  12.0659275  37.2504845  52.8087273   4.3494511  26.5506935  30.0576229
   5.2981224  26.6728992  30.0939484   4.0041785  27.4179554  29.8457870
  56.3460579  36.7664719  67.4578094  57.0436058  36.1201706  67.5671463
  56.8058586  37.5984612  67.3454971  34.4418335   1.0191897  65.0699844
  33.9547234   1.0260792  65.8939438  33.7744408   1.1484978  64.3961105
  16.5645771  70.1777344  21.4715290  16.6392689  71.1207275  21.3251858
  17.1284237  70.0070343  22.2259636   5.1578383  36.3860016  53.6991386
   5.7845244  35.8031197  53.2704849   5.7015347  37.0233116  54.1622429
  22.8707943  35.6720505  71.3998566  23.3362846  35.5497437  70.5724564
  22.2145462  36.3421440  71.2086868   5.9076324  28.4710197   4.2930288
   5.9873595  28.6586933   5.2282581   6.6726389  27.9324265   4.0907545
   5.8696957  70.6157608  53.8431549   6.3793502  70.9004593  53.0845833
   5.5649858  71.4289246  54.2458420  72.9087372  26.1656418   5.2806735
  72.6579819  26.9505463   5.7677875  72.1281967  25.6119289   5.3004389
  82.9067917  34.9905968  32.0104370  82.2236938  34.9463234  31.3413715
  83.4988480  34.2695808  31.7963409  45.3994102  64.4615326  72.4436340
  44.9415703  65.1866760  72.8688202  45.2235680  63.7057343  73.0040588
  68.3540421  22.1356850  15.1074104  67.9892807  21.2750950  15.3137159
  68.9857559  21.9667587  14.4083843  69.1520157  25.8723373  12.6884804
  68.9023209  25.3259220  11.9432878  68.5944824  26.6469269  12.6149788
  64.5418167  23.6488800  29.4899292  64.7547607  24.2881088  30.1698360
  65.2149048  23.7769623  28.8215103  76.2684860  45.7997894  69.1120224
  76.1032791  46.3092537  69.9053574  76.2765045  46.4484367  68.4081573
  21.0693722   0.9049948  47.8198967  20.9986610   1.8127221  47.5244942
  20.9356060   0.9501059  48.7666283  42.9320717   3.6102407  77.8013306
  43.7741814   3.2044718  77.5953293  43.1616821   4.4528651  78.1931152
   1.0054150  11.5191870  45.0387344   0.3473126  11.0946655  44.4883575
   1.2811877  10.8374147  45.6514053  70.0079193  32.7822876  56.6907005
  69.2735367  32.2411728  56.9807243  70.7737579  32.2153091  56.7815819
  60.8190689  62.0154266   4.6842771  60.4389153  62.8903885   4.6058021
  61.4378586  62.0874367   5.4110131   4.5619273  24.5625858  53.4167061
   5.1139975  24.5946121  54.1980019   5.1666999  24.7113819  52.6898346
  42.5175133  46.8476486  40.0110474  41.8509750  47.5292702  40.0968018
  42.5632286  46.4467964  40.8790665  54.9950867  44.3795815   8.6031961
  54.7390175  44.0143509   7.7562804  54.4987679  45.1951408   8.6722488
  55.7694397  -0.1356370  72.7375565  55.7631569   0.8025983  72.5480652
  55.8507538  -0.1871036  73.6899109  75.4295120  11.3206377  18.9776859
  75.7595520  10.4300661  18.8585796  74.5351944  11.2921104  18.6376724
   8.3503857  67.7921295  81.5927048   8.5233278  68.6928329  81.3187408
   9.1822367  67.4883804  81.9560089   4.8384275   3.7531352  84.2351074
   4.8878031   4.0791731  83.3365021   5.2614689   4.4326425  84.7600250
  55.0797348  64.9327469  28.2182407  54.6591568  64.2202682  28.6996174
  55.3045654  64.5491028  27.3705940  50.4745407  37.7364311  57.8167992
  49.8885956  37.6596222  58.5697937  50.0520134  37.2195816  57.1308212
   6.0453343  57.1155205  58.7725525   6.7070680  57.7900124  58.9255142
   5.2585769  57.4498215  59.2032318  69.5230713  10.2204285  26.6941471
  69.9507446  10.8516474  26.1154518  68.7637863  10.6892061  27.0405064
   7.1318188  51.1676140  66.8112106   6.2599201  51.3662567  67.1526337
   7.2156687  51.7188225  66.0331573  51.0368729  45.6558990  41.2767715
  51.2074051  44.7140160  41.2741089  51.9024277  46.0557785  41.3612595
  39.0850410  37.4049034  43.8436317  38.5564423  37.2802391  44.6318436
  39.9588470  37.1023483  44.0909195  57.6733246  18.0348911  11.7708349
  58.2457962  18.0720863  12.5370760  56.9919815  18.6831093  11.9492083
  85.1262207  54.3359604  59.0670929  84.7311020  55.2055550  59.1296806
  85.8120651  54.3358879  59.7348137  54.3861732  21.2740879  16.0943985
  54.6939735  20.9426136  16.9379711  54.8636665  22.0944176  15.9707384
  51.4226723  24.4537086  29.5586510  52.3389015  24.7278557  29.5186691
  50.9548836  25.2268639  29.8743057  36.7034569  43.7780571  70.6937103
  36.2815056  43.4188423  69.9132309  37.4755173  43.2273254  70.8235321
  65.8643265  29.5956211  26.0976753  65.0589676  29.6794243  25.5871773
  66.5585327  29.5342140  25.4415188  77.2518082  58.3974113  39.9468422
  77.2591171  57.5001450  40.2801514  78.0869141  58.4893379  39.4881630
  42.7645111  12.0661325  69.5417480  42.8463020  11.1967096  69.1497726
  43.6654167  12.3307285  69.7277298  59.8758698  65.6825180  75.9799271
  59.4918556  66.1150055  76.7426300  59.1585464  65.1679001  75.6099854
   2.6670723  55.9655037  73.8185883   2.0770538  55.2165604  73.7337494
   2.1630180  56.7067451  73.4828415  49.1209526   8.2980042  29.4903450
  49.1922569   7.3501506  29.3775520  48.1927490   8.4865141  29.3520184
  26.2063656  14.8093958  79.2847672  26.7560120  14.0279493  79.3436127
  26.6453056  15.4533644  79.8405228  41.7684631  56.1820831  52.8554077
  42.5288887  56.2324867  52.2762337  42.1294632  56.2934151  53.7349052
  36.4251633  53.0781784  87.7653656  36.4408073  53.5767136  88.5823441
  36.2779083  53.7362251  87.0860062  78.7377930  60.4323921  50.5890503
  78.2583084  60.4697075  51.4166603  79.5429001  60.9223175  50.7563934
  28.1842194  52.5270157  86.5567169  28.9294376  51.9270363  86.5266571
  27.5996628  52.2177391  85.8647079  80.2272873  70.8413391   2.5967371
  80.3425140  71.7015381   3.0004797  80.1889343  70.2333984   3.3350964
  73.4628220  36.4787712  41.1247711  73.0195312  35.6304893  41.1366310
  72.7614441  37.1135139  40.9784660  71.4539871  14.4993076  43.3175468
  71.4828644  14.1945457  42.4106178  71.1775513  13.7324162  43.8192329
  53.3139153  17.8067875   2.7867715  54.2474098  17.8579960   2.9921751
  53.1642265  16.8840408   2.5809484  32.1849632  68.6562805  74.0891800
  31.9270477  69.4289093  74.5919342  32.7108727  68.1384811  74.6987152
   8.9728718   0.8397347  59.2608528   9.4299984   1.3072661  59.9599113
   8.1155787   0.6319354  59.6324730   2.3945384  55.8712807  31.8238888
   3.2415326  55.8312988  32.2679977   2.1182272  56.7830200  31.9167194
  50.7652512  55.6677628  42.2778053  50.1234627  54.9881477  42.4838791
  50.9879837  55.5162544  41.3592911  14.2129860  53.8464127  42.8575859
  14.3978062  53.0531273  42.3548241  15.0656939  54.2689934  42.9602814
   8.1559601  19.4566517  87.9677887   7.6698108  19.8922596  88.6678848
   8.5206652  20.1728706  87.4479294  77.1369476  45.4006615  44.9303741
  76.1978836  45.4863625  45.0948372  77.2002182  45.2177849  43.9929390
  32.6967926  41.9235077  74.2831116  31.8154621  41.5609589  74.1933975
  32.8489532  42.3894196  73.4609146  63.0926933  64.1351318  50.7848778
  63.9801216  63.9072685  51.0619774  62.7167816  63.3086586  50.4817848
  86.5361633  43.8484955   1.5014489  86.5932770  42.9040108   1.3568238
  87.3948593  44.0899849   1.8486793   0.4826822  44.8395576  10.2016993
   0.7998898  45.7156334  10.4210196   1.2614672  44.3711052   9.9012356
  65.7155762  31.4257431  70.4184570  66.5734024  31.0408001  70.2390442
  65.4281540  31.7741299  69.5745087   5.1094871  28.7418861  45.4739418
   5.1307735  29.3448391  46.2170601   4.8813057  29.2926674  44.7250748
  71.1521072  66.6831436  29.8628654  71.7753448  66.1689453  30.3760967
  70.9131393  66.1112823  29.1334114   4.6086397  33.3872223  60.6160355
   4.2931499  32.5204544  60.8717880   3.8330040  33.8339615  60.2768517
  30.7924309  61.3347435  72.9023056  31.0890980  60.4704208  73.1872025
  31.4251518  61.9430504  73.2842255  50.4478722  52.6923218  65.9192810
  49.6105156  52.8129730  65.4714966  50.2498779  52.8463631  66.8430252
  19.3315296  67.8088226   7.6778536  19.9070168  68.3283005   7.1164398
  19.5766411  68.0587616   8.5687428  65.8607864  26.1855812  53.4232559
  65.4690857  25.6565285  54.1181717  66.8011017  26.1541615  53.5994453
   5.2579374  62.4460716  73.2677002   4.8082767  61.8029671  73.8158417
   4.5532293  62.9662132  72.8816071   8.5209293  40.4736824  63.3154221
   9.0693979  39.9590302  63.9074936   9.1230631  40.7815132  62.6379967
  70.2156143  59.3579559  55.8949394  69.4708176  58.7671204  55.7834854
  69.8935623  60.2083473  55.5960388  79.8956070  20.3101768  69.8946457
  79.0494156  19.9277248  69.6624222  80.0115738  20.0915947  70.8193054
  29.1346989   6.3569489  74.9826431  28.7588730   5.6794624  74.4205093
  28.3773632   6.8341727  75.3216629  23.4884815   5.0609140  41.4934425
  23.8840847   4.5204625  42.1772881  23.6448002   5.9610157  41.7791252
  39.1483765  43.0029068  51.9222870  38.9456367  42.2138176  52.4247475
  39.4271278  42.6769333  51.0665588  58.3759422  68.8260956  11.4006062
  58.6784515  69.1434097  10.5497026  59.1710701  68.7653046  11.9300461
  57.3053513  54.3467140  16.5256996  57.7520218  55.0481377  16.0516510
  56.3810844  54.5948181  16.5055408  34.7443733  21.4927902  75.7649612
  35.4006844  21.0137901  75.2589493  34.8788910  21.2026577  76.6671600
   8.0965252   1.4422204  78.1983719   8.7168036   0.7785717  77.8966141
   8.6320200   2.2222588  78.3433380   3.2540791  53.1727219  21.7368622
   3.7830269  52.7103806  21.0867195   3.7721281  53.1309547  22.5406742
   7.0425649  59.7205238  42.0653038   7.3706546  59.6432381  41.1694183
   6.2526197  59.1801147  42.0785370   8.4165134   7.4549727  78.1929703
   8.7808180   8.2454977  77.7947388   8.4364042   6.8029289  77.4924850
   5.6020322  69.8432770  37.5455208   6.5288119  69.6576920  37.3942909
   5.2065115  69.8133316  36.6743736  52.6307335  55.7895584  65.2316208
  52.9482231  55.9718819  64.3472061  51.6889114  55.6558495  65.1251831
  39.1544952  47.2865868  66.8855362  38.3435555  47.2315445  67.3910828
  38.8972855  47.7076721  66.0653152  55.8137016   0.4458952  68.5085144
  55.4872780   0.4103228  67.6093979  56.1044922   1.3507510  68.6221313
   7.1891723   0.6782489  64.2577896   7.7765117   1.0166837  63.5819740
   6.5533867   1.3803114  64.3960571  10.9711409  58.0102081  45.6183968
  10.8805952  57.1171646  45.9508209  11.8147736  58.0130539  45.1661720
  66.7053452  13.9478550  68.3867264  67.0138474  13.0716400  68.6176071
  66.5295334  14.3692751  69.2279892   3.0381765  64.2531128  41.4247475
   3.9797261  64.0863724  41.3810005   2.7747672  63.9159966  42.2810173
  78.1295013  62.9430542  61.8299942  78.9970322  63.1174507  62.1949615
  78.1550369  63.3314781  60.9555206  31.8542747  42.3599701  44.3180809
  32.4188156  42.9451675  43.8130417  31.2533779  41.9898224  43.6714401
  14.6042862  68.6203537   6.7277489  14.4191523  69.5410309   6.5425043
  15.2837057  68.6435471   7.4016061  74.8349380  16.8187847  36.8097267
  74.0504150  16.7998180  36.2616463  74.5340424  17.1730957  37.6464767
  70.4664612  53.1938667  41.2268333  70.1557541  54.0950279  41.1396370
  69.6847839  52.6572418  41.0955276  60.3389778  21.6269436  24.3762226
  60.8992310  22.3267593  24.7117920  60.9500465  20.9544506  24.0752583
  44.2002106  64.9460907   9.3513689  44.6899185  65.7593231   9.2286282
  44.8599854  64.2562103   9.2807064  69.8894806  15.4690695  81.7141418
  70.0360565  16.3558617  81.3849869  68.9439163  15.4188204  81.8542099
  24.7081890  38.2822418  58.4145622  24.6058159  38.5728836  57.5083160
  24.9860992  37.3690529  58.3432770  15.0597305  31.5660839  71.5743027
  15.2775726  31.2108269  70.7125778  15.9073820  31.7143173  71.9935303
  56.0519981  63.9786415  49.7390251  55.2506142  63.4553337  49.7262497
  56.3824043  63.8889427  50.6329041  49.8577499  59.8617516  55.9587555
  50.3602180  59.0475426  55.9301186  50.5023651  60.5332870  56.1817894
  52.0209122  24.4649677  15.9441566  51.9925499  25.0261154  15.1692095
  52.9292297  24.5138531  16.2421532  50.5871048  18.5448246  81.4095230
  50.6840973  18.7605762  80.4820099  49.6462326  18.4146328  81.5280304
   9.2157402  45.3582268   5.5041542  10.0733271  45.7014351   5.2531843
   8.7974920  45.1285477   4.6743665  64.0412445  63.5813179  42.3770523
  64.9389038  63.8899651  42.2538605  63.8115120  63.1734428  41.5421295
  12.6975298  25.5793095  86.5596466  11.8523464  25.8635845  86.2116776
  13.2666101  25.5250072  85.7919083   3.7112017  22.9027863  21.9439125
   4.2826595  22.5827026  21.2459049   4.1667933  22.6689205  22.7525978
  67.7933578   6.4257193  57.2881203  67.8552322   6.8762350  58.1304016
  68.4800644   5.7597270  57.3217087  67.6475754  47.8301315  21.1462784
  68.1288452  47.0265121  20.9492817  67.0048294  47.5688400  21.8057003
  49.7232628  53.2893066  68.4713135  50.0206795  53.4275436  69.3705750
  48.7727089  53.2033005  68.5439758  48.2954559  67.1501694  16.1215000
  48.4912453  66.4895401  16.7859325  47.9882355  67.9074249  16.6199017
   5.0865211  59.8376465  31.9313202   4.6449857  60.4471397  31.3398857
   4.4016700  59.5522156  32.5360870  29.7100334  62.3800850  51.5554886
  30.4218273  62.8864250  51.1640816  29.1331406  63.0381012  51.9433556
  16.5708256  65.2947311  47.9801598  16.2398109  66.1928406  47.9872284
  16.8060913  65.1333618  47.0664597  62.2690811  68.2123795  23.4069462
  62.9919624  68.5986710  23.9013691  62.6761360  67.8824005  22.6059151
   7.5234084  26.9730320  83.2622604   8.4559813  27.1861706  83.2288971
   7.4974265  26.0512409  83.5188904  14.2771959  62.2631607  10.0037460
  14.4836454  62.0001869   9.1068316  14.0843534  61.4417648  10.4558001
  76.6990662  36.4516945  19.9092579  77.0850525  35.5820618  19.8044167
  77.0333481  36.7622452  20.7507153   2.8927598  17.1731815  83.7094040
   2.2292387  17.6484966  83.2093582   3.3306262  16.6208000  83.0618057
  18.4730339  45.6881104  20.7757683  19.0263386  44.9240685  20.6135292
  18.5615253  46.2201691  19.9849987  13.1390352  71.3451843  73.3644104
  13.5924892  70.5026550  73.3370819  13.7227211  71.9151993  73.8650436
  75.2352066  15.6790800  48.4867973  74.6956711  15.1030807  47.9451752
  74.8789444  15.5805540  49.3697472  71.7175522  50.7525139  30.3761654
  71.4982147  50.7348976  31.3077297  71.1563187  51.4364777  30.0108585
  33.1972809  31.1209526  88.3250504  33.0171356  32.0452919  88.1536484
  34.0218468  31.1237679  88.8111649  34.8211098  26.2875385   6.5272574
  35.0045471  27.0956993   6.0482402  34.0402641  25.9303646   6.1042447
  65.0384979  59.6449852  55.1287003  65.3165131  59.9856796  54.2784843
  64.4323273  58.9354324  54.9158058  38.1927986  37.3255615  18.5917702
  38.1804581  37.3599167  17.6352654  39.1169281  37.4193382  18.8229008
  71.4691010   2.2151990  88.3967438  71.2809753   2.5648174  87.5257645
  71.8717041   1.3627832  88.2308426   7.2418194  50.9837723   9.4854879
   7.2613864  51.3344841   8.5950680   7.6766882  50.1337547   9.4177189
   5.6611414  10.5964222  74.6694336   4.7678294  10.9139175  74.5374374
   6.0075727  10.4811935  73.7845917  31.6764946  68.1159744  10.2729387
  30.7394428  68.2817612  10.3762817  31.7656422  67.7967453   9.3749523
  18.9309444  29.3998299  74.5718994  19.0092735  29.5084190  73.6241150
  19.1914177  28.4926624  74.7313843  18.1912441  39.7632370  81.4881668
  18.3324432  40.7077141  81.4229050  17.8614674  39.6312180  82.3770142
  64.0312042  65.6972580  25.2575283  63.4711151  65.2496719  24.6233387
  63.5066910  66.4391785  25.5586452  52.7924194  48.7523575  48.1828194
  53.2083817  49.3902740  47.6029320  52.0949173  49.2429848  48.6175690
   1.4168848  35.0117111  26.6249371   1.6020317  34.4888039  27.4050140
   0.8460787  34.4561577  26.0941162  74.7371140  50.0463371   3.3481355
  74.8681488  50.8289833   3.8834143  74.8514328  49.3173027   3.9577878
  32.4832382   1.1218172  16.4273548  32.9346771   1.0083190  17.2637482
  32.1209030   0.2577517  16.2315636  74.3031082  48.2422256  73.2262573
  73.9133377  48.8782005  73.8261337  74.8822632  47.7163734  73.7778778
  77.9300385  56.2913132  60.9781990  77.5433655  56.9534798  61.5511322
  77.8959351  55.4828072  61.4894562  22.3735104  15.4841995  75.4815216
  21.7487926  14.7730837  75.3391418  22.4350815  15.9224472  74.6327744
   6.3342695  53.6942406  14.8587284   6.3911467  53.9151726  13.9291134
   7.0446992  54.1894531  15.2665071  20.3537407  16.7111359  80.7562103
  20.6744728  16.0608635  81.3811188  20.5565891  16.3389778  79.8979645
  75.3389587  41.9088058   5.6703482  76.2129440  42.0381508   5.3020368
  74.7873077  42.5371819   5.2044497  -0.0430751  31.2839966  43.7467079
   0.5944444  30.6852074  43.3577957   0.3988489  31.6353321  44.5196877
  34.1195908   2.1576707  74.0400085  33.3705177   2.3734884  74.5954742
  34.8764000   2.2232411  74.6223984  18.2002068  36.5171051  81.5801086
  17.3454952  36.5660286  81.1519699  18.5024643  37.4246254  81.6158829
  78.9139862  42.7741508  12.3019753  79.8552704  42.9080620  12.4127741
  78.5315933  43.0649757  13.1298838   7.6905169  54.6150436   4.3566399
   8.0102491  53.8205719   3.9290698   8.0633049  55.3307228   3.8417933
  38.2433319  10.3172913   9.3791504  38.3842735  11.1782093   8.9852133
  38.6583900   9.7050447   8.7716045   1.6506158  24.7615738  31.0455685
   1.6017210  24.1252918  30.3321362   2.3628259  25.3494530  30.7938023
  22.8529739  59.0600395  55.3250237  22.0202961  59.0361671  54.8535271
  22.8269501  59.8815308  55.8156357  32.5359116  30.8188000  11.5255308
  31.8988056  31.0932770  12.1850672  32.3842850  31.4077454  10.7863522
  38.6163750  32.7210274  63.3838577  38.2447205  31.9754944  62.9123917
  38.4671555  33.4688225  62.8052673  17.0150852  69.7490845  31.9150486
  16.8472404  70.6569138  31.6622524  16.7743912  69.2370529  31.1429634
  46.5258331  62.2481804  55.6583214  45.8287430  62.6054878  55.1082077
  46.3247070  62.5681381  56.5377541  53.8887711  18.7293015  38.7972946
  53.3915482  19.5274181  38.6183815  53.2431450  18.0255108  38.7334328
  44.0157318  61.6455421  38.9872589  44.7305222  61.9421616  38.4239426
  44.3759880  60.8917847  39.4544792  72.4361420  11.9142056  78.4183350
  71.4883423  11.9091187  78.5520477  72.7099152  12.7939463  78.6778336
  55.0241737   6.4956136  21.7085018  54.4044876   6.4367390  20.9813480
  55.3076248   7.4098825  21.7082024  84.7551117  47.1843719  24.3859348
  85.0879822  47.3150368  25.2738285  83.8603592  46.8676605  24.5097828
  72.6891937  30.3052635  76.3737030  73.5750885  30.2387619  76.0173340
  72.3265305  29.4244099  76.2798538  72.0539780  57.9294853  28.0436211
  71.2270966  57.4478912  28.0673485  72.5370102  57.6138115  28.8073368
  85.7712936  39.0711746   3.9368281  86.6487656  39.2210541   3.5849664
  85.8940582  38.4008713   4.6090302  17.7819118  60.1666260  67.0698013
  17.8600616  60.2504463  66.1194916  18.6842346  60.1962547  67.3878708
  69.4168854  48.5135498  85.8587265  69.3758011  47.5987434  86.1374283
  70.2058411  48.8565788  86.2783813  31.7294960  27.9459019   3.9979846
  30.9712982  28.4888439   4.2138109  31.5925083  27.6955395   3.0843191
   0.3933121  37.3752098  76.2400894   0.2522176  38.1140099  75.6480637
   0.3912702  36.6069603  75.6691132  12.3620377   8.1467495   3.2401102
  12.5487909   8.6114492   4.0558367  11.4554052   8.3760614   3.0359914
   0.4115479  67.4152145  74.2195969   1.3628154  67.4235077  74.3256836
   0.1142318  68.2100143  74.6624756  76.3943710  27.4903374  57.2126122
  77.3037643  27.2768593  57.0036583  76.1554413  26.8712406  57.9024391
  63.7978706  14.9432573  59.2254868  64.1996613  14.2133770  59.6967316
  63.5480652  15.5626001  59.9112282  11.2947197  39.2290764  11.9469099
  11.5140705  39.3005295  12.8758945  11.7263689  38.4243088  11.6601009
  14.5223551  62.1449547  14.3164816  15.1687574  61.9284134  14.9884243
  14.9847546  62.7340050  13.7202950  10.2936010  24.1688709   7.8795958
   9.7524910  23.4175243   8.1223068   9.8874149  24.9111137   8.3271675
  38.7999687  47.7857208   7.9142799  39.0631256  48.6785812   8.1373863
  38.8670273  47.3032837   8.7382898  68.5750580  54.4508247  62.3734055
  68.4380875  53.6685677  62.9077721  69.1449432  55.0069771  62.9045982
  74.7466431   2.2811644  75.0389709  74.5186386   2.1924736  74.1135635
  74.5023193   1.4411343  75.4274139  70.2811661  12.4661198  45.0756798
  70.4468842  12.3553257  46.0118904  69.4770813  12.9837818  45.0343933
  54.6452560   3.4177775   3.4527934  55.2751617   4.1372056   3.4960787
  54.2451973   3.3970795   4.3221359  12.6284723   1.2424942  45.9184761
  12.9761219   0.4244094  46.2735939  12.7516727   1.1644349  44.9724541
  43.6039886  40.8709908  82.6724319  43.7798615  40.0554123  82.2032547
  43.5302620  41.5321274  81.9841843   2.3296297  20.4151459  22.2296963
   2.8548815  21.1051350  21.8244095   2.4035544  19.6736851  21.6288624
  23.5675049  54.8615227  59.3295326  23.3857212  55.3680115  60.1211510
  23.2041702  55.3895760  58.6186333  72.9320221   4.0098381  51.4358139
  73.5869064   4.7074938  51.4105873  73.4274445   3.2245898  51.6685677
  85.3416748  59.2987442  56.8115311  86.2949295  59.3711891  56.7636108
  85.0815201  58.9845657  55.9455948  25.3415279  38.3080482  52.6099281
  26.1141071  38.2650070  53.1734009  24.7925243  37.5796280  52.9001579
  43.4160271  31.3612785  12.2392759  43.4887619  30.7630596  11.4955845
  43.6613274  32.2156906  11.8842592  69.6623688  56.6452179  28.4757462
  69.1136551  57.2048035  27.9261913  69.5566406  55.7686844  28.1059589
  19.1939201  34.8552094  20.6799469  19.1713886  35.8094406  20.7518349
  19.2615147  34.6873589  19.7400055  32.4819717   4.8478332  11.0952835
  32.9132576   4.2106562  10.5258694  32.6603966   5.6943974  10.6857405
  71.6703339  27.8511028  27.3867168  71.9516449  28.7205753  27.1019154
  70.9911041  28.0209808  28.0394192   5.1869054  26.3483124  81.7244263
   5.5723624  25.5869026  81.2909393   5.9201751  26.7606430  82.1810760
  56.1432953   8.7610149  67.3283386  56.5905190   8.6897507  66.4850464
  56.8505745   8.7951756  67.9724045  63.5436325  21.1034031  74.7234039
  64.4156876  21.2389317  75.0940552  63.2946472  20.2252827  75.0117493
   1.1617067  27.5444546  16.0432987   1.5495828  28.1818733  15.4437304
   0.3714073  27.9738159  16.3708763  44.3356895   2.3586361  57.2826347
  44.1503983   2.3821421  56.3438339  44.4000893   3.2791212  57.5371780
  12.1825037  71.7146149  67.3771667  12.5849285  70.9324646  67.7546844
  11.2681074  71.4692001  67.2361526  67.0764313  20.9442425  46.6764221
  67.7440414  21.4269485  46.1890526  67.5644455  20.4833050  47.3587837
  18.9786758  71.4661560  46.1142731  19.6055603  71.1524277  45.4624901
  19.4840736  71.5219421  46.9252548  51.8543777  22.9601746  43.0649490
  52.1867409  23.4062195  43.8439293  52.1704369  23.4894753  42.3327103
  60.5802803  66.2894974   9.8817291  60.5408897  65.3382111   9.7830601
  60.2023392  66.4565964  10.7451353  25.2435932   3.8433065  16.9170685
  25.4909782   3.2503183  17.6265736  25.5052395   4.7102275  17.2272644
  41.9679489  39.5194511  87.9586868  42.8990860  39.3040733  87.9054871
  41.7370987  39.8042793  87.0744858   6.7492890  18.9388199   6.1469455
   7.5720201  18.4498940   6.1641679   6.2710776  18.6301346   6.9165292
   9.2211466  15.7304125  85.2890167   8.7099171  16.3195190  85.8438416
   8.6501560  14.9744129  85.1523895  10.2240200  39.3221207  27.9053211
  10.3363895  39.3462219  26.9550457  10.7862530  40.0250664  28.2308903
  25.1999702   1.5514282  29.7615814  25.4022560   1.5371344  28.8261089
  25.7629185   2.2387197  30.1178856  64.2049866  25.4687862  38.5475998
  64.5434265  25.9327374  37.7818069  63.6717796  24.7622490  38.1832733
  20.2864380  50.0258598  80.0110397  19.3347359  49.9355621  80.0594101
  20.4274139  50.7563133  79.4087067  64.9873352  56.5216675  14.3410149
  64.5505295  55.8784332  13.7827282  64.3600540  56.6947861  15.0429955
  49.3616257  35.1212769  23.1166573  50.2424507  34.7483978  23.0800095
  49.3529778  35.7835999  22.4256554  83.9622879   4.1967196  73.8523865
  84.8706131   4.4985805  73.8446732  83.9933929   3.3331170  73.4407349
  69.4577866  35.8473969  55.2733040  68.5560226  35.8328438  55.5939903
  69.8091202  36.6817474  55.5841942  33.8808212  51.5830460  88.2035675
  33.1402054  52.0885277  87.8685913  34.6195908  52.1908607  88.1717911
  76.3268127   5.9200578   0.3942102  77.2503738   5.8025489   0.1718009
  76.1161880   6.8010812   0.0849090  80.7505951  52.3848648  64.5671158
  81.3868866  52.7028084  63.9265900  79.8995361  52.5472832  64.1602402
  41.9641991  43.0091248  58.9372482  42.4870148  42.4036331  59.4628677
  42.0285645  43.8447456  59.3996620  51.4298973  50.6060410  50.1365891
  51.1796799  51.2600822  49.4840164  51.2349167  51.0198479  50.9774094
  34.4490204  46.9895897  83.7403336  35.2137794  46.7860374  83.2018661
  34.6551819  46.6196556  84.5987473  57.1446571   7.6216345   7.3370185
  57.5085831   8.4910927   7.1701889  57.4755478   7.3857446   8.2036781
  86.6250610  31.6731644  34.3431320  87.1267319  31.1179676  33.7462120
  86.4796677  32.4821434  33.8525810  13.8862391  44.6321983  82.0022507
  13.1073256  44.1873741  82.3364029  14.4142704  44.8080101  82.7810364
   3.8117635  18.8729630  77.4476166   3.3598976  19.7161961  77.4793472
   3.7010984  18.5757580  76.5444794  17.2506142  16.0104771  15.0812521
  17.2847080  16.6089764  14.3350172  16.3314190  16.0127258  15.3482838
  19.2316132  11.0274200   2.4049222  18.8801460  10.1440983   2.2933614
  19.2802658  11.3798370   1.5162903  75.4507446  32.2843742  52.6700401
  76.1042480  32.6592331  53.2605095  74.9448700  31.6869850  53.2209015
  66.5664520  30.4030800  14.6918430  66.0798340  31.1833210  14.4260197
  65.9148941  29.7018681  14.6888428  18.7233486  45.5863075  52.2098923
  18.4729862  45.8803482  53.0857277  17.9736500  45.8104401  51.6585770
  23.5437355  61.8338280  13.9656649  23.3687115  61.5715485  14.8694391
  23.2063198  61.1108322  13.4368362  35.2505264  15.8823423   0.7697675
  35.6540985  15.8963757   1.6376188  35.7994652  16.4613667   0.2409660
  81.1113586  62.5178795  81.2385330  80.5125885  63.2619972  81.3017807
  81.8232803  62.8301125  80.6800461  30.6134529  -0.1719340  82.4720078
  30.8081436   0.6569911  82.9092865  31.3484650  -0.3054344  81.8735352
   5.5253959  38.9423027  51.3953629   6.4204178  38.8147812  51.7098541
   4.9993100  38.3372803  51.9182510  83.9860611  29.3584385  59.4265747
  84.6098022  28.6672115  59.2043381  83.1322403  28.9262314  59.4061165
  58.7176552  13.1642799  28.0368099  58.4980278  13.0916939  28.9656410
  58.0600471  13.7620478  27.6812019   7.9299884  46.1106720  13.7572727
   8.7703876  46.5377312  13.9233475   7.4951239  46.6773720  13.1201134
   0.6437178  54.0046005  74.2548218  -0.1624073  54.1815186  73.7699585
   0.4189217  53.2783241  74.8363876  14.0510092  61.1978645  85.7266464
  14.0550203  61.1092300  86.6797256  13.6270847  60.3987999  85.4135742
  58.6189919  71.2436676  80.7081680  58.0046577  71.8923950  80.3646927
  58.8510895  71.5703201  81.5774536  39.2242317  64.1448364  67.8597946
  38.5638924  64.5179520  68.4437180  39.9791298  64.7265320  67.9491730
  20.2158623  64.1202545  15.5981331  20.6824512  64.4295578  14.8216934
  19.6696777  64.8612976  15.8603840  75.9384384  64.1204529  77.4193726
  75.1228790  64.5897598  77.5950089  76.3865433  64.6557465  76.7644730
  28.3826523  51.6822128  82.9951401  28.7240238  50.7883339  82.9691086
  27.6672573  51.6469879  83.6301193  39.9164162  46.1420250  20.6601639
  39.4469147  46.6172523  19.9746304  39.5577240  45.2552452  20.6255074
  54.1712646  37.9409790  26.1399727  53.9652977  38.4458923  26.9266586
  53.9319954  38.5186043  25.4151745  35.5988541  10.1086025  87.3926163
  35.1253853  10.4332991  86.6266937  35.7594337   9.1846323  87.2009811
  60.2095642  25.5407619  72.7835770  61.0987511  25.3999386  72.4583893
  59.6953964  25.7329712  71.9994049  82.1242294   6.4792180  74.3815308
  82.6799164   7.0114965  74.9508438  82.6072388   5.6599317  74.2733612
   8.9333601  34.2717438  39.7605476   8.9014025  34.4734383  38.8253860
   9.1777382  35.0988617  40.1757469  77.2125626  35.5529633  81.9069901
  77.4564667  35.7225723  82.8169174  76.8881454  36.3940620  81.5852127
  35.8003654  58.6206551  64.4679337  35.4947662  58.3168678  63.6132050
  35.0215759  58.5946426  65.0238495  69.8103409  42.1461830   9.7314100
  70.1570969  42.1798973   8.8398628  69.0370331  41.5858002   9.6666021
  18.1079044  51.4422226  82.2128906  18.0840683  51.2749863  83.1550674
  18.9796181  51.8051949  82.0560455  18.1866760  62.5011253  22.4121704
  18.7129478  63.1235390  22.9140358  18.7558861  61.7392998  22.3032761
  70.6662064  61.3110352  17.8304024  71.3464661  61.8965416  18.1630459
  69.9765778  61.3440361  18.4933987  67.3950882  49.5002747  43.3046112
  66.8054123  48.7581444  43.4378510  67.2554092  50.0576324  44.0701675
  62.9807777   4.7625799  68.8487473  63.8168259   4.4365149  69.1818237
  63.2227554   5.3955569  68.1727142  66.9996033  18.4680233  52.4125252
  67.5231705  18.0104179  51.7547188  67.3997498  18.2261848  53.2477684
   3.3329794  21.6191196  81.0298080   4.0013213  21.2096729  80.4803543
   3.8275602  22.0552864  81.7236252  16.7304287   9.6133394  16.4026756
  16.5928059   9.2359295  17.2714977  16.9843750   8.8697605  15.8560200
  29.3287506  17.3371487  78.0903931  29.3449974  16.5842323  77.4995651
  30.2281780  17.4105988  78.4095612  41.2745171  63.2410011  74.9281387
  40.7715340  63.7918854  74.3283386  42.0034103  63.7948380  75.2078018
  52.7129097  45.8465805  87.6688614  52.8432770  44.9036827  87.5679855
  52.2677422  46.1141891  86.8648376  71.0049896  14.6485348  12.1057529
  71.7052536  14.8986635  11.5030098  70.2408218  14.5182438  11.5442371
  43.5991402  50.8168678  53.3440781  43.1233406  50.0460091  53.0348473
  43.7593918  51.3324394  52.5536728  64.6605148  65.5077667   2.3106055
  64.6184998  66.3779373   2.7071834  64.1695633  65.5930634   1.4933395
  53.1223183  26.2136917  64.6513443  53.4483185  25.4032497  64.2600098
  52.2331429  26.3043404  64.3087387  64.0799484  44.9414787  60.7242775
  64.7855682  44.3044472  60.6123390  64.4613342  45.6275558  61.2720718
  10.7547035  69.4223785  70.2991257  10.5280123  70.3124237  70.5686722
  10.4700670  68.8714752  71.0283127  54.8164787  70.0511551  46.6470757
  54.3583527  69.4247971  46.0866928  55.1605225  70.7075424  46.0412560
   9.6302958  40.8010139  47.1366577   8.7799330  40.4274101  47.3680305
   9.8842525  40.3410988  46.3365211  58.5352249  33.0292130  35.0695724
  58.7389183  33.6807137  35.7406044  59.3895111  32.7451019  34.7444420
  30.5453434  18.3846169  58.0754089  31.3659382  18.3124886  57.5879135
  30.8058777  18.7142391  58.9354706  78.7602310  14.6909962  55.7655411
  78.0783844  15.0774393  56.3150711  78.4666977  13.7922440  55.6161613
  21.8077393   5.5906959  25.0693073  22.5651932   5.9264784  25.5486221
  22.1323223   5.4439726  24.1808529   6.7900028  50.1128235  25.7997551
   5.9806986  49.9553871  25.3134689   6.7052383  49.5743790  26.5865974
  11.9010773  71.2406921  -0.0014244  11.9011126  72.1125488   0.3936761
  12.7691746  70.8885956   0.1952071   5.6222162  51.7624512  20.5975456
   5.6677041  50.8137932  20.7167683   6.1531935  52.1190758  21.3096638
  31.5581932   0.6200914  70.0298004  31.8945217   1.4167161  70.4402924
  32.1928787  -0.0567801  70.2648621  76.7794189  66.4610825  43.9776764
  77.5667725  66.9741745  44.1594772  76.4877243  66.7662659  43.1186028
  57.6005707   9.1293383  44.7378120  58.2843895   8.4846716  44.9195595
  58.0246696   9.9753380  44.8815422  15.9876528  38.7532120  83.0803223
  15.0440931  38.8946114  83.1573486  16.0773697  38.1170197  82.3707886
  72.6217270  30.9496059  33.2930908  73.4713898  30.7834339  33.7013664
  72.4856415  30.2023277  32.7106094  49.1685181  57.6908646  68.7758789
  49.8163109  57.2117691  69.2926636  48.4167061  57.1003990  68.7272491
  24.5344467   0.9290029  62.4420204  23.9257126   0.4888686  61.8487625
  24.8853683   0.2266058  62.9894905   1.0740759  32.8314743   2.3008413
   1.9718772  32.5615768   2.4940748   0.6278496  32.8024902   3.1471708
  33.1712799  46.0085640  25.1858768  32.2225380  45.9054642  25.1117859
  33.3778000  45.6982460  26.0675125  57.9653625  21.9567928  66.8935318
  58.7811890  21.8228626  66.4111252  57.3298035  21.3951187  66.4498901
  55.6787720  34.9081192   8.2007608  56.5558701  35.2889748   8.2441120
  55.7586365  34.1942444   7.5681205  44.9339485  26.8184013  73.9458618
  45.5939445  26.1436062  74.1048889  45.3983879  27.4969101  73.4558029
  60.0434952   3.0298967  42.4672699  59.9182205   3.5167332  43.2818451
  59.1595650   2.7767098  42.2011986  68.0933380  45.1409607  51.4867249
  67.1363525  45.1391449  51.4663200  68.3474426  45.7031708  50.7548904
  80.0581818   3.4264438   9.7926130  79.6682739   3.4749210   8.9197712
  79.7839127   4.2363596  10.2227774  77.2243423  47.5053558   3.5780947
  78.1346436  47.5098877   3.8740113  76.7291489  47.8496094   4.3214002
  56.4781914  46.1575584  75.2168961  56.5027771  46.9407692  74.6671600
  57.1552467  46.3068123  75.8768539  53.0320854  19.0309525  63.7019234
  53.3151588  19.2556915  64.5882645  52.0778961  19.1013527  63.7301559
  16.0415630  35.5612106  58.0871239  15.5810308  35.4658356  57.2534294
  16.3216152  34.6731949  58.3090057  58.1384735  29.9351330  12.9246912
  57.6907425  30.2743950  13.6997204  57.5185318  29.3138523  12.5427036
  52.9586601  30.7742634  56.1357079  52.7557793  31.5693073  55.6427803
  53.8881950  30.6191196  55.9679947   4.0577521  70.2222443  27.9936771
   3.3516250  70.6701279  28.4595337   3.9620893  70.5053940  27.0843315
  27.6838112  49.7634773  60.8456230  26.7889709  49.5125313  61.0747910
  27.5888004  50.6000862  60.3903351  44.8605728  49.3586082  20.0056229
  43.9902954  49.6690063  20.2556171  44.8960876  49.4833870  19.0572548
  85.5246811   1.3426965   0.6730986  86.3740692   1.6399122   0.3468555
  85.0065918   2.1432552   0.7562876  15.4340849  60.0806427   7.9542966
  15.2826052  59.1396446   7.8659368  15.3748398  60.4177551   7.0603852
  32.6411095   9.1438990  65.5077896  33.5357056   9.4739075  65.5916138
  32.7008095   8.2228899  65.7615814  84.2294159  62.4682236  12.0171680
  83.7481689  62.0885315  11.2820053  83.8109055  63.3162956  12.1649771
  57.9428368  56.5831261  11.3832254  57.7808075  57.3847694  11.8805628
  57.5747490  56.7598457  10.5174809  80.4195099  21.1421299  75.9040985
  80.5718079  20.8578835  76.8053436  79.6657715  21.7292690  75.9622726
   9.4755220  32.9494362  13.3311529   9.7053318  33.3044052  14.1898832
   9.1100378  32.0849991  13.5193119  18.9733696  14.6651154  19.5195599
  18.9781246  14.0159550  20.2229805  19.1464539  15.4970379  19.9602184
  12.5911980  46.7645226  62.5240021  12.3627319  47.6246986  62.1716766
  12.2352676  46.1432533  61.8887329  74.9061432  32.3640175  30.0222263
  74.5046768  32.5302086  29.1693268  75.1899414  31.4508553  29.9795094
  74.9461288  64.5308685  84.5486069  75.8995514  64.4464722  84.5388184
  74.7357101  64.7654343  85.4524536  28.6395645  15.8490963  75.6904221
  27.9478531  15.2777195  76.0240326  28.1739120  16.6043129  75.3311920
  81.1874619   5.8781710  29.2766247  80.6123199   6.4542904  29.7801456
  82.0059662   6.3678422  29.1959610  49.3578911  32.6533241  57.2517624
  49.9509087  32.6386108  56.5005341  49.7983856  32.1220856  57.9150734
  52.1453896  24.1083546   8.2512074  52.3104973  24.9152527   8.7389421
  52.7562714  24.1441441   7.5151520  16.5822029  26.4149685  68.7159195
  17.3091831  26.2044334  68.1299133  15.8147488  26.4440861  68.1446075
   6.3450294  52.7317238  72.8605042   6.4834704  53.2212677  73.6713104
   5.8323097  53.3223572  72.3086853  42.0488892   9.1490431  75.4225540
  42.0193176  10.0572329  75.1216431  42.0263405   9.2122421  76.3774033
  56.5691261  20.0316639  62.0492744  57.5151100  20.1735058  62.0843506
  56.4549904  19.1147461  62.2992096  70.8849030  35.5574188  86.4777908
  70.9411011  36.0523109  85.6603775  69.9479218  35.5166473  86.6691589
  66.1084442  36.5387878  84.1063004  66.8515549  36.1743698  83.6254501
  65.7814484  35.8082924  84.6313553  87.0234833  39.9222336  44.6134834
  86.5848846  39.6944160  43.7937508  87.0327530  39.1068687  45.1148071
  53.9022064  44.6566544  75.6308060  53.7795715  44.7090874  76.5786743
  54.6266861  45.2554131  75.4495468  61.2884293  69.1582108  61.8341103
  61.9848709  68.5450058  62.0690193  60.5417213  68.6004562  61.6159973
   3.7120399  63.8026543  66.8126602   3.3956964  63.1851349  66.1532440
   2.9448764  63.9888878  67.3539658   3.9449730  21.4055176  19.1257019
   3.7056758  22.1924114  18.6360397   4.8674607  21.5325890  19.3472881
  10.6202745  10.7080393  65.0532761   9.8417368  10.2784872  65.4076691
  11.1776609  10.8610191  65.8162613  60.2884445  55.3580933  64.1781769
  60.9665985  54.9040222  63.6780167  60.7365341  55.6632919  64.9670334
   3.5474815  60.7877083  56.5876007   3.0891256  61.6048431  56.3915558
   4.2776346  61.0510902  57.1477242  77.1860962  42.2122421  65.7919083
  76.6050873  41.9471703  65.0788879  76.7896118  43.0111122  66.1395340
  60.8974342  55.6267166  46.6122360  60.6949768  54.8254204  47.0951080
  60.8310051  56.3232422  47.2654381  53.2003479  55.3039551  62.3748131
  52.7615852  54.4649048  62.5152130  53.2514343  55.3912048  61.4229660
  18.3866215  43.9962883  15.5113831  19.3243484  43.9736290  15.7021418
  17.9879856  43.4734459  16.2070522  28.7843513  13.2751741  81.1184158
  29.6386127  13.1242943  81.5230179  28.9723644  13.3504200  80.1828842
  13.1261139  33.3611221  72.6096115  13.7839231  32.9771042  72.0299149
  13.3358898  34.2949333  72.6245346  10.4447231  44.7991066  56.5446396
   9.8311520  44.7969284  57.2793198  11.3051310  44.6945724  56.9508438
  31.3101692   3.3831115  85.5609589  30.6747017   3.7739639  86.1606598
  31.8927174   2.8760490  86.1264267  49.8342094  63.5441093  87.3219910
  50.2741203  64.0718994  87.9884338  49.4279137  62.8293762  87.8122101
  62.8489799  12.7682333  75.1720428  61.9911766  12.8983078  74.7677078
  63.4402008  13.3230476  74.6632462  73.9681625  20.7542133  57.2758522
  73.3762360  21.4425373  57.5792885  74.8445816  21.1073189  57.4289627
  80.1757355  56.6627007  37.3802452  80.4250565  56.7204895  36.4578934
  79.2212753  56.5916672  37.3663521  63.2935371  66.4054413  89.2624283
  64.1514587  66.4147797  88.8380280  62.9484558  67.2875443  89.1244659
  43.3479080  46.2443047  54.2417946  44.1903343  45.9397888  53.9044228
  43.5763893  46.8260994  54.9667397  57.9483261  34.9717331  80.0568695
  57.1519585  35.0416908  79.5304260  58.3791008  34.1796722  79.7354584
  70.9966812  32.4156876  42.5159111  70.8186188  32.1666985  43.4228439
  71.2602005  31.5995579  42.0908012  55.9019661  14.5872860  69.3725815
  55.2439232  15.0556459  68.8589096  55.5274811  14.5361319  70.2519989
   3.4809706  52.9301453  83.6485291   2.8823037  53.4290276  83.0926971
   3.8585351  53.5818481  84.2392578  16.1594181  36.0536995  61.4036903
  16.1621437  35.4281921  60.6791458  15.9024630  36.8838806  61.0024376
  37.1550026  58.7954407  48.9513016  37.1299553  58.8454437  49.9068680
  38.0111809  58.4157829  48.7536888  47.4805107  30.2665291  41.5779495
  47.7551880  31.1682682  41.7442398  47.2284851  29.9304447  42.4380417
  76.4453506  42.0654640   1.0803425  75.8979187  42.6229324   1.6333175
  77.3104706  42.4739838   1.1103508  10.4279480  32.6072617   0.7026619
  10.9855080  32.8055763   1.4550114  10.0965586  31.7261047   0.8757922
  54.5259323   1.4148543  39.3066559  55.0614586   2.2020483  39.4054871
  54.8795471   0.8021020  39.9514236  32.7540436  69.0377197  23.5940361
  32.3224144  68.1849899  23.6467133  32.0487633  69.6507645  23.3866863
  43.0663643  60.2456169   5.8173800  43.7765579  60.6470299   5.3166604
  42.3471527  60.1654129   5.1908541  57.1192474   4.1792545  35.9901810
  56.4790726   3.7818296  35.3998718  57.5418510   3.4360445  36.4206161
   1.3866832  53.2703781  57.5641479   1.5559670  54.2050552  57.4460373
   0.4352021  53.2080116  57.6479721  82.1286469  43.2227516  43.6253433
  82.2197723  42.9441795  42.7141228  81.2203293  43.0191422  43.8483582
  51.9041481   5.0649285  52.8410301  51.2649193   5.1450515  53.5489845
  52.5729370   4.4744673  53.1878891  54.7548409  59.2854691  18.7646790
  54.1296043  58.5969582  18.9910965  54.8217659  59.2439651  17.8107224
  66.7311325  68.8506393  45.4694023  67.1881180  68.0317612  45.2774925
  67.0510406  69.4641495  44.8079681  48.0236397  15.0710735  88.7870483
  47.9524803  14.3519230  89.4147339  47.8838043  15.8603487  89.3102341
   3.1568894  66.9108505  16.4834633   4.1140528  66.9037704  16.4789925
   2.9248705  67.8259811  16.6413536  70.4455338  30.9427280  44.8450737
  71.0276642  30.3769264  45.3522453  69.8701706  31.3412590  45.4980392
  69.9274673  61.7405815  47.6779785  70.5905228  61.1752853  48.0742455
  70.0810089  61.6660080  46.7361221  39.5536690  45.2268181  26.5108852
  40.3015480  44.6614494  26.3178349  38.7910919  44.6562386  26.4152145
  82.0531693  51.1068497  84.5969620  81.0995636  51.1152382  84.6793442
  82.3649750  50.8136101  85.4531250  82.8017960  27.6296082  40.7806778
  82.5634537  26.9055195  40.2017784  83.7487869  27.5455818  40.8919220
  78.4976349  24.7153263   6.6320577  78.4490204  25.4843998   6.0642595
  78.2047577  23.9907169   6.0794296  40.9312096   0.5549207  14.9176455
  40.1334686   0.8682398  15.3438740  41.4693031   1.3392478  14.8103180
  22.6599274  70.4429855  47.2910995  22.1167145  71.2294769  47.3419189
  23.3742275  70.6050186  47.9073372  50.1149673  48.4160309  88.3071671
  50.6931305  48.3061638  89.0620728  49.8279076  47.5280952  88.0940933
  28.9524345  39.2221031  85.2736435  28.2925968  38.5873985  85.5529175
  29.4589424  39.4049492  86.0650024  19.2957439   6.3355088  57.5356712
  19.1347046   6.5005999  58.4646721  20.2332401   6.1491914  57.4845123
  72.1945343  35.3814850  57.8647881  72.2276154  34.6432381  57.2564087
  71.2646484  35.4830017  58.0678749  71.2648392  35.0654449  19.1722641
  71.1202927  35.2354507  20.1030903  71.9092789  35.7213211  18.9062500
  79.6410828  31.1705875  51.1258507  80.2535629  31.0815163  50.3956642
  80.0301514  30.6512566  51.8295212  80.0285645  59.8432732  62.6710510
  80.4343338  60.6491814  62.9905663  79.8133087  59.3526840  63.4642868
  27.0462360  41.8936920  82.1922836  26.8970528  42.8157196  81.9829025
  27.1813850  41.8820877  83.1398239  20.2526550  58.8169212  16.4862957
  20.8971329  58.1093216  16.4997940  19.7323322  58.6821213  17.2783337
  29.8431988  12.8543463  61.5700188  29.0578384  13.1977930  61.1440048
  30.1157932  13.5509491  62.1672363  83.9555054  63.7090263  19.8760681
  84.5603027  64.2933578  20.3332481  83.1532745  64.2222595  19.7798843
  59.0801811   5.4346066  66.4563293  58.1494789   5.4058499  66.2345123
  59.2252922   6.3289504  66.7650757  57.0990105  31.3535805  23.7944641
  56.2128372  31.5488396  24.0990925  57.2785530  32.0235023  23.1347675
  21.0434303  59.5332794  49.6602097  20.6209984  58.8210297  49.1801224
  21.6960621  59.0982513  50.2088966  41.0499153   3.0613961  29.9276371
  40.6008492   2.6965346  30.6901646  40.7041779   3.9504864  29.8487892
  57.3345795   8.2016306  55.9009171  58.0354233   8.6043272  56.4136391
  57.1386948   7.3860464  56.3620949   4.9704504   4.8740120  27.5705757
   4.6918278   4.6625414  28.4615765   5.8793960   5.1588187  27.6650982
  37.1900024  44.4311829  46.9409637  37.9530182  44.8500710  47.3391724
  36.5480881  44.3798943  47.6491623  19.7186794  47.9626579  30.1181278
  19.0113697  47.4558258  29.7192993  19.8938656  48.6641273  29.4908466
   2.5633872  69.2741089  83.2853317   3.3109808  69.8107910  83.0220718
   2.6778793  69.1495895  84.2274704  17.0623264  16.1593723  17.7082138
  17.6284275  15.4310579  17.9637909  17.1542358  16.2117558  16.7568779
  34.1163864  51.9766693  22.6466923  33.1894646  52.0496521  22.8741150
  34.5793571  52.1945114  23.4556637  73.5544586  42.5878754  65.4010849
  74.2175674  42.4451866  64.7256927  73.9782944  43.1672630  66.0342560
  44.3056717  65.4956055  24.2112026  44.5452080  66.2858124  23.7270184
  43.4109230  65.6593475  24.5092716  11.6694775  63.2320900   1.6613656
  10.9755487  63.2263756   2.3206544  11.6754704  64.1292343   1.3277074
  33.6596947  58.1917229  34.8404503  33.4636497  58.8790474  35.4771423
  34.2146683  57.5746574  35.3173904  28.4664841  68.7473373  73.2802734
  28.0162888  69.2410965  72.5948792  29.2361736  68.3807068  72.8450775
  65.1678009  54.3280029  72.8184891  64.6577606  53.6042633  73.1821976
  65.7196732  54.6203918  73.5438690  15.4657450  38.4990578  65.5277634
  15.9168882  39.0091400  66.2004547  14.5478506  38.5034523  65.7992096
   2.0314841  24.0654850  67.0907898   2.6874502  23.9957008  66.3972015
   2.0743701  23.2248039  67.5464783  82.7666397  43.5384102  19.9577103
  83.2823715  43.7403793  20.7383938  81.8579788  43.5647278  20.2575073
  28.9180012  26.0872326  12.6902180  29.3889656  26.7282257  12.1577215
  29.4027081  25.2710762  12.5670071  30.9048958   3.7377515  64.1471710
  31.4828339   3.0847006  63.7525253  30.8871059   3.5111697  65.0769958
   8.6103315  62.5230827  67.3677902   7.8973360  63.1591759  67.4248352
   8.2347603  61.7111473  67.7082977  80.2756195  36.4308357  32.4240646
  80.7583389  35.9064865  31.7851048  80.8110046  36.3950386  33.2167206
  36.3700409   7.4347682  86.8812332  36.9291077   6.8486876  86.3711472
  35.6823120   6.8671198  87.2291412  79.0466766  43.5020294  31.5066891
  78.3098831  42.8922882  31.4668884  79.5934830  43.1707878  32.2190857
  12.4856396  46.8771591  51.1849518  12.0494299  47.2285614  51.9611397
  12.1280060  45.9945679  51.0881729  12.8510885  52.6967468  66.6716919
  12.7412329  51.7798195  66.9235001  12.5329237  53.1921577  67.4263840
  49.7022171   5.6137261  86.5215225  49.5343361   4.7515321  86.1411667
  48.8322258   5.9672308  86.7069473  19.4185810  57.3496971  10.8367281
  18.7018337  57.9061775  10.5320406  18.9871273  56.6523018  11.3304081
  67.9577179  37.2704659  47.8527107  68.0903320  38.2127419  47.9564247
  67.7837296  36.9540710  48.7391968  59.2843018  29.7703609  78.1646194
  59.8647270  29.1034985  77.7976913  59.0941238  30.3531246  77.4294662
  45.0404930  49.3848953  10.8988905  45.8694000  49.0743713  11.2631998
  45.1249504  49.2425728   9.9561062  18.5246696  61.6492729  38.1336555
  18.3094616  60.8123055  38.5452385  18.1333618  62.3066902  38.7089081
   0.6194199  65.8364182  14.9063025  -0.0479728  65.1585770  15.0128660
   1.3688116  65.5156784  15.4080706  14.2997208  33.1221199  14.7853222
  14.6565208  32.8518982  15.6314344  14.4258032  34.0707436  14.7641573
  24.8215580  50.0786705  21.0881481  24.6397209  49.9122124  20.1632366
  24.3537579  49.3848190  21.5528641  47.8131828  45.7196007  76.1824265
  47.9971504  45.5375786  75.2608719  48.6653976  45.6568108  76.6137314
  63.0438499  25.9888420  19.7895222  62.1189537  25.9911499  19.5429611
  63.3505859  25.1115112  19.5605297   4.1424770  27.8473873  59.4275169
   3.3973963  28.0561619  58.8640480   4.3166718  28.6586990  59.9046593
  22.7037201   7.4997358  76.3820724  22.5505562   6.6017489  76.6759949
  23.2755527   7.8764277  77.0509033  14.3460436  16.6795845  77.1883163
  14.8311396  15.8637171  77.0647202  14.8189774  17.3219337  76.6592102
  17.4579487  23.2546768  12.3665314  17.7508640  22.5504608  11.7881613
  17.9392529  24.0261021  12.0674000  83.8331909  35.6727333  57.2688637
  83.1368484  36.2080650  57.6493378  84.4467087  35.5302467  57.9896393
  87.0701065  31.2995281  23.5360584  87.3481293  31.6382446  24.3870621
  86.2410126  31.7444839  23.3604221   0.7666854  35.3370552  80.3096771
  -0.1074784  35.5516777  79.9840927   0.9057479  35.9413986  81.0388336
  44.2216492  69.5121231  77.2031784  45.1525154  69.7160339  77.2934341
  43.7765694  70.3404465  77.3821106  43.9926529  37.8673477  21.1812916
  43.0765343  38.0522232  21.3881149  44.2498207  37.1953773  21.8126049
  29.4368305   9.7637701  29.2019196  30.1067448  10.4444818  29.2657757
  28.6171398  10.2146606  29.4045010   8.6453457   2.0900922  32.2090912
   8.2018566   1.5641601  32.8746338   9.0585327   1.4476252  31.6322517
  52.1152267  50.6309128  80.4238129  52.0569229  51.1684303  79.6339340
  52.9863968  50.8150711  80.7750702  28.9313469  52.2921906  18.8554211
  29.5986385  51.7383232  18.4502258  28.5901222  51.7659950  19.5785484
  68.8266602  48.9248276  83.0218735  68.7233582  49.1357689  83.9498138
  69.2460632  48.0644150  83.0170898  60.7375374  29.5080032  66.0831757
  61.1540604  30.2769928  66.4722748  60.0079613  29.8622761  65.5748062
  33.4246292  57.7808952  84.5952072  33.4400787  58.7378197  84.6122665
  32.8190613  57.5386047  85.2957916  21.0887470  28.8147030  72.2792664
  21.0796013  29.7631741  72.4079132  21.3120518  28.4585018  73.1391983
  51.8209610   3.3090131  67.4266357  50.9910316   3.0374548  67.0345917
  51.7548409   4.2617230  67.4914780  77.4976807  48.1373215  57.3345718
  76.7705841  48.7064400  57.0822525  77.3529968  47.9618645  58.2643623
  38.7276764  64.4974823  36.8328819  39.1076927  65.2615738  37.2664490
  38.9058647  63.7703629  37.4293556  64.9845352  31.1610641   9.1493130
  65.5027313  31.8151627   8.6804218  65.5606842  30.8567886   9.8505268
  56.4961967  13.6610203  74.4238205  56.4995766  14.5954437  74.2162781
  56.7632141  13.2339191  73.6098709   5.5969934  15.1145592  25.8332558
   5.9686103  15.5172062  26.6181183   5.9116406  14.2108335  25.8557987
  10.3268042  21.0713100  85.2332306  10.8292618  20.4597950  84.6948853
   9.4126959  20.8793507  85.0239716  68.9074326  55.2139473  14.7256384
  69.8321152  55.3003807  14.4938641  68.6557693  54.3535995  14.3899260
  60.1914635  14.1484604  44.4491844  60.7909927  14.0339870  43.7118263
  59.5364647  14.7697687  44.1310844   5.7551723  15.2720413  56.4731598
   5.8548393  15.6101112  55.5832100   6.4376993  15.7164593  56.9760323
  48.6710854   5.2885456  37.9505501  49.0513191   4.5446672  38.4177742
  47.9866714   5.6141143  38.5351944  41.9223137  52.8214188  54.3359985
  42.4782562  52.0494690  54.2299385  42.2061386  53.2090683  55.1638870
  66.8664322  23.6595211  62.3294258  67.3314743  24.4509773  62.6006508
  67.0690079  23.5699463  61.3982048   2.4710040  31.1661854  78.2197723
   3.1277492  31.6409931  77.7103882   2.1247983  30.5115471  77.6132889
  59.7541313  39.5586777  73.6642456  60.0803604  38.7613945  74.0815582
  60.3896103  39.7444153  72.9729385  44.8228683  55.9579887  14.5400925
  44.0944366  56.4772797  14.8806181  44.8715553  56.1925125  13.6133451
  76.0083771  42.3128853  10.0393658  75.7017670  41.6191597   9.4554434
  75.7257004  43.1239395   9.6168509  58.0369072  54.9507332  74.8459167
  58.8257828  54.4692268  75.0950241  57.3178101  54.4437714  75.2229080
  65.9640274  36.4081955  80.9623489  66.6885834  36.1435394  81.5290985
  65.3860779  36.9145432  81.5331497  62.4819527  37.9991379  69.9384003
  62.8712234  37.2305794  69.5212479  62.3493919  38.6194077  69.2215195
  32.9180984  58.2205353   2.9208875  32.0662079  58.6387749   2.7960055
  32.7240028  57.4250870   3.4166896  66.9881134  67.2237167  50.9587898
  66.8466263  66.9869156  50.0421982  66.1111679  67.4030685  51.2979469
  41.5351791   1.6779227   4.3226881  42.1569176   2.3799536   4.1307964
  42.0656166   0.9927460   4.7293816  14.3257866  48.1207199  39.6375504
  13.6639090  48.0756340  40.3275642  14.7777452  47.2782059  39.6837730
  82.4986649  46.1487427  77.0175323  83.3947144  46.3146973  77.3104324
  82.5610428  46.1152725  76.0629501  26.0202847  62.5536423  80.7880173
  26.9755363  62.5313110  80.7312241  25.7688046  61.6448021  80.9523315
  63.6565971   0.5988421   2.2336376  63.8872795   0.1695824   1.4097719
  63.3370972  -0.1100850   2.7918260  59.2634392  45.8661804  84.6437912
  59.0389366  46.7965431  84.6599274  60.2197113  45.8512001  84.6044159
  10.3766384  37.4799461  16.3408031   9.4343147  37.3822708  16.2039890
  10.4537706  38.1893196  16.9788265  56.3456268  25.2415543  69.9314041
  55.7599182  24.7328606  70.4921265  55.7968788  25.5129795  69.1955795
  22.1478405   0.0628630   8.2484980  21.9197311   0.7448146   7.6167226
  22.3357716  -0.7073531   7.7121387  73.8873215  15.6512899  43.1816254
  73.0306473  15.2560091  43.3431435  73.8004532  16.5497322  43.5001907
  69.9134750  29.6033058  88.0795517  70.3407974  29.6905384  88.9316177
  70.4749680  29.0018368  87.5904770  72.3942642  34.0903130  41.0558815
  71.7024460  33.6091232  41.5098267  73.0726852  33.4355621  40.8907204
  73.6265259  23.6052151  53.8038025  72.9957275  22.8935490  53.9126892
  73.1178665  24.4015789  53.9564362  67.0036240   7.7060757  -0.0188212
  67.6831360   7.6195793   0.6497714  66.3106613   8.2101107   0.4077679
  79.9622650  58.1640053  18.3541508  79.5222473  57.3142662  18.3305473
  80.8939590  57.9499969  18.4029026  74.0813293  51.3310089  12.7680197
  74.1853638  51.6703758  13.6569729  74.4916763  50.4665642  12.7921095
  16.5522175  60.8339539  76.6406021  16.9248848  61.0042000  75.7755203
  16.2959766  59.9120750  76.6138077  49.4535713   9.8445282   5.7282043
  49.1570549  10.6965876   5.4083519  50.3986816   9.9464903   5.8404379
  20.4411812  55.1858177  88.3975906  21.1907520  54.8146477  88.8629990
  20.6243286  55.0149345  87.4737396   7.0426884  70.7260895  85.1542282
   6.1422896  70.5531845  84.8792419   7.1730609  70.1614532  85.9160843
   9.8546791  41.7892570   0.3681608  10.4810238  42.3085785  -0.1360516
   9.0744133  41.7517700  -0.1850218  29.7069855  69.8682709  -0.3111444
  30.3727741  70.3787689   0.1496752  29.0628071  69.6510391   0.3627059
   2.9231124  55.0773010  36.6298714   3.5916822  54.6807175  37.1884117
   3.1828101  54.8395958  35.7397690  36.0376244  37.8461914   3.7548387
  36.7147903  38.2658539   4.2854595  35.2322693  37.9618492   4.2590809
  75.4776306   2.9280019  19.8476582  75.0893707   3.0736306  18.9849415
  74.7860641   2.4999552  20.3523808   2.4869177  69.5059052  45.3760986
   1.6413674  69.8969803  45.5959511   2.3855844  69.2089691  44.4717789
  71.6800232  30.6450462  21.7801495  71.6492386  30.0442638  22.5246925
  71.3790207  31.4816093  22.1348190  35.2080345  64.0861206  34.1432724
  35.1310310  64.4942322  33.2808647  35.0313644  63.1586075  33.9859657
  27.2256050  67.0982132   8.6099834  27.7098713  66.2726288   8.6208544
  27.7612476  67.6830444   8.0739841   9.3396540  50.5662498  59.6917725
   8.9793367  50.4118729  58.8185196   9.4672394  51.5139656  59.7341232
  74.5661087  43.7726631  77.3043823  74.2013092  43.9093475  76.4300385
  75.5141754  43.7988892  77.1751328  15.2367754  63.3069687   0.4009255
  15.6825056  63.7643623   1.1139110  14.8142500  62.5590973   0.8232933
  10.9506474  52.3100510  88.2828674  11.7020950  51.7262459  88.1792755
  10.3767147  52.0944481  87.5477829  74.4501419  43.9819031  27.1798744
  74.3392487  43.3246841  27.8668957  74.0089569  44.7604294  27.5197105
  24.9459362  38.3327217   8.1287146  24.4789371  38.0668793   7.3365841
  24.8522053  37.5883904   8.7231998  61.1585884  62.7296753  39.4852295
  60.9600754  62.7885399  40.4197655  62.1126938  62.6630707  39.4467773
  13.3784313   2.8959975   5.8625317  13.7645493   3.6767018   5.4654860
  12.8353157   3.2332582   6.5749307  13.4064894  37.1399956  34.3852158
  14.3431692  36.9724159  34.2813873  13.2677250  37.1456680  35.3322868
  23.8268757  61.7764664  24.3544750  24.3601990  61.4275703  23.6402798
  24.0931759  61.2699471  25.1217785  84.5809860  43.1941223  12.2460785
  85.5290756  43.0932045  12.3307686  84.4038391  43.0250626  11.3207312
  44.2594070  67.0545959  51.4945717  45.0746078  66.9572601  51.0024300
  43.9699516  66.1570511  51.6584625  74.1229019  11.2745476  76.4453278
  73.4148407  11.5711432  77.0170822  74.8836975  11.2058716  77.0221405
  66.8371658  25.4186630   3.2747917  67.3988419  24.6697178   3.4743769
  67.0330963  26.0549812   3.9625006  29.2035999  32.0350266   6.3823209
  29.7474957  31.3765965   6.8146200  28.8643684  31.5922623   5.6044302
  70.0833282  49.9858055  57.0797462  69.3539352  50.5462379  56.8149071
  69.9431381  49.1684113  56.6017914  16.9282646  13.8505144  79.5936890
  17.2540207  14.6481295  80.0107346  17.6878700  13.2688875  79.5630188
   0.6632227  47.4354134  29.2020226   0.1494511  46.6750221  28.9298477
   0.2049238  48.1835632  28.8193150  61.9144173  45.9613953  67.2483444
  62.3785133  46.6879196  67.6642914  61.0842400  45.9052505  67.7215118
  17.4726467  22.7758121  69.4729691  17.4448013  22.7888927  68.5162659
  18.2406693  23.3011608  69.6974335  40.9624481  41.1726913  40.3210487
  40.4037476  41.1534042  41.0980377  40.3538742  41.0938988  39.5864334
  74.0300674  18.2722740  12.2136927  74.5393448  17.5339699  12.5480261
  74.4057007  19.0383701  12.6475506  75.9836502  65.4477997  39.0156517
  76.6793976  66.1044312  39.0473099  76.3177948  64.7193680  39.5390701
  24.9542389   0.3784765  43.9854355  25.6629429   0.8866850  44.3800163
  24.2474689   0.4124576  44.6300697  31.4338875  39.1782799  17.2791710
  30.8449364  38.4341698  17.4043350  32.2533035  38.7869110  16.9764843
  48.6912231  68.1131821  68.6505432  48.0249367  67.5936966  69.1004639
  48.4891205  69.0184479  68.8869400  81.7424011  24.6390057  14.0710421
  81.2068253  25.4203243  13.9334784  81.4949722  24.0504074  13.3579073
  77.3670959  58.2640724  77.5696716  78.2675705  58.5869446  77.6032562
  76.8797607  58.9591675  77.1274338  60.7930984  68.9339676   8.4914007
  61.3150558  68.7727814   7.7053928  60.1290894  68.2445755   8.4835081
  51.8827362  68.7292099   7.4868574  52.2127495  68.5876236   6.5995727
  51.2432594  69.4354782   7.3946953  56.2660828   4.5855489  10.7586727
  56.9650612   4.7942643  11.3784304  55.7248383   5.3746319  10.7334404
  23.5678425  45.6298523  54.9971771  23.6889801  45.0713501  55.7650566
  22.7087517  46.0317078  55.1264229  85.4657059  47.3572464  53.4019394
  85.4685516  48.2007217  53.8544579  84.9561386  46.7813530  53.9719505
  20.5087471  51.6231766  72.5555420  21.1834488  50.9480743  72.4830933
  20.2404232  51.7915382  71.6522751  43.3663330  42.6685524  80.5171585
  42.6259880  43.2750893  80.5017853  43.2563858  42.1363945  79.7291489
  84.5111847  41.0311241  75.0776138  84.9007034  41.9053955  75.0651169
  84.2191544  40.9119148  75.9813461  60.0442429  12.9038067  32.2927055
  59.2997208  12.7776308  31.7044907  60.2225761  13.8434992  32.2551727
  34.5485802  48.3852921  34.5677834  33.6644211  48.5716248  34.8836594
  35.0969429  49.0497665  34.9849205  20.6963406  53.8275757   2.5580084
  20.0162296  53.2451286   2.8962872  21.1606407  53.3010941   1.9072605
  72.0555115  13.8767691  18.6546936  72.8464050  13.8063784  18.1201267
  72.3398285  14.3386488  19.4434013  11.6769028  35.1787300  79.7960510
  11.8780937  34.8601227  78.9161377  10.8768559  35.6929016  79.6874924
  81.9947281  63.8508720  68.1321945  82.2388229  63.1967049  68.7869568
  81.3854752  64.4310074  68.5887909  72.0554199   0.2640598  25.6073303
  72.5358658   0.3701555  26.4283981  72.5583344  -0.3869540  25.1179523
  58.2750816  59.3525162   9.3817949  58.4389992  59.9973221   8.6936169
  57.5670395  59.7322540   9.9020920  60.9369087  36.6553001  24.1095409
  60.3196259  37.1418304  23.5632038  61.2145424  35.9211311  23.5616837
  57.7464714  21.6774635  84.9594803  57.3114128  21.5782318  84.1126556
  58.6110992  21.2871685  84.8317413  64.1034927   0.5122208  45.9254799
  64.3347549   0.5114362  44.9966354  64.0085373  -0.4135519  46.1494408
  84.9931946  67.3530807  83.7743683  85.4825897  67.9830017  83.2452927
  84.6267548  67.8739929  84.4889374  46.8052292  40.1402435  50.8636513
  46.2062340  39.3969460  50.9340019  46.7838554  40.3781738  49.9367409
  36.6123772  54.4482231  61.6330872  36.9278145  54.9515839  60.8825150
  37.2388535  54.6405258  62.3307838  41.8315392  59.4892006  61.8679085
  41.2661858  60.2500687  61.7349243  41.2333565  58.7419739  61.8596573
  22.8195972  21.1861248  12.1391315  22.3687000  21.9926147  11.8891392
  23.6564503  21.4810352  12.4982128  63.6249733  19.2806702  21.8030033
  62.7373276  19.6335659  21.8644791  63.6457100  18.5712757  22.4453125
  48.4664268  49.2831764  39.1059723  48.0947609  48.4022713  39.1518059
  49.3987732  49.1593170  39.2837944  66.3269653   3.4102838  63.1271400
  67.1351547   3.1475208  62.6866646  65.7590637   2.6423640  63.0637321
  75.5511398  22.5538864  26.4257927  75.4854050  21.8091087  25.8281155
  74.8221207  23.1233673  26.1799221  85.6661301  63.7649689  14.7555256
  84.8187561  64.1542892  14.5396109  85.4630508  63.0975952  15.4109678
  17.9206905  46.6860046   8.6946392  17.2480202  47.3641739   8.6326857
  18.5280056  46.8852463   7.9821057   9.1495380  55.2095528  59.0407410
   8.6272831  55.6849403  59.6868744   8.5040264  54.7653084  58.4910202
  23.7617950  61.3785820  37.6233368  23.0874538  61.9848709  37.9297829
  24.3378868  61.9159813  37.0796890  38.9866447  49.4447365  44.2732773
  39.2810287  48.6508293  43.8268661  39.4206009  49.4149742  45.1259384
  67.9212341  58.7870255  60.8367653  68.4479141  59.2355309  60.1751823
  67.0398712  58.7613373  60.4642448  51.8425636  26.7870922  67.7092514
  51.2477798  27.1369133  68.3726349  51.3047485  26.7121544  66.9209747
  85.0908203  61.7660179   7.2975860  85.2591095  61.4883614   8.1980400
  85.5355911  61.1121712   6.7582397  82.0625534  64.6743393  78.8069687
  81.3015137  64.5570831  78.2383728  82.7448807  64.1342316  78.4082870
  56.7401047  56.8525085  23.7593441  56.7136497  56.2146873  23.0461006
  57.2440872  56.4201241  24.4487476  16.7600212  36.1073990  69.9791641
  16.8098793  37.0630455  70.0012283  16.1053486  35.9171715  69.3072662
  22.2822838  51.2328262  33.6801949  22.2024460  50.6058578  32.9613304
  21.5604153  51.8465080  33.5440521  78.0084991  41.6357880  82.1049728
  77.5968933  42.0068169  81.3244934  77.4850540  41.9696846  82.8334961
  33.8096199  67.5012283  11.7460747  34.5019150  67.3947906  11.0936718
  33.0109634  67.6164703  11.2311945  21.3243961  71.1938553  38.6643829
  20.8878708  70.7686844  39.4025612  20.9768524  72.0857315  38.6619835
  65.7941284  30.7809963  18.6653900  65.3800964  29.9464111  18.8851109
  66.7271347  30.5764427  18.6031055  48.0435867  32.9138756  15.7776270
  48.2948265  33.6284828  16.3628178  47.5056610  33.3325043  15.1055984
  74.9372864   5.0528769  75.0283051  74.9568939   4.1392937  75.3132858
  75.4294891   5.0583105  74.2073669  59.4465103  48.8540421  19.2962322
  59.0275230  48.7098770  20.1447010  59.9865646  48.0754967  19.1604290
   0.6312439  37.7147484  26.9534245   1.4332359  38.2369423  26.9722481
   0.9224989  36.8217545  27.1377296  67.1571350  27.0217133   5.5197926
  66.7656784  27.7315292   5.0107198  67.9361343  27.4123325   5.9157743
  66.3297272  29.9822006   1.3574345  65.4379120  29.7692299   1.0825951
  66.8649673  29.2705669   1.0062530  83.4681854  70.0766144  23.1585350
  83.0987091  69.2029800  23.0301781  84.2242889  70.1054077  22.5722656
  71.9029007   2.8720989  30.6438770  72.2125702   2.3103793  29.9333782
  71.4289551   3.5770338  30.2026596  75.6616974  17.9186497  66.3357468
  74.9192123  18.1196651  66.9054337  75.4400787  18.3287964  65.4997482
  14.8900213  61.1732712   5.6489124  15.4509497  61.7983551   5.1897192
  14.6603727  60.5241280   4.9839988  37.6561584   0.9550664  23.3739967
  38.2217598   0.6058594  24.0627499  37.4227943   1.8323460  23.6775627
   3.0034988   4.5519223  13.9632082   3.2902558   4.0280461  13.2151737
   2.7402723   5.3896084  13.5821228  75.5051041  29.8421402  28.8642139
  76.3243332  29.3981800  29.0832691  74.8521576  29.1425724  28.8417168
  80.0943222  26.0197411  52.4823074  80.4308929  26.4964848  51.7235756
  79.1576691  25.9248676  52.3093643  54.3343353  35.2780228   4.3348680
  54.8184052  34.4619408   4.2086954  53.9578819  35.2001228   5.2114773
  36.6199760  48.1490250  76.9081726  37.3817368  47.7445374  76.4930344
  36.0681419  47.4109573  77.1669540  17.6365547  70.6976929  75.8850098
  17.8412590  70.3201370  75.0295639  18.1655197  70.1926041  76.5025177
   2.8761590  21.1840858  34.3855705   2.8782043  21.9993725  33.8840408
   3.2648544  21.4200573  35.2278709  20.1662560  46.8529015  34.4900246
  20.2462578  46.0029907  34.9230194  20.6799870  47.4487686  35.0352325
  54.3984261  56.7136116  58.7872620  53.7297859  57.3916588  58.6902924
  53.9165268  55.8898125  58.7140617  50.3750610  38.6079903  78.8584442
  50.3384171  39.2854652  79.5336609  50.5441933  39.0872002  78.0472794
  53.5358963   8.4746380  66.6474609  53.6887207   7.5476766  66.4641037
  54.3073654   8.7513437  67.1419296  20.8687401  62.8263474  44.5519066
  20.8630695  62.9601517  45.4996910  21.6253948  62.2616768  44.3942604
   6.1428561  31.3751087  55.1651535   5.7525201  32.0003204  54.5544357
   5.3943977  30.9403267  55.5738182  65.9655609  54.2470703  80.5158463
  66.7091370  53.9226990  81.0238876  65.2537994  54.3184204  81.1518860
  72.2776337  50.6443748  50.2099571  72.1115875  51.3518410  49.5869370
  72.6260223  51.0847473  50.9851532  65.1092682  24.7963619  79.7647858
  66.0538330  24.9183826  79.6692047  65.0196686  24.1813450  80.4927597
  55.6522141   5.6717005  73.2019348  56.4830132   5.9440837  72.8123016
  55.8726845   5.4525614  74.1072540  60.5531044  17.7940121  47.2971764
  60.6764984  18.5390244  46.7089920  60.8845482  18.0983772  48.1420059
  78.0534515  10.5516090  25.3770428  78.2280807  11.3122149  24.8227730
  77.7355499   9.8819132  24.7715092  61.6869240   4.5304713  40.4090424
  61.6921883   3.6331894  40.0757446  61.7777252   4.4343596  41.3570671
  55.1447945   4.9445434  25.8000641  54.4015694   4.3880033  25.5674438
  54.9543571   5.7849722  25.3833561   4.0318003  54.5949211  62.2038727
   3.5183055  54.8987045  61.4553604   3.7658229  53.6831093  62.3225708
  46.9504166  38.1376953  61.9635544  47.6503830  38.0288467  61.3197937
  47.3986969  38.4274406  62.7581100  58.6734085  69.0335617  43.3773956
  57.8797874  68.5405807  43.5856400  59.1619644  69.0596466  44.2001152
  67.6044388  40.8139801  33.7393837  68.0043182  40.8029060  32.8697853
  67.6598206  39.9069138  34.0400429  81.9837341  70.9994888  37.5148315
  82.2585449  71.2183380  36.6244278  81.1784439  71.4998322  37.6467476
  27.7578144  65.4054642  62.6236572  27.3445988  64.5438004  62.6785698
  27.1855392  65.9090729  62.0447693  63.8637962   1.9344527  75.1510468
  64.4776306   2.0331874  75.8788452  64.1305084   1.1217676  74.7213440
  64.9141159  68.5421906  75.0216141  64.8631134  67.6161118  74.7849579
  64.4682083  68.5983353  75.8667450  60.7279625  67.5188599  17.9448433
  61.4327774  68.1290512  18.1619434  60.0445557  68.0688095  17.5617771
  55.2530136  17.7405605   7.8122382  55.1709900  16.8009281   7.9753118
  55.8103523  17.8012505   7.0364017  66.0293274  23.8540230  46.9670258
  66.6866074  24.3352356  47.4696655  66.5224838  23.1585999  46.5318069
  75.8953934   6.2665639  34.9340401  75.5805130   6.4886527  34.0578232
  76.4276428   5.4814520  34.8054237  82.1328659  28.7522392  24.9198570
  82.3859711  29.4526081  24.3184814  82.8774185  28.6671581  25.5153656
  30.1733856  52.2683868   3.4098823  29.5204792  52.9643784   3.4843497
  30.0249462  51.8925781   2.5421464  13.0377007  44.4222603  46.5933342
  12.3909740  44.5250854  47.2914734  13.7461548  45.0195580  46.8332520
   5.0277948  69.4241104  88.3799362   4.3265076  69.9425735  88.7744293
   4.8955159  68.5408936  88.7244034  56.5453644   2.2218964  50.3289032
  56.8187714   3.1260793  50.4836082  55.5992279   2.2773774  50.1948090
  13.3053236  13.7398939  21.9738579  14.2217712  13.7120209  21.6989422
  12.8236265  13.3565454  21.2408886   2.0245924  29.8300571  62.6403694
   2.1079803  29.3208618  63.4465981   1.2166220  29.5112000  62.2381935
  52.6343956  69.4183350  72.2580261  53.0418358  68.5689545  72.4276428
  53.2456131  69.8643723  71.6717682   1.7877247  39.1653404  59.1557274
   2.5803988  38.6287918  59.1514359   2.0061493  39.9197006  58.6084976
  20.4810333  59.5369415  53.8904419  21.1489563  60.0750694  53.4655571
  19.8980160  60.1678810  54.3126221  17.9854965  37.0969353  10.2424603
  18.7255955  37.6426277  10.5083656  18.1661205  36.8771896   9.3285007
  24.7881527   7.5999050  11.1287642  25.1919518   7.8483186  10.2972193
  23.8727798   7.4273553  10.9084158  13.5971584  38.6145477  26.9905281
  14.1547031  39.2072945  27.4945393  14.1421204  37.8418579  26.8415394
  12.6054888  52.5031052  58.2292366  12.7970943  51.8705521  57.5368500
  13.4641171  52.7480469  58.5741882  46.9682236   7.4544606  47.2730026
  47.5293732   7.4491577  46.4975548  46.1354446   7.8107877  46.9635811
  35.3587494  24.7666550  66.6988602  36.0673218  25.3900280  66.8587418
  35.7402763  23.9128456  66.9030151  77.0828552  64.2471085  79.8134079
  76.3356171  63.9685555  80.3428192  76.7882004  64.1413956  78.9088440
  63.0097580  64.1093903  12.0918627  62.1965256  63.7026176  12.3908958
  63.2802086  64.6680145  12.8205767  57.5511131  53.4807510  80.9640656
  57.4912758  52.8916626  81.7161407  58.4652748  53.7643738  80.9541168
   1.8096290  50.7856445  15.6191053   2.0877135  51.3218231  14.8765326
   2.2625518  49.9515343  15.4951859  28.2962685  37.4923592  60.7684975
  28.4466496  37.7461128  61.6791153  27.8087063  38.2254906  60.3929520
  72.3500748  59.7712021  15.2298498  73.3050537  59.7801437  15.2944155
  72.0668793  60.5124512  15.7651806  57.5711174  59.3246841  85.8630447
  58.0510178  58.8476982  86.5401077  57.5518799  58.7260857  85.1163635
   2.4770265  14.0434065  82.3242035   2.4992776  13.1358700  82.0206985
   2.1517048  13.9875698  83.2226944  46.8756294  33.4715881  13.3303471
  46.1585655  34.0378532  13.6156464  46.8176041  33.4746208  12.3749123
  21.9089069  27.1235714  26.3801651  21.4584980  26.3634434  26.7483597
  21.7279167  27.8317738  26.9981651  33.6322823  29.3256340  77.0960236
  33.6462479  28.4192772  77.4035187  33.7730637  29.2603016  76.1514893
  86.5337906  55.4384499  88.5689926  87.1939011  55.0904350  87.9695129
  86.1553879  56.1835327  88.1022034  12.2526398  33.8454933  77.3241653
  12.4218645  33.4509392  76.4686432  11.6577997  33.2330322  77.7569351
  67.6328278  23.7176533  42.6628761  68.3927155  23.1358452  42.6454582
  67.0597076  23.3838329  41.9727058  49.4372978  21.7601147  44.0531845
  48.9067993  22.5418644  43.8993187  50.3136673  22.0027237  43.7542648
  60.8898773  36.5260582  17.9124794  61.3736267  35.7039413  17.8328533
  60.2943344  36.5270767  17.1631069  25.0388908  11.5985193  78.3916245
  24.7327461  12.2946653  77.8103409  24.6711979  11.8215446  79.2467804
  50.2614479  40.6641960  42.2113724  49.4181404  40.2614174  42.0043983
  50.7862625  39.9493942  42.5717354  48.2407570  11.3012047  62.8243370
  49.0861282  11.4907990  62.4173622  48.3724098  10.4652882  63.2717133
  81.8847427  64.6252060  75.5599289  81.1742935  65.0468369  76.0433807
  82.6166229  65.2385330  75.6263504  85.4591446   2.6398153  38.6609192
  84.7761536   2.0968590  39.0545578  85.7488251   2.1429465  37.8957825
  54.7806511   6.1387854  32.3034401  55.5908203   6.5478854  32.6075630
  54.1303635   6.3742533  32.9651947  67.4155960  49.9831161   3.5994837
  67.8060532  50.7307053   4.0521269  66.7505341  49.6567879   4.2056470
  83.2941589   9.8067074  12.8927402  82.5602570  10.2009020  12.4213257
  82.8879623   9.1630888  13.4732485   2.8412421  28.5980339  13.7269869
   3.4534719  27.8783417  13.8801260   2.4575102  28.4079933  12.8709106
   5.1299138  38.9934769  83.2486343   4.5780668  38.2727852  82.9448318
   5.0163713  39.6769447  82.5881729  72.3782043  45.8773727  38.8592300
  72.3079758  45.2347183  38.1533318  72.1185532  45.3981705  39.6461105
  40.0282211  50.6617279  62.2402534  40.5135612  51.4800072  62.1349182
  39.6859283  50.4721222  61.3666878  83.1058121  33.9239388  43.3557892
  82.6804962  34.7734718  43.2390289  82.5911942  33.4899521  44.0362663
  62.2963295  41.5535049   8.0002403  62.6623802  41.8316231   7.1606655
  61.3487511  41.6195717   7.8820510  41.9416771  41.0834389  11.8988008
  41.3056107  41.7308235  11.5945921  42.7705002  41.5608711  11.9354744
  25.0948792  15.9467945   4.1433897  25.6591148  15.1763144   4.0783458
  24.5924473  15.9451895   3.3286564  25.2858124  27.8361912  50.4885292
  25.1601791  27.2642002  51.2456779  24.6011829  27.5731773  49.8734398
  84.8190460  19.0879536  84.6268387  84.2368164  18.4085789  84.2867050
  85.0951233  19.5769157  83.8516388  30.2822876  70.0763779  41.2528381
  31.0589085  69.7111282  40.8289528  29.6933994  69.3292160  41.3585854
  32.1813736  39.5124512   6.9829631  32.2755356  40.4119453   7.2964478
  31.6511059  39.0798416   7.6522131  57.6050186  39.2325478  34.2805367
  58.3457031  39.8349915  34.3489304  57.6669960  38.6867943  35.0644646
  45.1707191  50.2032776   5.4937873  44.4633293  49.9476051   4.9017906
  45.8802376  49.5915031   5.2974520  58.8990021  40.4481735  10.9039116
  58.0786552  40.8411980  10.6059256  59.4489784  41.1941795  11.1431456
  39.6472359  50.4607697  77.5619736  40.4770699  49.9857483  77.5177536
  39.7039299  50.9670067  78.3723755   0.2097666   0.3357657  50.8148041
   0.4027940  -0.5825596  50.6259880   0.3356485   0.7838507  49.9783783
  86.2097244  13.3648529  54.2983665  86.6366348  14.2142706  54.4100227
  85.3813553  13.4492121  54.7705193  56.7309837  62.0768661  21.5921135
  56.5854416  62.7994728  20.9814682  55.8604088  61.7059288  21.7360992
  14.0076323  18.4653759   2.6662271  13.3547249  17.8766785   2.2875750
  14.0028429  19.2302628   2.0907650  76.1056213  19.5256367  36.8153954
  75.4337769  20.1200142  36.4813652  75.6373825  18.7095222  36.9913139
  82.3711472  71.4305649  34.7269287  81.7809830  71.2051620  34.0078125
  82.5421143  72.3653870  34.6124115   4.6532507  44.7667618  13.0410566
   4.9673314  44.0183640  13.5484886   4.1604466  44.3767548  12.3190670
  76.4083481  55.6459541  77.8408661  76.6830902  56.5625954  77.8181000
  77.2012939  55.1640091  78.0758209  26.3191967  15.2320910  57.3337860
  26.0951118  16.1327591  57.5679131  25.9504700  14.7021093  58.0404625
  20.0447311  54.4787216  18.5236092  20.8213730  53.9399681  18.6746063
  19.3607140  54.0659943  19.0508747  33.9236145  35.4728088  63.7410545
  33.1806374  36.0218544  63.9915771  33.7482147  35.2330856  62.8311081
  32.6733131  59.7861023  18.0160961  32.4832878  60.6686325  18.3343201
  32.2116661  59.7285652  17.1795540  56.4384537  29.6980419  75.0671082
  57.2503700  29.2079372  74.9374161  56.3176003  30.1818275  74.2500534
  56.3809891  56.5275078   8.6478901  55.8089981  56.8647041   7.9584274
  55.8252563  55.9313698   9.1499004  29.7249756  37.8506851  79.9451599
  30.2582684  37.9537773  79.1569977  28.9606171  37.3535805  79.6538315
  74.9976959  30.2531605  60.0247459  75.9379578  30.2475891  60.2039146
  74.6739120  29.4433365  60.4191856  81.4727783   9.9709930  79.3555832
  80.9134979   9.3746948  78.8577271  81.1575546   9.8989315  80.2565079
   1.9872267  61.4163361  79.3720703   2.8873782  61.5364456  79.6746140
   2.0613437  60.8114815  78.6339035  30.4977207  68.7098694  14.3755054
  29.6993122  68.2273102  14.5897694  30.9654160  68.1400528  13.7649345
  42.1792259  22.5854530  87.6611481  42.6190109  22.7824020  88.4882126
  42.7603607  21.9637413  87.2229843  33.3574715  28.4209499  12.6882887
  34.2769051  28.5939274  12.4859076  32.9032097  29.2283287  12.4474249
  15.8207541  18.5545349  75.7115860  16.6791058  18.5289154  76.1344452
  16.0044575  18.3906364  74.7865906  20.1608524  27.4440918  29.5914936
  19.3579407  27.7478352  30.0149364  20.4451923  28.1856937  29.0572567
  28.9502144  40.2222633  70.7200546  29.1727600  40.6809540  69.9099274
  29.7957211  39.9860840  71.1015854  50.1754570  53.4346352  84.0848541
  50.1407471  53.1070557  84.9835892  50.2943230  54.3797646  84.1788483
  55.4609566   8.1214647  43.5222168  56.2502747   8.4470797  43.9548683
  54.9596481   8.9097595  43.3136253  80.1949921  47.4711761  53.3280373
  79.7262878  46.9851837  54.0065346  79.5900879  47.4909821  52.5864639
  26.0210762  31.7817898   3.8341870  25.6765175  31.7743797   4.7271910
  26.1724873  30.8593559   3.6282232  26.1877422  34.8069916   3.3955822
  26.2218380  33.8508987   3.3647022  26.1523209  35.0153656   4.3291550
   9.7620792  65.8650589  61.9482574   8.8371887  65.9903717  61.7358742
  10.1335020  65.4539719  61.1676903  29.3820362  39.3468933  45.1399498
  28.9271717  40.1883163  45.1034050  30.3002300  39.5769691  45.2821465
  83.1419830  58.7669525  61.0558205  83.3771210  59.6935577  61.0073929
  83.2569122  58.5385818  61.9782448   3.7519698  41.6410027  85.5679703
   3.2014394  41.5468941  84.7906036   4.5084195  42.1439934  85.2662735
  53.8953285  52.5030136  36.0859871  53.3419151  51.8725967  36.5470047
  54.3556061  52.9717407  36.7821693  55.0891190  19.8339920  18.4806366
  54.2356262  19.9098473  18.9072800  55.7216568  19.9116516  19.1948471
  73.0573578  33.9808655  49.7448692  73.2547073  33.8434753  50.6713715
  72.1070557  34.0919685  49.7163239   2.1701672  13.4046440  29.1367874
   1.8096058  14.2633476  29.3578186   2.6900239  13.1589642  29.9020462
   9.3052502  19.2226353  20.2840633   8.3726292  19.4349499  20.3211193
   9.7117891  19.8188400  20.9129486  70.3411484  43.4134598  49.9436417
  70.9077911  43.5868759  50.6953583  69.4891281  43.7668533  50.1993866
  36.4313812  54.8676376   7.3084211  36.2322121  54.6247635   8.2126207
  35.5808601  55.0818291   6.9250574  18.0626431  54.8639679  16.7779617
  18.7387676  54.7440338  17.4448223  17.2513618  54.5937653  17.2081280
  71.2694016  40.5074730  11.4927454  72.0470581  41.0502510  11.3628149
  70.5344696  41.1051674  11.3553715  78.5377960  27.9791870  35.2813797
  77.8017654  28.2838917  35.8120842  79.0142822  28.7770805  35.0521088
   6.8815050  45.6170578  54.8991241   6.9542150  45.6078606  55.8535156
   6.5279756  46.4826469  54.6941833  66.4333420  71.5635452  64.8738251
  66.2127380  70.7037048  64.5157089  67.3422318  71.7068787  64.6099777
  52.1375656  45.5385361  16.8700657  52.7548141  45.3794518  16.1559734
  51.5118332  44.8165855  16.8110828  71.2988663  24.4119244   2.5907223
  70.6183014  23.8411331   2.2339864  70.9695129  24.6678123   3.4522793
  52.1951180   9.1041460  89.1832733  51.7666435   9.7418261  88.6123047
  51.8545456   8.2574043  88.8947067  42.3174171  39.1487617  76.8276291
  42.3739128  38.8073502  77.7200851  41.4183044  38.9632492  76.5566864
  76.8304443  66.1928253  60.1217422  77.0944138  66.0244751  61.0262947
  76.8130569  65.3277664  59.7123604  82.0743027  63.7742233  57.4961014
  81.5941010  63.2000656  58.0927467  82.9933701  63.6521835  57.7341118
   2.9972000  71.9783401  50.1459808   2.3090756  71.4911880  50.5991898
   3.6989412  71.3398056  50.0192375  14.0624399  23.7343292  64.5299225
  14.9385796  23.8513412  64.8972321  14.0066662  24.3861332  63.8311577
   9.6969872  18.9270744  54.0985985   9.9789305  18.2669525  53.4653702
   8.9289846  18.5417347  54.5204010  81.9072342  70.1386337   0.3947722
  82.7197113  70.5252838   0.7213032  81.3263931  70.1238251   1.1554523
  68.1418381  14.7410116  26.7075233  68.3424911  14.0058231  26.1283264
  68.1185913  15.5027714  26.1283760   6.0260448  61.7615509  83.7282715
   6.8601871  62.0418968  83.3516541   6.1988220  61.6909256  84.6670990
  73.3807678  46.5647659  62.8625565  73.7520905  45.8690071  62.3200874
  73.0431900  47.2036095  62.2347412   4.5553851  66.7611542  71.5503616
   5.5061202  66.6615906  71.5011444   4.2849278  66.9275436  70.6473694
  30.2257729  63.9555130  56.7522964  31.1240959  64.2840118  56.7157326
  30.1867485  63.4550400  57.5673027  68.5036545   5.4273596  39.2741661
  67.9738541   5.3396988  38.4817963  67.8674164   5.5871792  39.9712257
  60.0831451  42.4004784  45.0418167  60.2011299  41.8550987  44.2640800
  59.2751083  42.8853912  44.8739815   7.9456143  54.6991081  47.6567345
   8.4243097  54.9388390  48.4502144   7.1045198  54.3707008  47.9744453
  74.3940735   4.9562702  56.1352501  74.2946472   4.4356828  56.9323273
  73.5607224   5.4185658  56.0456047  82.4718246  35.2981682  11.9678907
  83.2478256  35.6752815  11.5533485  82.2067795  35.9495049  12.6173096
  66.1392899  47.5502548  88.4965439  65.8034973  46.7202148  88.8349380
  66.9019775  47.7405891  89.0427322   8.3857346  66.9074707  75.6423569
   8.6576338  67.8164368  75.5155334   7.4540906  66.9635696  75.8547821
  10.3368683  44.0627899  43.2649155  10.1403055  44.9699287  43.4987793
   9.6050100  43.5594940  43.6217194  83.4702759  32.9114494  52.2323036
  84.3454056  32.7962303  51.8620148  82.9315567  33.1897583  51.4916534
  38.1413765  35.2470665  68.8180008  38.7112541  35.9718895  68.5608978
  37.3196983  35.6670265  69.0723801  52.6893921  11.0424786  15.7026806
  52.8518219  11.6364613  16.4355068  53.2749863  11.3500118  15.0107727
   8.2302837  33.2362099  85.8443069   7.7689695  33.1169472  85.0141296
   7.5346446  33.3738861  86.4872360  85.0889587  56.5002136   5.6710682
  84.3316727  55.9763451   5.4097161  85.7141113  56.3916931   4.9543796
  58.9390221  45.7415123  21.5880775  58.9929543  45.1078339  22.3034630
  59.8487320  45.9810410  21.4111958  78.8528366  67.4934998  64.8143768
  79.1742172  68.3094330  64.4307175  77.9154816  67.4905548  64.6204834
  17.3896618  56.6294212  50.6140671  17.3845959  57.5695534  50.7939491
  17.2216549  56.2220688  51.4638138  77.9373627  38.1555710  48.0807648
  78.6542358  37.5811615  47.8117332  77.2189102  37.9358368  47.4876671
  81.7715988  18.1047688   2.1198890  81.8928452  17.1557140   2.1486580
  81.1766739  18.2480183   1.3838367   8.3165026  70.5562515  81.7410278
   7.9444613  71.4381027  81.7286301   9.2629128  70.6950531  81.7053299
  66.0346298  29.4099445  66.7167435  66.8808517  29.1454716  67.0775681
  65.3900299  29.0191517  67.3066635  63.4653320  48.7450829  85.6003342
  64.3395767  48.8136826  85.9840317  63.5643845  49.0944290  84.7146835
  59.1785851  60.2796707  69.2613068  58.5933304  60.3315430  70.0169678
  59.4017525  61.1902542  69.0682526  27.7721996   7.1695595  85.4485016
  27.0608730   6.7198210  84.9924545  28.5419769   6.6234145  85.2891312
  49.3299332  16.6462955  72.8058777  49.2722054  16.5626907  71.8540802
  49.7824478  17.4780140  72.9462433  13.0268745  23.6939545  60.6239166
  12.2116737  24.1910477  60.6915741  12.8313589  22.8552475  61.0417404
  41.4848099  59.9110413  72.7396545  42.2457581  59.3370399  72.8274765
  41.4213791  60.3556938  73.5849304   7.0945206  66.8235703  17.0126076
   6.7921729  67.6826935  16.7181129   7.4264131  66.9767685  17.8972607
  37.5023651  71.1920395  61.0300522  38.0433807  71.4716263  60.2915649
  37.2267494  70.3040924  60.8024101  62.3629913  69.5001526  66.2337036
  61.5473824  69.0409546  66.0333252  62.7605286  68.9865112  66.9368210
  28.4715176  33.4405212   0.9594797  27.7199001  33.4518089   1.5520797
  28.5820675  34.3539162   0.6954275  33.3423004  66.7934494  68.6471634
  32.7951241  66.9675064  67.8813019  34.1269875  66.3766098  68.2911530
   0.1403441  30.1800938  76.4119797   0.3517607  29.2640209  76.5918198
  -0.3761282  30.1530399  75.6065292  53.1292877  44.5542603  14.4701586
  53.4045410  44.6347466  13.5569286  52.6078491  43.7518921  14.4933224
   0.6073172   2.0043948  59.7889099   0.9949825   1.1678823  59.5316277
  -0.0875236   2.1536651  59.1477051  24.5996876  39.5116768  68.9105606
  25.2309742  39.2284737  68.2491150  23.8958416  38.8647499  68.8623962
   4.0964847  31.8366699  68.6883850   4.2057610  31.5618458  69.5987473
   4.7162013  31.2957783  68.1988754  67.6330032  23.7920933  72.5459137
  66.8961487  23.8746853  73.1512680  68.4080124  23.8171730  73.1071320
  31.1324062  10.0392981   8.3649855  30.5983963  10.5305805   8.9892502
  31.0643997  10.5353498   7.5491791  83.4796982  64.2161026  25.6948128
  83.1794357  64.7976990  26.3932571  83.3401947  63.3345413  26.0406666
  27.6517334  57.0234375   6.0865588  26.7112751  56.8554459   6.1461329
  27.8797359  57.4113388   6.9314127  76.6701736  67.6290436  41.4069710
  76.0539551  68.3395462  41.2289238  77.1199875  67.4877472  40.5739479
  24.0558434  44.1407204  10.6565647  25.0056667  44.1757011  10.7699051
  23.8688984  44.8066978   9.9949303   3.4499030  32.2878876  19.6927452
   4.3285427  32.1119766  19.3561745   2.8997171  32.3386002  18.9111080
  58.3746262  48.4010353  75.7420654  59.2018738  48.0358353  76.0559464
  58.5530128  48.6544991  74.8364334  10.2808809  50.2389679  69.4960022
  10.8516550  50.1591644  68.7317505   9.4359341  49.9000320  69.2003326
  42.6822968  38.6260910  32.5993271  42.9358749  39.4955177  32.9092102
  43.2037888  38.4923935  31.8078728  10.5820141   7.1606040  60.6383591
  10.5876627   7.5513563  59.7645683   9.7192850   6.7526855  60.7127380
  52.4646378   0.6368424  13.2067108  53.1565819   1.2853814  13.0769415
  52.9187355  -0.2055075  13.1849384  22.6759586  70.5283966  81.9731216
  22.3173141  70.4206085  81.0922165  23.1864853  71.3367538  81.9266129
   5.0789309  12.1086025  83.9915924   4.9222412  12.1231890  83.0474167
   4.2404165  11.8433905  84.3694611  48.4976082  66.9987946  78.7511902
  47.8892441  67.7090759  78.9552078  48.4222984  66.3984604  79.4929199
  26.5281696   4.2024903  33.0805702  25.9250336   4.9436102  33.0239906
  26.9862881   4.2018127  32.2401199  45.3644066   6.8327003  81.1369553
  45.8111420   6.0179453  80.9070969  46.0500259   7.3833561  81.5150223
  65.4067078  58.2459106   3.9804368  64.5202408  57.9779778   3.7383354
  65.6226349  57.7024384   4.7382255  12.9652185   6.7326984  26.5820026
  12.5416603   6.6521149  27.4365997  12.7381668   7.6136265  26.2842674
  33.3712463   2.7601550   8.9668427  33.3665352   3.1604898   8.0973940
  34.1941986   2.2725351   9.0015450  36.1315765  48.6350403  53.9201965
  36.9727516  48.2577515  54.1777000  35.9081650  48.1875687  53.1040535
  66.7055283  35.5977211  29.9290695  65.8641739  35.6143074  29.4729099
  66.5477524  36.0808029  30.7402248  74.4703522  40.3269386  73.4752045
  73.8525772  40.1876106  74.1929626  73.9415741  40.2343788  72.6827087
  43.3454285  12.3272743   8.4139175  43.4221687  12.4098253   9.3644590
  42.8049431  11.5480204   8.2840376  22.8212948   9.7890873  68.0246964
  23.0486851  10.7148008  67.9376373  23.1159477   9.5517368  68.9039459
  77.6895523   2.4045932  21.8502560  78.0981827   1.5489919  21.7191086
  77.4351196   2.6857486  20.9713669  30.2393188  22.6058922  71.9735336
  30.4021511  22.6058331  71.0302811  30.7008743  21.8319340  72.2963104
  52.5573349   4.4928122   1.5423917  53.1924286   4.3898134   2.2511072
  53.0723038   4.3885751   0.7422822  71.6373901   6.9352889  35.0079193
  70.9351120   7.0659847  34.3707733  72.1437912   6.2017279  34.6591034
  80.3728027  56.7390862  87.4450760  80.0449600  57.3373108  86.7735977
  80.1166611  57.1450424  88.2732239  83.5002365  40.6096039  20.8589134
  83.4908066  41.3984642  21.4009857  84.0861282  40.8246880  20.1331711
  46.0419579  13.1244535  48.9336662  46.7346230  12.9666204  49.5751762
  45.3579903  13.5779514  49.4263725  30.6895409  18.1518879   2.4135332
  30.1452618  17.5573616   1.8972683  30.3005142  19.0151958   2.2735667
  56.7829094  12.4067888  42.7312508  56.6309242  13.2671680  43.1222496
  56.0645409  11.8650112  43.0578270  73.9302750  51.3896065  29.1464863
  73.1297150  50.9908218  29.4875202  73.7184677  51.6150475  28.2406464
  30.6153393  30.0126247   8.1459141  31.5676918  30.1055527   8.1707821
  30.4159412  29.3996716   8.8535585   5.3716707   2.9820914  87.9607620
   5.0464497   3.8375592  87.6803360   5.8727889   2.6591241  87.2118912
  38.8383789  71.4351807  75.9359894  38.9491768  70.5000305  75.7643967
  39.2968025  71.5828705  76.7631989  76.0897675  42.0302658  17.4829273
  76.8175964  42.3933067  17.9876099  75.5466309  42.7882156  17.2667179
  69.6457825  50.2749138  66.5855026  70.3965607  49.9305420  66.1017990
  68.9070740  49.7411156  66.2929306   4.4189987  23.5323067  65.5046310
   5.1738577  23.2684517  64.9785156   4.4497833  24.4890118  65.5047607
  79.8304520  17.3338947  10.6295843  79.9995651  16.3941898  10.5618734
  78.8805237  17.3998795  10.7271566  76.8350449  41.7852097  31.6372356
  75.9086304  41.9926262  31.5149441  76.8354340  41.0229836  32.2162361
  46.2380981  52.0564842  55.3785553  46.8612671  52.6464882  55.8025627
  45.6460190  52.6369591  54.9003067  83.3283691  48.1603546  31.3721161
  83.5082321  48.4362526  30.4733601  84.0296402  47.5421677  31.5777721
  78.8257904   3.6551828  61.4798164  79.1859436   3.7239840  62.3640060
  78.2933426   4.4438300  61.3760414   7.2587180   8.4365435  82.5078583
   8.0500059   8.2296305  82.0105820   6.5408945   8.2628231  81.8989410
  37.8778343   7.4329028  82.6839676  37.2041245   7.1372819  82.0716324
  38.1431618   8.2907162  82.3523178  67.2071381  16.7440262   5.9169126
  66.7127457  16.6591930   6.7321491  67.1401749  17.6719246   5.6916370
  56.6290932  70.5057297   1.8961594  56.1118698  70.4033585   1.0972658
  56.2921333  71.3061295   2.2987258  72.9884872  21.6150665  85.2762756
  73.2851105  21.1707096  86.0705032  73.2308960  21.0218945  84.5652161
  25.1774178  12.1998901  81.1998672  25.8596878  11.6882734  81.6345901
  24.3683853  11.7202387  81.3777237  53.4971848  10.8551130  23.4728107
  54.2636719  10.3342123  23.7123661  52.8736420  10.7044411  24.1832523
  22.3576336  33.8240700   5.8895745  22.3564301  32.8796997   5.7333889
  22.2804413  34.2111549   5.0175438  49.3610458   0.6953297  85.9165802
  48.7754860  -0.0618564  85.9121704  50.2357597   0.3210494  86.0215759
  42.9160042  10.0265312  17.4396629  43.5278778   9.3232565  17.6570225
  43.2287483  10.7795734  17.9410095  34.5846519  51.4898949   4.9719114
  35.2095680  51.7368774   4.2902126  34.9904823  50.7412415   5.4090047
  76.5730057   2.2827373  63.6077385  77.2605820   2.0910268  64.2454758
  76.3157501   3.1851120  63.7968712  40.3280716  54.1263809   8.1649179
  40.5378838  53.7344856   9.0126371  40.0615997  53.3869553   7.6185927
  17.0931511   0.4464435  30.8909988  17.1681919   1.2843661  31.3476028
  16.1569004   0.3523289  30.7154789  62.9002953  42.0435638  29.9609890
  63.6346245  42.3679123  30.4823227  63.0085297  42.4633675  29.1075935
  58.2659187  35.8728523   8.5027399  58.1980400  36.7275085   8.9283991
  58.5367012  35.2778664   9.2019539  27.6580524  59.1971931  72.3843613
  27.4733753  59.8864555  73.0223618  28.5942020  59.2824860  72.2038498
   8.0643997  66.7563782  51.9716721   8.5846539  66.1883163  51.4034576
   8.6402082  66.9464722  52.7123070  61.6094246  55.1978073  18.4667950
  61.3470612  55.5002327  19.3362408  62.5565643  55.3339043  18.4415798
  67.1814728  13.1680660  44.4018860  67.6862335  13.9653597  44.2413483
  66.7900772  13.3021116  45.2650642  86.7203598   5.8319459  38.7244606
  86.1644974   5.6398835  37.9692383  86.5497818   5.1154251  39.3357964
  50.4188347  60.4062767  22.7349644  51.1467667  59.7862816  22.7791576
  50.1247215  60.4953537  23.6414909  12.5172844  44.6509781  64.7740326
  12.3154345  43.9075699  64.2058487  13.4272375  44.5117683  65.0364075
  20.6339111   1.0447960  12.9414835  21.1466923   1.5307504  13.5873432
  21.1120377   1.1599226  12.1202812  80.1539307   1.2259576  71.3707886
  80.8721695   1.0726134  71.9846649  80.0373840   0.3873771  70.9242096
   5.7662787   2.0192337   1.2672560   5.8167872   2.1934886   0.3274072
   6.5331697   2.4592550   1.6339861  57.0840263  51.5626640  39.2603989
  57.8156128  51.6584663  38.6506119  57.4975433  51.4833412  40.1200180
  12.8566608  30.1863880  53.7538261  12.3217020  29.7133636  54.3912430
  12.5317335  29.8919640  52.9029617  54.6721153  65.0170898  62.8827400
  54.2262993  65.8501663  62.7295341  54.0730743  64.3571320  62.5336952
  71.7229919  24.3257599  87.4714584  72.0177002  24.6840458  86.6341934
  72.4050217  23.7010288  87.7180023  50.9687576  62.4197693  59.8638878
  51.2946091  61.5510216  59.6286697  50.2371902  62.2486801  60.4569893
  22.1150131  65.6109924  82.3410492  22.0714436  65.8697433  81.4205170
  21.8207855  66.3848038  82.8215408  77.6816788  42.2973404  19.8633289
  77.6975403  41.3403015  19.8708706  77.4939499  42.5409241  20.7697811
  41.6062508  16.5588951   8.7183475  40.9325867  16.9988937   8.1998777
  42.3345146  16.4354935   8.1095505  81.1220398  62.3151321  63.1082535
  80.8865891  62.5126305  64.0147781  82.0628128  62.1410027  63.1376381
  33.6873169  55.2148705  41.3256454  33.2603073  55.7351074  40.6450233
  33.8894157  55.8449516  42.0172997  42.6337738  70.5623703  39.6273041
  41.8403778  70.3302689  40.1098824  42.5544662  70.0937347  38.7964478
  72.9699783  24.6623974   7.9399734  72.8847961  25.4956703   8.4032602
  73.7605896  24.2650833   8.3050890  47.1337242  67.8754578  44.4984398
  47.5905647  67.4276505  43.7864037  47.8320999  68.2731400  45.0183907
  72.6986847  59.1576881  76.6675262  72.5075531  59.0759239  75.7331696
  72.8635178  58.2605438  76.9576797   3.0956364  55.0865555  18.8729534
   3.3632405  54.3594627  18.3108540   3.9183009  55.4845695  19.1576271
  14.9979973  13.4597845  15.8394747  14.9186411  14.3907852  15.6316957
  14.5063848  13.3533812  16.6538620  50.1852989  40.7921257  12.2795496
  49.8943977  41.4788399  11.6795197  49.9290428  39.9753990  11.8511572
  65.6029205   9.3262072  10.6509914  65.6343155   8.3747187  10.7505684
  65.4246979   9.4639149   9.7206669  81.6985703  67.2844696  13.7895966
  81.4090271  67.0748520  12.9016476  80.9200211  67.1571808  14.3317118
  17.1188107  52.1961861   8.8358603  17.0514336  51.5071564   9.4968653
  18.0275478  52.4919891   8.8899946  10.1879082  44.0095329  73.3738327
  10.4883194  44.8913498  73.5937958  10.5531979  43.4534454  74.0619965
  84.4180069  44.7326622  53.8837013  83.6771088  44.8602829  54.4761696
  85.1901703  44.8473244  54.4376526  54.9347038  29.7986908  66.3013916
  55.1996956  28.9073963  66.5285568  54.0156860  29.8496475  66.5641403
  50.4126244  34.7476883  61.2173042  50.3454781  33.9116783  61.6786156
  50.9832039  34.5642624  60.4709625  60.1135025  55.1004448  84.1374588
  60.4975815  54.2401314  84.3065033  60.5049591  55.6715584  84.7983856
  25.3559322   5.2683759  79.1513290  24.5046749   5.6919775  79.0410919
  25.2971268   4.8298793  80.0001526  84.0429382  15.8464403  35.3265839
  84.0360107  15.8498764  34.3694153  84.9514084  15.6541491  35.5588341
   6.7720103  15.9035492  72.0276031   7.2634563  15.7158766  71.2279205
   6.9944310  16.8104286  72.2381516  82.3753815  50.7867088  47.1663857
  83.1870193  50.2947197  47.2905273  81.7680511  50.4117126  47.8041687
  77.8629303  46.8814354  51.2707100  78.1746674  46.2149429  50.6584702
  76.9118652  46.7734718  51.2784424  62.1253777  30.0838852   4.0422111
  62.7265205  30.4864616   4.6689429  61.4936676  30.7737751   3.8391778
  20.9860516  55.2951164  74.5148392  20.5750523  56.0586128  74.9202881
  20.2756767  54.8654251  74.0384369  75.7221680  21.8329525   6.6524291
  75.5554810  22.0542984   7.5686460  75.7574463  22.6781120   6.2044430
  18.2252445  40.9805908   1.5134791  18.8115540  40.7296677   0.7996788
  17.8678112  40.1518745   1.8323888  38.1636391   0.3764037   5.8510928
  37.5795784   0.1662774   5.1224298  38.1852455   1.3331200   5.8725157
  80.6008606  70.3569336  25.6783009  80.4549103  69.5087967  26.0973301
  80.0717850  70.9702759  26.1883316  17.1974964  55.7474899  62.1169815
  16.6490688  56.2078743  61.4817619  17.3040047  54.8699150  61.7499046
  37.3610077   5.2226491  64.7178650  36.4614029   5.4941654  64.5355988
  37.6407051   4.7706180  63.9218330  60.6231232  12.2520170  24.5549278
  60.9793625  11.4061928  24.2830639  61.1954536  12.5348797  25.2681313
  59.0482063  48.8105125  66.3948746  59.5096397  49.3786354  67.0117569
  58.7113266  48.0950241  66.9341507  11.2890987  45.2239189  35.6637421
  11.9114943  45.9453583  35.7552872  11.7554302  44.4605904  36.0044746
  34.5213013  54.6363297  45.2134399  33.8541641  54.1332359  45.6803970
  34.0279655  55.3042068  44.7372131  65.0048065  15.3209639  20.6050186
  65.5794601  15.8705645  21.1378822  65.5633926  14.5989609  20.3170586
  74.3923492  59.6017075   5.4094090  74.1133881  60.4956665   5.6075277
  75.3404999  59.6121140   5.5402946  19.6600075   7.4221811  88.7589798
  18.8411198   7.3956876  88.2640533  19.4305592   7.8605561  89.5783768
  76.6108246  -0.1106081  42.3382835  76.3068771   0.4735460  43.0329895
  77.5542526  -0.1838040  42.4825821  82.4055481  65.4412155   2.2716064
  82.1306152  65.3563538   1.3586781  81.6300201  65.7707977   2.7256558
  18.5229874  42.6025162  44.3963432  18.7268219  41.8675652  43.8179588
  19.1657696  43.2735405  44.1665802  73.6752930   5.0284066  25.7112255
  73.0732498   5.2291040  26.4278107  74.4773636   5.5015731  25.9326363
  80.8970261  27.6613064  50.6007538  81.8124847  27.4703407  50.3965759
  80.6263275  28.2847672  49.9267693  33.1323814  56.4313240  30.3118649
  34.0774040  56.4110985  30.4627190  32.8093491  55.6216316  30.7071857
  42.1777611   6.9853086   3.9188447  43.1075554   7.2098756   3.8829942
  42.1424370   6.0675902   3.6490726  11.1345453  48.3915749  25.9362183
  11.6233406  47.6085625  25.6828365  10.8100214  48.1972466  26.8155098
   4.4077697  31.2803612  50.8774605   4.2366829  30.5185223  50.3237801
   5.1777172  31.0353870  51.3906860  51.1843948  43.6654549   1.8740298
  51.3427620  42.8710938   1.3639890  50.7941284  44.2771263   1.2497029
  59.0414047  51.1483383  62.8778419  59.4312286  51.6885872  62.1905289
  59.5424538  50.3330765  62.8547630  21.9459171  55.8345871  77.9717941
  21.2689056  56.1371498  77.3665314  22.7589798  55.8922729  77.4699707
   4.1489425  43.2455559  57.3390121   4.9005690  43.6994553  57.7201462
   4.5329914  42.5302391  56.8320007  73.5605164  61.2256126  54.3578148
  73.1960220  61.7692337  53.6593513  73.6566315  60.3594971  53.9617882
  77.8932190  53.3535843  47.2274513  78.7205048  53.2721329  47.7020035
  77.2217789  53.3177605  47.9087105  43.8273926  34.2481651  21.9394646
  43.2856750  34.2277870  21.1505661  44.4871712  33.5699883  21.7945385
  76.5963516  44.0808296  51.8773346  75.9447174  44.6754074  51.5057411
  76.0815353  43.3715553  52.2621994  38.2893295  61.7571373  34.5910034
  38.8169060  61.4832191  35.3412476  37.3855743  61.5961075  34.8621559
  50.4988136  36.0052490  35.3917084  49.9658890  36.7978745  35.3287048
  50.1660690  35.5539513  36.1674957  71.2279358  41.5089798  15.5708294
  71.3329086  41.8485413  16.4595985  72.0623398  41.6986580  15.1418562
  63.9393120  30.5902119   5.9604645  64.1428223  31.4507446   5.5939980
  63.8747520  30.7406864   6.9035559  53.8236847  34.1634254   1.0819813
  54.7524529  34.3028603   1.2668533  53.5716171  33.4389954   1.6546059
  43.4620514  50.2207184   3.1322854  43.8834000  50.8135719   2.5100131
  42.5488663  50.5067520   3.1548948  20.6485767  36.7924232  70.2804413
  19.8717365  36.4552269  69.8342896  20.3018074  37.3054047  71.0103912
   3.9288380  34.8649445  85.4686890   4.5403829  35.3578835  84.9216461
   3.2435198  34.5795135  84.8644562  79.8899155  67.8198776  69.4293823
  79.4135818  67.6667328  68.6133652  80.8047104  67.6438522  69.2093735
  39.1958351  51.2938156  14.0292730  39.5652199  50.5317955  13.5830536
  39.7778015  51.4400787  14.7750311  64.0574417   0.7429252  25.8870621
  63.4096909   0.5531709  26.5657711  64.6896286   0.0271876  25.9525185
  61.2336044   2.3229020  84.2997131  61.2299805   3.2590675  84.1001816
  60.7227287   2.2478125  85.1056900  45.4691010  29.2584572  77.8561249
  45.8101273  29.3726940  78.7431946  44.7132683  28.6808720  77.9626389
  43.0535278  39.9741631   2.7129972  42.9955330  39.9875984   3.6683443
  43.8132553  40.5204430   2.5114553   0.4960174  22.2447414  53.8306389
   0.0250193  22.9496288  54.2750778   0.3529193  22.4113064  52.8989677
  39.9321365  58.8520050   1.0883636  39.4700966  58.0435410   0.8666947
  39.2364807  59.4781914   1.2888162  84.2530289  15.3336477  53.3871384
  83.7239380  15.8910522  52.8165283  83.6157303  14.7828474  53.8417892
  51.3499031  70.4730148  28.8704052  50.5128555  70.4276276  28.4083195
  52.0087242  70.3804550  28.1822071   1.7430873  48.6810989  24.4128189
   0.8795488  49.0439453  24.2156544   2.3124018  49.4466095  24.4909344
  56.4648628  52.1216202  70.1001358  57.0329628  52.6610451  70.6501465
  55.8670311  52.7457542  69.6886826  74.2230301  54.6420631  63.8505745
  73.8340149  53.9495087  64.3846741  74.1140823  54.3391037  62.9491425
  19.1304474  41.2897987  23.5127335  19.1460686  41.2894173  24.4698067
  18.3162022  41.7393837  23.2866592  66.8346786   4.0415568   5.8445282
  66.2445450   3.9426634   5.0974064  66.4175873   3.5425966   6.5468845
  27.4613209  53.0771370  42.3677139  27.3346367  52.9943542  41.4225540
  26.6054440  52.8702965  42.7431107  53.6626892  46.7172432  40.9900169
  53.8012505  46.8635483  40.0542679  53.8167686  47.5723877  41.3915405
  43.0901794  46.7104225   6.9457979  42.8320732  45.7899704   6.8969870
  43.5038986  46.8882790   6.1011477  62.9200325  54.0063324  74.8802338
  62.6669350  54.6035004  74.1762695  63.5783157  54.4898148  75.3793716
   4.2993388  41.0697403  79.2972565   3.6795259  40.5597649  79.8187790
   3.9385653  41.9563484  79.2958679  28.1602764  58.8877220  89.0279694
  27.3459129  58.7843590  88.5356674  28.0747299  58.2802315  89.7627258
  82.3292542  27.0035229  53.7888107  81.5029602  26.7728882  53.3642120
  82.0776978  27.2719288  54.6725006  69.3786545  68.7163696   6.9626722
  68.7181396  69.3394012   7.2656040  69.8347549  68.4446716   7.7591558
  13.0665560  25.6858425  71.2510681  13.3896894  25.0298653  70.6334000
  13.7015848  25.6738548  71.9671860  34.3254509  42.2733459  29.2771149
  34.6997185  41.6466827  28.6578827  34.8128967  42.1289024  30.0881405
  71.2593994   9.0442533   9.2355547  70.3630295   9.0863266   9.5686760
  71.5129852   9.9592295   9.1141129  27.1340981  70.8894730  68.3782959
  26.7472687  71.7161636  68.6667023  27.9203262  71.1478424  67.8973389
  67.6460342   0.8010422  46.3150444  67.0417252   0.1096770  46.5853424
  67.7326889   0.6868950  45.3686333  46.9602928  41.0713043  41.1417770
  47.3244019  41.9292297  40.9235497  46.1170158  41.0469360  40.6895370
  84.9530487   7.2310629  30.0383759  85.8512878   7.5491276  30.1290874
  84.8981934   6.4922948  30.6445484  81.9978104  35.2168274  82.2649078
  82.1709671  35.0401306  83.1895828  81.8658676  36.1639481  82.2226639
   6.5034313  69.9721832  42.5611992   6.5951185  69.1959915  42.0086212
   7.0707464  69.7996292  43.3126068  20.8232498  52.3503036  46.5225105
  21.0194721  51.4145699  46.5686798  20.0806541  52.4688072  47.1147423
   5.3873081   8.4101152  58.7097740   4.7799039   9.0876341  58.4126892
   5.6352801   7.9439549  57.9113770  57.6836853  41.2598152  57.7972031
  56.7727928  41.2838516  57.5040665  57.8209038  42.1063805  58.2223244
  41.2454758  70.7555389   1.0959475  41.4162064  70.7808609   2.0374575
  40.3940926  70.3249969   1.0184122  39.8693008  64.8768387  17.9764900
  40.6268234  64.4023438  18.3189011  40.2377243  65.4874268  17.3379936
  73.6151276   2.1113703  48.2962036  73.6169205   1.6681718  47.4477921
  74.0696030   1.5070196  48.8830948  25.2122974  32.6854820  65.0289536
  24.4824200  32.4590378  64.4525604  25.6346626  33.4294510  64.5995941
  57.2106094  51.0389748  36.4028816  58.0672379  51.4188499  36.5981102
  56.9175453  51.5002098  35.6170044  60.9963341  49.0760651  62.7991524
  60.6736755  48.2609978  62.4147224  61.6959000  49.3583145  62.2099380
  53.1601067  36.5414200  78.4365234  52.4754105  37.2003250  78.3213730
  53.1725426  36.0616646  77.6083298  76.6168671   4.8623433  43.9977760
  76.6493683   5.7642927  44.3166199  75.7546082   4.5445452  44.2656326
  62.8399963  43.8338776  53.1868439  62.4531097  44.0430832  54.0370102
  62.9378662  42.8817368  53.1960144  12.7127953  36.4778442  82.0007706
  13.0576544  37.3050041  81.6644516  12.3632936  36.0325508  81.2288971
  38.9785728  58.5609703  14.1118927  38.2045364  58.7534065  14.6411076
  38.8198853  57.6826973  13.7659445  59.9241409  23.3935928  50.7434158
  60.2423859  23.9564800  51.4491882  59.8582611  22.5252781  51.1408119
  35.9182930  71.1736374  13.8689852  35.2842216  71.8906784  13.8626375
  36.7123795  71.5527725  13.4922657  28.3867817  47.7844810  46.2922745
  27.5778427  47.3189316  46.5046692  28.1086006  48.6856232  46.1285858
  11.1812325  68.0281296  88.9898605  11.3917675  68.9473267  88.8256149
  11.9060326  67.5423737  88.5962448  56.7645187  49.3162460  47.6158371
  56.8466644  49.4360199  48.5619545  57.4829025  49.8295631  47.2461624
  28.1004276  28.6664200  60.8971443  27.5991020  28.5755424  60.0868073
  29.0135422  28.5729675  60.6256371  73.3982010  44.0406151   0.9432982
  74.0317078  44.4821358   1.5089520  73.8721619  43.8888435   0.1256462
   1.9055009  23.0712433  64.0080948   2.8561661  22.9607162  64.0239334
   1.5602382  22.1787071  64.0282364  51.5036926  66.8868866   9.4573507
  51.8910065  67.3674698   8.7257347  51.8067055  67.3524017  10.2369108
  60.9583740  33.7537537  56.5679893  61.7492561  33.3001442  56.8594971
  61.2392921  34.6577187  56.4260025  39.3677254  39.2622833  63.7122383
  40.1353149  39.8073006  63.5390472  39.0561256  39.5528603  64.5693893
  82.9394150  53.1495667  17.2201118  83.7337723  52.6588554  17.0093079
  82.5742416  52.6986084  17.9813709  29.6351032  36.9481201  46.8614044
  29.7764015  37.6275482  46.2021332  30.2719784  37.1448250  47.5483742
   3.1340225  36.7492676  25.2159462   3.5079243  36.8359833  26.0928211
   2.2780941  36.3454857  25.3593941  67.7352600  20.5010281  11.2826586
  67.7496948  19.7045879  10.7518997  66.8526077  20.5266743  11.6521168
  70.3447800  37.1007271  67.3073196  70.9493408  37.8409500  67.3602982
  69.7250137  37.2460251  68.0221710  32.5526276  71.1828995  75.2633438
  32.9875031  71.8211823  75.8287735  31.6188889  71.3627167  75.3730316
  30.4801064  31.7157230   1.7563554  31.1031361  32.4231911   1.9223500
  29.7074356  32.1553764   1.4015054   5.7638288  12.5537519  68.6606293
   6.3246093  12.7980356  69.3968887   5.2538524  11.8110962  68.9840698
  50.3060074  21.6615868  59.4057961  51.1506271  22.0939026  59.2794914
  50.5017090  20.9139290  59.9705429   3.1184680   9.3445520  28.8827457
   3.9405866   8.8697453  29.0048599   3.3740985  10.1583042  28.4483585
  42.5706635  46.6134834  62.4305534  42.5118904  45.9561348  63.1238556
  43.0780640  47.3262939  62.8187294   0.7256708  15.5326071  58.9169426
   1.5750016  15.5338697  58.4755058   0.3331498  14.6927328  58.6786766
  22.5328255  11.2793655  71.8508301  22.0065727  11.8143311  71.2566071
  23.2569809  10.9631281  71.3106232  60.0813751  32.2013550   5.8475528
  59.9459724  33.0649605   5.4575753  61.0122871  32.1820755   6.0695181
  59.2604713  25.0533257   8.1009216  59.4678802  24.2446804   7.6326199
  60.0942192  25.3308716   8.4804850  34.4703064  63.5834389  70.3497696
  35.3738060  63.8966370  70.3924484  34.0094872  64.0896225  71.0188446
  54.2014771  52.1784363  75.0593643  54.0856018  51.2439079  74.8877182
  54.6419144  52.5126648  74.2779999  35.0267677  30.9181843  72.2332687
  35.7940369  30.8794346  71.6622772  34.2967606  30.6579247  71.6715012
  59.3122292  17.9812737  29.3140202  58.7280693  18.3364792  28.6440811
  59.7276802  18.7512856  29.7022381  39.6013222  39.0892982  77.2571106
  39.0461922  39.8449554  77.0646591  39.0979805  38.3369026  76.9460144
  86.0295486  71.8421860  63.5309258  86.3408966  71.2932816  62.8111992
  86.7571182  71.8572311  64.1527328  53.5040207  35.3116837  48.6643562
  52.7184753  34.7876549  48.5076904  53.1772346  36.2034645  48.7833977
   3.9218969  71.3092270   7.5596256   4.7667427  70.8600616   7.5329375
   3.2756288  70.6098404   7.4625483  84.2686768  67.1812744  63.5278664
  83.8724518  67.9093475  64.0065689  83.5243149  66.6701660  63.2101898
  81.9078217  37.6139412  57.3233337  82.5188980  37.9775314  56.6825409
  81.0563736  37.6456680  56.8871422  78.5654984  25.9171028  41.2380486
  79.1955643  25.2133827  41.3930626  78.5892715  26.0556011  40.2912178
  74.7995987  21.9161797  79.4158783  74.0574265  22.1576214  79.9700546
  75.3288803  21.3364391  79.9635849  81.0992889  11.2210369   5.1074686
  81.4716339  11.9986372   4.6916184  81.8592911  10.6924658   5.3508806
  86.4207535  21.6273232  28.6419582  85.6399078  21.1926937  28.9849014
  86.4325714  21.3999767  27.7122250  84.5511322  31.6217785  26.5532036
  84.9256668  30.8341599  26.9476814  83.6528397  31.6506500  26.8825493
  82.9050522  28.0168839  67.4756241  82.2611008  28.4659081  66.9279633
  83.6009293  27.7642231  66.8688660  17.4388199  26.5890503  13.1282635
  16.9879951  27.4240265  13.2539759  18.3667316  26.8210735  13.0911245
  80.3011932  21.3460083  44.4488258  81.1826935  21.0104122  44.2858315
  80.3986435  21.9138680  45.2132034  75.0228653  26.5907936  49.5022430
  74.5239258  25.8186150  49.2357178  75.5493698  26.8125820  48.7342415
  22.9052887  59.7938843  12.1528788  22.5572910  58.9215355  12.3376455
  22.1290398  60.3409843  12.0330839  50.0640564  46.9769135  11.8690596
  50.1840324  47.8114090  12.3223295  50.1621513  46.3158569  12.5543451
   8.1314783  36.4216766  15.2278137   7.8353615  37.2965164  14.9764099
   8.5382719  36.0697746  14.4360352  26.7812672   4.1535125  65.8121948
  26.4412575   3.5338230  66.4576492  26.0004234   4.5565677  65.4326401
  42.1731606  24.0163727  36.4050636  42.9175148  24.6007118  36.2611389
  42.4858971  23.1564465  36.1240768  52.9599266  49.5882568  17.1427193
  52.6705322  50.1034813  17.8957329  53.9014282  49.7520142  17.0880489
   3.0004199  46.1011124  72.9091492   3.4356182  45.2875824  72.6541901
   3.3189750  46.2757988  73.7947235  15.0258074  22.2765789   2.0448847
  14.1283092  21.9852428   1.8840963  15.5445175  21.8376217   1.3707279
  85.1118774  59.5571938  75.8685226  85.7505951  59.0382614  76.3573837
  84.4903412  59.8583221  76.5312805  36.9156761  24.4473648   7.2710853
  36.0804176  24.8900166   7.4215298  37.4068871  25.0471420   6.7096477
   0.3644164  38.6010895  13.1373405  -0.4823230  38.8325577  13.5190306
   0.5543752  39.3130226  12.5263615  61.3381577  37.3235359   6.9543219
  62.0389061  37.4937744   6.3248739  60.8788490  38.1596107   7.0333371
   2.8506222  14.4392023  17.8357410   3.4887209  13.7576056  17.6248188
   2.9315202  14.5584641  18.7820301  36.0140800  28.9766369   8.2291594
  36.3839417  28.5773735   9.0165749  36.7762794  29.2450657   7.7160969
  51.6120911  13.4504013  85.5602417  51.4568939  14.3519621  85.2785797
  52.2276039  13.5297384  86.2889938  63.5743256  11.7407532  22.7744522
  64.4115677  11.6417618  23.2277260  62.9990005  11.0992603  23.1912498
  63.6619720  19.6497364  28.5423946  63.0859489  20.4078236  28.6410656
  64.3208847  19.7587299  29.2280960  65.7747726  15.2973967  16.2803516
  66.6704712  15.2857065  15.9429750  65.5424194  14.3736649  16.3750286
  12.4664936  62.0792313   7.1393909  13.2405834  61.9106712   6.6021709
  12.1558218  61.2096176   7.3913469  34.5689926  43.4714775  12.9653397
  34.4837914  43.5978508  12.0203524  34.5211487  44.3550262  13.3304195
  33.2769852  43.9910278  42.2992630  33.4695740  43.1190643  41.9545517
  33.9673691  44.5483932  41.9401779  49.3491516  14.5172014   3.2680750
  49.1289482  14.2362480   2.3799262  49.6510201  13.7200327   3.7035394
  19.8308430  70.2273331  11.9794178  20.1885166  70.9441605  12.5033150
  20.2310848  69.4392700  12.3468294   6.7782569  53.9687881  39.7904015
   6.5463448  53.4180946  39.0426140   7.3761878  54.6233597  39.4295044
   6.5102515  50.2157440  14.9139442   6.2605906  49.3072624  15.0829649
   6.8014688  50.2184258  14.0021238  57.2280121  29.5446224  85.7413712
  56.2791748  29.6362209  85.8282471  57.3490486  29.0818291  84.9122772
  47.7703400   7.8020310  67.1047745  47.4635277   7.0323267  66.6255493
  46.9692802   8.2434282  67.3870850  36.0238571  66.5674820  72.7964096
  35.2584152  66.5408096  72.2222824  36.2466812  65.6479416  72.9413757
  51.1488495  22.4028645  20.6267242  50.8501434  23.3017960  20.7643032
  50.4795876  21.8613911  21.0452118   7.7584500  48.6663017  51.4055023
   7.6668301  49.1885223  50.6085548   7.2031488  47.9011765  51.2556496
  25.6163559  51.3924713  12.1987638  25.1108303  51.6878128  12.9560280
  24.9560757  51.1597023  11.5460157  77.4547501   1.3662729  70.5837860
  78.3851395   1.5228382  70.7453156  77.1526489   0.8956890  71.3606491
  72.9988098  36.5139961  17.8540974  73.5291214  37.1036415  18.3901215
  73.1481934  36.8077850  16.9554272  40.9481430  51.7301826  19.0274315
  40.0715714  52.0272446  18.7832928  41.4332428  52.5359726  19.2052307
  80.3119888  53.9668274  40.9152870  80.6588745  53.1383553  41.2462540
  80.7915115  54.1190224  40.1009636  64.5522537  25.1131725  41.1623116
  64.8366928  24.2180004  40.9779472  64.4514236  25.5149651  40.2993927
  12.9192724  39.6123962  46.1615067  12.0121975  39.5747986  45.8581352
  13.3116407  40.3241348  45.6558304  39.3859253  59.6882820  20.2731495
  39.2897606  59.9509850  19.3577404  39.0962753  60.4514618  20.7730389
   5.9440198  13.2147436   2.1244397   5.6733255  12.3377600   2.3962040
   5.3204222  13.8013153   2.5525649  87.2588577  65.1615219  71.0163879
  86.4956055  65.7277603  70.9021683  86.8906250  64.2979279  71.2030182
  74.4810638  27.6739140  68.8013153  75.0342407  27.0985909  68.2728882
  74.4555969  27.2569065  69.6625290  36.9680595  37.0137749  15.2343369
  36.3964157  36.9370880  15.9982567  37.1229591  36.1100807  14.9594193
  28.4479122  62.3574905  24.4438362  27.5055923  62.5108681  24.5126877
  28.8326778  63.2338104  24.4279194  80.1040573  37.1747093  37.0194473
  79.9172363  38.0652428  37.3165665  81.0588760  37.1105461  37.0405235
  22.7832890  48.5926628  86.3311005  23.1094875  49.1565552  85.6297760
  22.8104420  47.7102661  85.9611359  85.1023865  58.7767181  38.1910782
  84.2098846  58.8234100  38.5338516  85.4086533  59.6835823  38.1961632
  56.4502754  47.4609108  72.1180191  56.5229034  46.7530479  71.4777985
  57.3289680  47.8384018  72.1584167  34.2014236  28.6304283   4.8005557
  33.2828979  28.4180431   4.6349173  34.6108551  28.6138382   3.9354982
  11.0875826  59.5909920  56.4045486  10.2741718  59.9789925  56.0819817
  11.0406399  58.6747475  56.1315536   7.8233309  23.4355793  61.2977219
   8.6397381  23.9261036  61.3931007   7.8505960  22.7861862  62.0004120
  38.4558563  61.0114632  12.8273773  38.3840942  60.7635880  11.9056177
  38.6408577  60.1900101  13.2825947  82.6677780  31.6686497  73.3365326
  83.3595886  32.0822945  72.8202667  81.8809280  32.1732979  73.1305542
   3.6856153  14.5542355   3.3116691   4.1589136  15.1049280   3.9353349
   2.8706017  14.3298521   3.7607086  38.9936600   2.4167261  59.2703247
  39.4276314   1.6582141  58.8797340  38.5712090   2.0721316  60.0571022
  41.9953499  69.8046646  61.8556900  41.3974342  69.6957703  62.5951958
  42.8575401  69.9090195  62.2581482  12.5601320  34.6158295  21.5355854
  12.4974899  33.6846809  21.3228245  12.4820156  35.0601921  20.6913853
  48.3119087   5.3745637  11.7789478  47.7108421   5.9663405  11.3264523
  49.1410789   5.4712067  11.3105803  67.2111359  11.7558756  14.5316572
  67.5020676  11.2828207  13.7520370  67.1732101  12.6717005  14.2558699
  50.5301552  51.3178711  14.3361082  50.8117332  52.0413246  13.7761412
  51.3407860  50.8643112  14.5671711  77.9744568  10.5476398   2.7330527
  77.1126709  10.4637775   3.1411145  78.2047729   9.6553345   2.4742546
  39.6919365  67.7789001  30.0161476  39.3404617  67.1606064  29.3755150
  40.3744659  67.2877960  30.4735336  65.5170441  61.6787491  30.3431931
  65.0677795  61.2940903  29.5905743  64.9915161  61.4124680  31.0976105
  11.7189188  48.3028603  40.8869133  11.2480040  48.5405731  40.0881844
  11.1362820  47.6896515  41.3349571  83.5391541  10.7074699  57.9642258
  83.6588135   9.9708586  57.3647957  83.8218231  10.3722277  58.8150787
  -0.1202436  13.0464010  18.5383968   0.6980730  12.5609283  18.6428261
   0.1132828  13.9540939  18.7327976  56.2174911  71.2507095  82.6864243
  56.5404205  70.9048080  83.5184708  56.8708153  70.9759064  82.0430832
  48.8410568  25.1682987  16.4442368  49.5972290  24.8733292  15.9368629
  48.5494919  25.9639111  15.9990129  49.3366318  23.3139839   5.1428924
  48.3922920  23.2707214   4.9926181  49.4550514  24.0806599   5.7036214
  37.0937004  59.0575294  37.3732300  37.1945877  59.4073868  38.2584724
  36.1667290  59.1830940  37.1702690  54.7298355  11.7199068  13.6466255
  54.5715790  12.6638899  13.6557531  55.5118256  11.6029234  14.1861038
  61.1592369  49.2109184   3.6333208  61.2601624  50.0738678   3.2316213
  61.9219856  48.7164383   3.3334277  11.6966410   9.9228048   5.3784566
  12.2716227   9.7485437   6.1236148  10.8206644   9.9799414   5.7600756
  61.6873093  30.8017330  48.0101357  62.0611687  30.2250423  47.3438873
  61.1745453  31.4399109  47.5141182  46.9730797  67.0436325  33.7025871
  47.2319870  66.2515564  34.1735535  47.7900391  67.3824310  33.3364868
  84.6157608  48.7375336  79.0127487  84.1922760  48.4166031  79.8089218
  83.9097061  49.1508102  78.5158310  11.2639265  43.5344734   3.3621123
  10.7577524  43.4253082   2.5570643  10.7896223  43.0195961   4.0149288
  37.1541862  70.1563034  55.8854599  37.9772911  70.5309143  55.5717697
  36.5519371  70.8993378  55.9233704  80.9526978  40.8149300  27.3073330
  80.3831253  40.0671959  27.1264839  81.4425125  40.9448318  26.4952736
   2.8002858  12.1181402  68.6370087   3.2676017  11.5971746  69.2900314
   2.7152195  11.5357189  67.8821640  53.3070564  59.3325729  65.2395096
  53.2234650  58.4430962  65.5831299  54.2337761  59.5456123  65.3492126
  76.0123901  71.9387360  31.9762077  76.4769516  71.1028519  32.0175743
  75.2005386  71.7857285  32.4596443  19.2440472   6.3537745  80.7556305
  19.9956112   5.9073076  81.1455688  19.2100029   6.0252876  79.8572083
  47.3381996  33.1407471  64.1633987  46.4312057  33.1280632  63.8577271
  47.7612114  32.4257507  63.6879272  60.2968750  20.4659004  74.8686523
  59.9437332  20.3952179  75.7555084  60.1381645  21.3763790  74.6195068
  44.9775124  39.1793327  65.9969025  45.8353844  38.7660789  66.0944138
  44.3923759  38.6464577  66.5353165   6.6831632  59.9250488   8.8135061
   7.4564514  60.4805946   8.9116182   6.1217613  60.1635361   9.5511951
  84.3290787  14.4015732  13.7801428  84.4405746  15.3446016  13.9005537
  83.5739822  14.3221636  13.1972551  41.5929451  45.5517197  71.9719620
  41.9189453  45.2769165  71.1149673  40.6546211  45.6865501  71.8393021
  81.0569763   9.5108023  43.3799820  80.5816498   9.8402967  42.6172676
  81.7852707  10.1219931  43.4907303   6.8883224  42.6649513  47.0029526
   6.3217025  43.1238632  47.6230888   6.9079509  41.7618294  47.3195190
  47.5700760  39.5492744  33.7321625  47.9664345  38.9075508  34.3214989
  47.2635498  39.0327530  32.9868584   8.6615686  45.8620682  38.4446259
   8.5293570  44.9152069  38.3977280   8.8720188  46.1192741  37.5469704
  73.3757095  37.9099884  76.0033264  73.0844269  37.0122795  76.1630325
  74.2493744  37.8144264  75.6241074  11.8341455  64.1437378  79.3341293
  12.6220913  63.8026276  78.9110260  11.1768808  64.1604843  78.6384583
  15.5304928  44.8997650  84.6068649  16.1668682  44.8500748  85.3201599
  15.3940468  45.8376160  84.4725189  23.6020851   0.9529609  54.2780190
  23.0978718   1.4461049  53.6308632  23.3581772   1.3412874  55.1182251
  69.0633850  30.3417454  13.5212479  68.2387085  29.9891300  13.8556242
  69.4512558  30.7947674  14.2699518  12.8883533  32.3851051  68.5161667
  12.2783403  32.6009102  67.8107986  12.4334116  31.7183342  69.0306396
  37.1271515  53.7439423  69.1319809  36.5775833  53.7551308  68.3483505
  37.6154671  54.5663338  69.0938263   9.7210703  11.4972734  78.9147339
   8.9840183  11.5905361  79.5182953   9.6800776  10.5856781  78.6256866
  50.9877968  41.3838120   7.1181588  50.6479034  41.5343857   6.2360983
  51.9324646  41.2873650   6.9975905  16.4363842  58.6373672  33.7853699
  16.1111431  58.7926331  34.6721306  15.6642189  58.7302208  33.2273636
  54.2748299   1.8771369   8.3308582  54.0470047   2.8066988   8.3152924
  53.6130600   1.4777669   8.8954802  64.0486450  66.8786240  51.4793625
  63.8188705  67.5653458  50.8533859  64.0449524  67.3184814  52.3295059
  75.7186661  32.8178864  12.6976871  75.7377243  33.0566063  13.6244459
  75.8911285  33.6381569  12.2354717  81.0633545  56.6417961  14.4168081
  81.4285278  57.3283997  14.9748888  81.3636017  56.8644485  13.5356112
  61.1700401  51.4761696  54.2032890  61.1411133  51.1493111  55.1024895
  61.8046722  50.9106789  53.7631874  70.2923889  16.6684093  40.0640602
  70.7871094  16.3762741  39.2984619  70.1190948  17.5950222  39.8979568
  28.3962212   1.3958957  21.8617020  28.1879482   2.1388922  22.4281025
  29.3523369   1.3897761  21.8165359  86.0519638  67.1152191  69.1063232
  86.6849747  66.6948700  68.5242157  85.2945404  66.5299988  69.0991058
  54.0424919   6.7227302  16.6230106  54.6052971   7.3611894  16.1850052
  53.1688232   7.1125808  16.5920944  10.2764912   8.1681395  14.0157518
  11.0506773   7.7872324  13.6012907   9.5862484   7.5200291  13.8752174
  71.2936935   1.6000345  33.2149620  71.8928070   1.5811977  32.4686737
  71.5097961   0.8132761  33.7155037   3.9181120  51.4941483  86.3149261
   3.8577671  51.6096497  85.3666382   3.2864375  50.8026886  86.5126648
  28.8003273  23.9796486  65.2867508  29.2590389  24.5630760  64.6822357
  28.8446846  24.4272747  66.1316681  76.4077759  63.1364059  40.6606674
  76.3308258  62.1913567  40.7917709  77.0153275  63.4240608  41.3421097
  77.3536377  53.1158371  26.1202202  76.4335251  52.9457626  25.9184723
  77.6751328  52.2914581  26.4852867  68.7768707  62.9457817  60.1261253
  68.7784500  62.6192207  59.2263565  67.9344711  63.3909531  60.2178802
   6.4230623  41.2073746  50.0947647   6.0768528  40.7032623  50.8311348
   6.4085860  40.5962067  49.3582230  54.6425591  45.8122292  29.5512295
  55.3819885  46.4012070  29.7014847  54.3321609  46.0364647  28.6739578
  21.3398571  70.7152252  44.4177284  21.8053150  70.1650314  43.7877579
  21.9379253  70.7860031  45.1617279  77.1904144  33.9938240  70.0282593
  77.8717270  34.5493240  69.6494904  77.3979492  33.1133003  69.7154694
  21.9313526  55.8883667  38.3520775  22.4297485  56.6127319  37.9737549
  22.4687729  55.1143112  38.1839905  52.5050125  23.7737007  50.1207314
  53.1946297  24.0224342  49.5052719  51.6897659  23.9555416  49.6532478
  51.9904594  28.1633282  57.4650688  52.8786011  28.5131283  57.3937798
  51.9352264  27.8307304  58.3609238  51.0154991  38.8551636  39.8165321
  50.5813522  38.1803398  39.2946472  50.3309364  39.1852646  40.3984604
  49.6893311  14.2640238  71.1136780  49.7171440  13.3165693  71.2470551
  50.5896950  14.5011587  70.8915405  13.2541447  68.5190353  76.5364990
  13.5998631  67.9219818  75.8729935  13.3840952  68.0575638  77.3649902
  45.1858406  47.0673866  89.2814407  45.2033806  46.5403862  88.4825668
  44.6881676  47.8491325  89.0417862  10.0278893  17.5617313  88.1189957
   9.2788734  18.1090145  87.8830185  10.7921410  18.1001759  87.9135056
  73.2716751  15.4680290   1.2486993  73.3749313  14.6209326   1.6822872
  72.4217682  15.7892361   1.5498854  47.4522820  41.6669579   8.5497379
  47.0326996  41.0300674   9.1281443  47.6867294  42.3950691   9.1251717
  73.4252243  62.2819023   5.3199778  72.7659531  61.7496262   4.8747044
  73.3249512  63.1547012   4.9399786  33.0894852  57.2674103  51.7513695
  32.6438713  56.7310677  52.4071121  32.3823357  57.6301346  51.2178879
  60.3896255  16.9941578  13.0501575  60.9950714  16.9298229  13.7887535
  60.9496117  16.9383869  12.2758608  72.7003632  48.8320923  67.5884552
  72.5758667  48.7258301  66.6453552  73.3001328  49.5737457  67.6688080
  47.0995979   8.9944201  14.8596668  47.2989578   9.7004385  14.2448282
  46.7077560   9.4363260  15.6129332  54.0444870  57.4833145   7.0238070
  53.2347488  57.1071281   6.6787858  54.5816307  57.6474342   6.2487116
  10.8266087  48.4532013  12.3784790  10.9072218  48.7978134  11.4891109
  10.5882959  47.5339432  12.2584639  67.9983292  57.5966644  54.9020348
  68.4695587  56.7757607  55.0444870  67.0862732  57.3873444  55.1034393
  23.0573139  48.5926476  22.5281773  23.6166496  47.8583755  22.7815933
  22.2329826  48.4358978  22.9887657  68.4742279  22.8544998  79.3029709
  68.2028122  23.1001797  78.4185486  68.4186478  21.8989773  79.3138199
  20.5385857  58.6126747  58.1582069  21.2013454  59.1600609  58.5793381
  19.9555054  58.3514633  58.8709602  70.5959320  36.2765121  83.7481308
  71.4217224  36.2128639  83.2682953  69.9707108  35.7854156  83.2150726
  86.4615250   5.1614423  73.9052200  86.4091797   5.3926134  74.8326111
  86.7849731   5.9548621  73.4784927  26.7093048   6.7221565   6.5291429
  25.9356098   7.1198506   6.9284782  27.2970829   6.5504365   7.2648463
  37.3653259  56.6390572  17.2041473  36.5068893  56.4619904  17.5888062
  37.4807510  55.9508591  16.5489407  35.9449730  68.5684891  63.5510445
  36.0491638  67.6596985  63.8329773  36.5786667  68.6732330  62.8413353
  11.3131390  44.0782509  27.6397400  10.9132357  43.8471947  26.8013344
  11.2692194  43.2733727  28.1559525   1.3281724  51.5058403   4.0225334
   0.7812216  50.7203178   4.0169892   0.8574296  52.1215057   4.5843067
  68.0797653  11.0693483  50.1953392  68.3447342  11.0525103  49.2756996
  67.1363983  11.2295094  50.1698952  19.2940254   5.8389297  15.5717077
  19.3990479   6.7887554  15.6267872  19.2445927   5.5501814  16.4829769
  69.2250214  25.6401367  66.0152740  68.3091049  25.7845345  65.7776260
  69.6701126  25.5001411  65.1794891  26.3191299  45.0749207  87.9105072
  25.8164387  45.8737526  87.7511368  26.8311005  44.9506645  87.1113281
  81.7796021   0.6218250  73.2826996  81.9581451   1.2834769  73.9509583
  82.2043762  -0.1707167  73.6108475  38.2259827  41.1968193  21.5541897
  37.5320702  40.7754555  21.0470715  37.9384270  41.1196098  22.4639053
  46.3332787  51.7947235  82.8086395  46.4094315  51.8727837  81.8576736
  45.8583107  50.9748383  82.9443893  66.3425980  61.8582382  69.1024475
  67.0472565  62.3932304  68.7371140  65.6627350  62.4882889  69.3413086
  83.8628922  31.1940346  66.4708023  84.5768890  30.8021946  65.9679108
  83.2749786  31.5576172  65.8086853   5.4465432  50.5750542  34.2891960
   6.1847553  50.4029655  33.7046776   5.7087636  51.3513260  34.7840462
  40.6797600  45.3010674  52.3232651  40.5422287  44.3556480  52.3824425
  41.5952148  45.3938828  52.0595131  74.1627350  10.5475101  46.9699516
  73.9614563   9.6117268  46.9644737  74.7944870  10.6524563  47.6813622
  73.4583435  59.6633797  39.4569130  73.3045349  59.9418068  38.5541115
  73.6735153  58.7332764  39.3873520  61.2555046  63.3755798  78.7790451
  60.5043373  63.0749474  79.2905121  61.2934380  62.7758331  78.0339966
  45.3428421   2.4681823  29.5412788  45.5396156   2.1033604  30.4040756
  44.5669365   1.9892598  29.2500114   5.8072109  34.3422928  70.0586777
   5.2518911  35.0767097  70.3203659   6.0129824  33.8935165  70.8787308
  60.0010567  43.7461929  11.5120888  59.3051033  44.3901596  11.3809748
  59.9814453  43.5601196  12.4508238  76.4044113  55.6169472  55.0631256
  75.8012695  56.3598709  55.0859642  77.2674561  56.0127525  54.9418221
  27.9399452  36.3426208  77.8096085  27.0643024  36.0693665  77.5360947
  28.0291328  37.2338295  77.4719238  36.0456619  67.1456528  68.6335449
  35.7825279  68.0612259  68.5401611  36.7396660  67.0285339  67.9848022
  50.5782852  56.1742516  58.3682098  50.3249474  56.2302094  57.4468422
  50.5750732  57.0816116  58.6730270  48.0821571  61.7354660  88.3724899
  48.1936798  60.9023666  88.8304672  47.1741638  61.9841881  88.5454483
  66.0548630   5.0549736  65.1809464  65.9688492   5.9635844  64.8924026
  65.8179932   4.5361118  64.4122467  62.6710739   9.3475018   6.9654779
  62.8105812   8.9856968   7.8406162  63.1072617  10.1992912   6.9861255
  20.9721031  71.3733444  65.4096527  21.6250362  71.3913422  66.1093597
  20.9188995  72.2803192  65.1083221  66.6720200   5.9097219   3.0288010
  66.1696396   5.3070922   3.5771472  66.3481522   5.7530394   2.1417897
  55.2774010  60.2386894   8.1033821  54.8805847  59.3682671   8.0697145
  55.8022766  60.2936821   7.3048129  61.8716011  44.1274071  55.9251251
  61.1119080  44.1234779  56.5074348  62.5766602  44.5011139  56.4537697
  47.3210144  22.7999458  78.2597885  47.4993095  23.6220169  77.8030167
  46.3670540  22.7678986  78.3316650  68.4859467   1.2116930  67.5588074
  67.7793350   1.7875683  67.2667313  69.0328903   1.7666663  68.1147614
   1.9870908  17.9063072  52.2370300   2.7715373  17.5132828  52.6196632
   2.2441533  18.8059120  52.0348892  49.1504631  36.4345436  86.4249649
  48.8817978  36.8120346  85.5873795  50.0903587  36.6085167  86.4756088
  55.3979912  47.0312157  87.8524551  54.7255516  46.3503494  87.8305283
  55.3459930  47.4470062  86.9918518  51.9376945  57.3979378  83.8590546
  51.3567276  57.3630219  84.6189804  52.4076424  56.5642662  83.8783417
  81.2390594  68.3592987  32.0609818  81.8003311  68.9177551  32.5988770
  80.4659805  68.2032852  32.6034164  62.8199005  43.9705849   3.2040629
  62.0947571  44.5889320   3.1143720  62.5346794  43.1952209   2.7206478
  24.6449661  63.9849625  25.7645073  24.0819550  63.3963242  25.2617588
  24.2245693  64.8415298  25.6884117  55.1453743  57.7299118  46.3858223
  54.6285400  57.1799583  46.9746056  55.3595772  58.5035973  46.9071312
  15.2410154  70.3777924  70.3568344  15.0470591  71.3047028  70.4963150
  14.4730587  70.0389938  69.8967438  41.4194908  69.6947632  64.5775375
  42.2724800  70.0298996  64.8537979  40.8463287  69.8507614  65.3281250
  74.2614059   9.4026985   9.2553368  73.3054581   9.3654575   9.2871504
  74.5128250   8.6490393   8.7214651  13.7653990  50.3200760  24.7833786
  13.2310343  50.2623367  25.5754337  14.2622948  51.1314430  24.8883114
  57.4618721  39.5358734  14.6928520  57.2045593  38.6406670  14.4723206
  58.0718842  39.4365692  15.4237776  16.5105286  59.1455078  61.8057137
  15.7083025  59.6656876  61.7601280  16.6853619  59.0565071  62.7425919
  34.2483330  55.2224464  33.2392654  35.1634216  55.3854065  33.0105972
  34.1369476  55.6397209  34.0934944  20.5898018  13.1522465  75.7637405
  20.9460850  12.6344910  76.4856949  20.3415546  12.5045071  75.1041641
  41.2620087  44.4793510  41.8604851  41.2593613  44.4272499  42.8162651
  40.5769272  43.8700218  41.5855064  85.0485229  33.9470253  15.8757963
  85.2666397  34.8699913  15.7462177  84.1108704  33.9472389  16.0682755
  58.9537849  44.8262672  66.1124725  58.4901962  45.4640007  66.6552582
  59.6328087  44.4718056  66.6865082  56.2828712  57.9547043  79.2690353
  55.8571167  57.6006546  78.4882584  55.6249084  57.8713722  79.9592361
  22.2512321  56.8277016  41.3074608  21.5325508  57.2488327  40.8358917
  22.9758186  57.4500504  41.2451248  34.5158424  44.2439537   2.1924176
  34.4198227  43.5362320   2.8297100  33.6333466  44.3755341   1.8458353
  11.9359722  50.5400848  17.2167168  11.0198517  50.8158684  17.2466908
  12.4188023  51.3366470  16.9962711  34.0631065   4.3273864  83.4198685
  34.4922447   4.7103877  82.6547623  33.5324478   3.6142168  83.0648651
  61.6417694  53.8951569  26.7075939  62.2670822  54.6197357  26.6935825
  61.1035461  54.0582161  27.4821625  57.6291428  21.9115791  53.1610565
  57.4539604  22.8509369  53.1049309  56.7642517  21.5036793  53.1184883
  74.3256912  25.8120747  58.6422195  74.3803787  25.1456776  59.3271675
  74.3503723  26.6440258  59.1149559  24.3093204  65.2426071  73.0625381
  23.6883392  65.2510452  73.7909164  25.0801067  65.6992188  73.3996201
  51.2138290  30.4708195  38.7759438  51.9259758  30.1509647  39.3298149
  50.8595924  29.6834030  38.3627548  31.2011909  71.4632568  11.4341726
  31.3475933  70.5468063  11.6685028  31.0276051  71.8990402  12.2685575
  70.0434647  47.8364410  52.7619667  70.7714081  47.2272911  52.6383896
  70.0647125  48.3957214  51.9854431  23.5253792  18.8960991  70.9900970
  24.1995754  19.4041042  71.4413376  23.6658211  19.0829296  70.0618744
  14.7694130  64.7875061  31.8799133  15.1226082  65.3953629  31.2303066
  15.4616957  64.7096176  32.5363503  43.2107353  41.3360672  60.7201080
  43.9181099  41.9162331  61.0016403  43.6006432  40.4619102  60.7275162
  69.3274078  57.0139618  44.4059334  68.7792664  56.3326492  44.7952766
  68.8888626  57.8336449  44.6340446  72.2274017  67.1937256  69.6901779
  72.1801758  67.0731659  68.7417755  72.7174683  68.0080338  69.8040009
  49.2193947  71.3327789  64.2403870  48.6073265  70.8770981  63.6624947
  48.7860451  71.3355942  65.0938644  82.0362930  32.3612823  27.0575829
  81.1329575  32.5977592  27.2680321  82.0749588  32.3902435  26.1016026
  39.0523872  56.3409500  48.5413170  38.8097763  55.5480766  49.0195656
  38.5825844  56.2725105  47.7101517  24.0042171  55.2206497   0.4638796
  23.1910286  55.2252884  -0.0410289  23.8076935  55.7463417   1.2392875
  66.3815384  22.6469116   9.7702827  66.3411484  22.2049961   8.9221601
  67.1287231  22.2456741  10.2140808  44.9737053  69.1186676  16.2658443
  44.1945190  69.4911957  15.8531332  45.7055931  69.4806900  15.7663307
   3.5280819  43.4995422  80.5200119   2.7874727  43.7835426  79.9842224
   3.4732716  44.0383453  81.3092651  44.8998146  43.2001343  26.5850983
  44.1179047  43.6318359  26.9293118  44.9914055  42.4101830  27.1178436
  20.9159069  69.8629150   6.8057895  20.5110760  70.0884018   7.6433454
  20.5369034  70.4822998   6.1821237  39.4598541   8.4007854  73.5408020
  39.7928734   8.7541628  74.3656998  39.4211655   7.4550910  73.6836243
  65.2488022  55.1862564   4.4250426  64.5597992  54.5221672   4.4028568
  65.3826294  55.3615112   5.3564968  48.0635185  70.2468872  82.6019592
  47.2718658  70.1132812  82.0807495  48.5346985  69.4160614  82.5391235
  75.0455170  44.8811989  30.5265427  74.2071609  44.5452652  30.2094688
  75.0540848  44.6627045  31.4584332   7.2647800   2.6916537  66.6535416
   7.1536598   2.2749610  67.5080872   8.1313400   2.4098094  66.3605042
  74.0841751  53.6883240  11.4271069  73.9171677  52.7886581  11.7080688
  75.0263519  53.8060799  11.5482416  65.6819992  18.4534378  26.7403564
  65.6422195  17.5751801  27.1189194  64.9925690  18.9403229  27.1918678
  65.4259872  11.0907059  30.9332790  65.0506821  10.3621311  30.4387531
  64.7373199  11.3424921  31.5485630  12.9290857  70.4207458   9.2901039
  13.1865177  69.8873367   8.5381479  12.7810860  71.2932739   8.9253855
  21.4157200  32.8284035   2.7203991  21.4396820  33.6776581   3.1613364
  20.4903889  32.5834732   2.7224867  60.7299728  17.2305222   4.9848919
  61.0343437  16.4704800   4.4889841  61.2772636  17.9526653   4.6763282
  17.2239304  21.0004082   7.8667326  16.8422871  20.2023697   7.5010624
  18.1032581  21.0395260   7.4905891   5.6672344  25.8037243  26.2115765
   4.7904201  25.6081257  26.5419827   6.2542415  25.5437107  26.9215393
  10.3828621  43.4746590  25.0913105  10.0059271  42.6156502  24.9008999
  10.8680954  43.7042923  24.2988148  50.5515366   6.9551406  49.6081276
  51.0936356   7.1505170  50.3724480  50.7633705   7.6467028  48.9811516
  76.7164764  53.5741119  11.5206413  77.0219421  52.7389412  11.8747797
  76.7510681  54.1763954  12.2638035  81.9741516  13.0181189  69.7069855
  82.5433578  12.2692614  69.5296478  81.1732788  12.6316414  70.0612030
   7.0833497  52.7266846  22.5309353   7.3418102  53.6476822  22.5654697
   7.9084978  52.2494736  22.4435806   4.4497023  63.9673576  81.7049103
   3.8180246  63.9415703  82.4236221   4.8940868  63.1205673  81.7461090
  52.6624222  60.4193687  46.7376709  51.8891487  59.9507637  46.4235229
  52.3386383  60.9597778  47.4583359  84.1313324  54.4202652  30.0113888
  84.6486588  53.8106499  30.5376740  84.5417404  55.2722778  30.1592636
   8.7723207  70.3511810  28.1094036   8.1090860  69.8569870  28.5911942
   8.4077015  70.4466400  27.2295322  85.7425613  -0.0593552  83.2375259
  85.4693069   0.4537233  82.4770508  84.9479675  -0.1497206  83.7635422
  86.1075516  13.1356564  58.2414436  85.6265106  13.2955675  59.0533943
  85.4390411  13.1660480  57.5570450  55.3528709  65.9589615  59.3086319
  54.6040573  65.3634567  59.3384819  55.1362038  66.5816040  58.6146584
  64.8795929  39.5502625  63.3934669  65.4017105  38.8126984  63.0778236
  65.3394165  39.8512001  64.1771927  80.9327393  45.3955917  83.8159103
  80.1405716  45.5320663  83.2962265  81.5006104  46.1305580  83.5844498
  16.9406910  62.4987679   7.7434540  17.8675957  62.2795792   7.8385019
  16.4781818  61.7035522   8.0079288  67.6143188  38.7519417  50.4246712
  67.7687454  37.8283043  50.2264709  67.7547989  38.8210068  51.3689842
  46.6459770  70.5379181  43.4805031  46.5037994  69.5928574  43.4269218
  46.0728798  70.8264542  44.1908150  22.7502289  49.9067116   3.1476614
  23.5371590  50.3427238   3.4745672  22.5078945  49.2962265   3.8439467
  66.7239838  25.2070656  18.3304901  67.4000778  24.5802040  18.0732403
  67.2067566  26.0049839  18.5461197  70.5448608   8.6250582  69.6555862
  70.2489243   9.4031801  70.1280060  71.1853180   8.9562378  69.0260086
  27.9206944   9.5157814   8.4233532  28.3635826   9.2709589   7.6108613
  27.8552589  10.4698629   8.3823662   5.7999806   9.0457439  16.7722855
   4.9064889   9.0812683  17.1138153   5.8497190   8.2043304  16.3186531
  52.0047913  40.9133530  31.1296577  52.1652870  41.3998604  31.9382286
  52.3368263  41.4841957  30.4367466  76.2898026  56.8567085  43.0650864
  76.4031143  56.5496368  42.1655884  76.3090820  56.0595055  43.5945473
  60.9954948  60.2721443  30.1432629  60.9239006  61.1150551  30.5911579
  61.5179863  60.4589767  29.3633099  52.5808487  29.6458187  35.2669067
  53.4245796  29.2522144  35.4892311  51.9523506  29.2031860  35.8372574
  77.6717224  12.2037029  30.3954506  77.3652725  12.9366903  29.8615494
  77.6633835  12.5401440  31.2915363   3.0951149  67.9007950  73.4163208
   3.6856461  67.4645233  72.8021774   2.5342274  68.4450531  72.8636703
  44.5598373   2.7007742  82.9811325  44.1552429   3.3727987  83.5296936
  45.3335304   2.4244707  83.4723358  34.1819191  45.1288757  50.9625778
  34.5369797  46.0110855  51.0715256  34.4236069  44.6722221  51.7683640
  46.5743904  29.9611053  39.2171249  46.0012741  30.7272720  39.1895714
  47.1211128  30.0986595  39.9906921  10.2316732  49.7332039  45.2749100
   9.9853029  49.6030045  44.3591690  10.7290783  50.5510178  45.2751694
  36.0619965  42.2092438  31.6675358  35.7895966  42.4286690  32.5585365
  36.1226425  41.2539749  31.6640224  77.4879761  65.4567108  36.5027580
  77.2571869  65.8707733  35.6711807  76.7854614  65.7121735  37.1006241
  61.5348625  10.8357010   4.4849548  62.0632401  10.5130110   3.7549427
  60.6299591  10.6979475   4.2049346  49.0617065  70.4379578   0.3125460
  48.8929176  69.5002899   0.4047841  48.2690010  70.7848969  -0.0966995
  76.2536850  22.6953163  73.6465302  76.1611786  22.9760208  74.5569534
  77.0625458  23.1115055  73.3485794   0.7412315  20.3175220  64.8045654
   0.2021588  20.7683468  65.4544830   1.6074862  20.2630234  65.2081299
  61.4704895  68.5672684  58.3181839  62.1222191  69.2035065  58.0237694
  61.1996384  68.1147385  57.5193787  80.5022278  10.8366899   1.5417999
  80.8154373   9.9838400   1.2405090  79.8183594  10.6293688   2.1786520
  62.6171761  17.2858028   1.4086971  61.9375343  17.4214725   0.7484592
  63.4191208  17.1532307   0.9031844  25.8985310  35.6127892  69.0166550
  25.5928249  34.9113388  69.5917587  25.1061916  36.1003990  68.7915649
  47.2784958  38.6172943  14.0496626  47.5195770  38.3439217  14.9347506
  46.3232536  38.6754189  14.0687780  80.9445190  11.5388756  58.0251350
  81.8962631  11.4752560  58.1049576  80.7852783  11.5770054  57.0820465
  68.6424789  45.2319603  43.5829468  68.0907593  44.6047020  43.1156273
  68.0370712  45.7039871  44.1547012  66.3114014  57.3723259  39.4874344
  66.1944809  56.5139618  39.0802841  66.3334122  57.9850731  38.7523956
  84.1289673  13.7583218  56.2910271  84.0712738  14.7057772  56.4144478
  83.3818817  13.5436192  55.7324600   9.1231117  43.7739525  20.8152180
   9.9234219  43.3783684  21.1605415   9.4021406  44.2199364  20.0155468
  67.6562958  15.2024126   1.2736106  68.1444016  14.8265524   0.5409991
  67.3328018  16.0398006   0.9414019  55.2010117  49.7346725  23.9648724
  55.0564423  48.9400711  23.4511185  54.7003403  50.4101105  23.5073338
  48.7722397  46.4853554   9.5552273  49.4045830  46.7677498  10.2160082
  49.0499420  45.5997810   9.3209896  25.5372982  62.7922935  28.0508614
  25.0824757  63.2361565  28.7666492  25.1706696  63.1808968  27.2566299
  46.2063217  20.1208305  12.8276672  46.4499016  19.2774220  13.2091942
  45.2555962  20.1643429  12.9299335  57.4115715  35.1750946  75.8485107
  57.2509422  34.3151398  75.4600372  58.3604050  35.2095871  75.9699860
  55.3300705  56.6328011  76.8793488  55.4278679  56.5780258  75.9287415
  55.3061829  55.7212944  77.1705856  34.3414040  57.6434746  23.3584843
  35.1701775  58.0535469  23.6058826  33.8087959  58.3639984  23.0217266
  53.0318642  30.9543819  64.0646515  52.9873085  30.7446518  64.9975281
  52.3455162  31.6085014  63.9331741  13.3529119  60.3957558  11.8861837
  13.0009212  60.7173080  12.7162066  14.0209475  59.7589302  12.1399775
  45.1026726  70.1872025  40.7494354  44.9993362  69.6100769  41.5060577
  44.2298622  70.2283630  40.3586159  51.6745377  47.2923279  24.7769432
  51.6348419  47.6891251  23.9067650  51.5006104  48.0163040  25.3784714
   0.1579780  16.6728344  73.8492813  -0.6672606  16.6272812  73.3664322
   0.6901797  17.2967777  73.3556290  74.3479996   9.3646326  25.0745449
  74.2555161  10.3113499  24.9677467  74.2370605   9.0120277  24.1915989
  43.2631111  47.1084862  84.6998215  42.6478844  47.4845772  84.0703049
  44.1182365  47.1913033  84.2777710  13.8797092  39.1865807  80.5180511
  13.8760891  39.1962280  79.5609055  14.3372049  39.9906082  80.7639542
  23.0253391  63.2071877  40.7996674  22.2931519  63.6412621  40.3618164
  23.7635841  63.8048592  40.6812668  67.2451859  19.7036209  15.7560663
  66.5540848  19.2082787  15.3164701  67.9365234  19.0609283  15.9149055
   8.6918831  39.7229919  78.2461014   9.2830811  39.0392990  77.9310074
   8.8476276  39.7580299  79.1898956  82.0564651  69.8310318  77.1117554
  81.5583115  70.3213730  77.7656937  81.8568726  68.9134216  77.2971649
  73.8926926   4.2322083  71.1375732  74.0102158   4.2684140  72.0868378
  73.5044479   5.0775261  70.9118881  59.5737953  49.3709183  26.5835400
  58.8901787  49.3989029  25.9141216  59.7696609  48.4397087  26.6870651
  43.6364899  57.6923218  37.6485405  44.1994438  57.9831009  38.3660126
  43.9399071  58.1899567  36.8892441  81.0259628  62.5408134  65.7838745
  80.5789871  63.3699455  65.9541397  80.6251755  61.9227333  66.3950882
  27.0849380  62.9213142  55.1441383  27.0862942  63.8051796  55.5115738
  27.9821529  62.6103897  55.2648087  62.3731956   2.2086003  68.4917831
  61.4177475   2.1507792  68.4943619  62.5562401   3.1477439  68.4646530
  83.9591904  57.8247795  44.4299660  83.5541611  57.0545006  44.8285294
  84.3983154  57.4875107  43.6491661  52.9076958  36.1694832  57.0403366
  53.3517609  36.8891106  56.5918121  52.0435104  36.5193253  57.2571945
  55.0358086  15.7886448  58.5344391  54.5741348  15.6251163  57.7120323
  55.7870102  16.3266659  58.2845230  53.1409225  66.4720612  87.3283768
  52.5485306  66.0508423  86.7055740  53.8072548  66.8880081  86.7813644
  44.5273590  48.7446671  28.7465935  44.4214478  48.4640656  29.6555920
  44.4534569  47.9379311  28.2367382   3.4030876  50.8448601  53.4341850
   3.9577897  50.7755547  52.6571808   2.9509261  50.0025215  53.4815788
  50.7885895   6.5608983  21.8297138  50.7846947   6.1319361  20.9740238
  51.2618370   7.3802018  21.6847630  55.8736496  21.5543213  31.4585896
  56.0542946  22.1577816  30.7378712  54.9600906  21.2977352  31.3328705
   8.8888922  36.6785355  79.3242111   9.3651743  36.3735428  78.5519638
   7.9778795  36.7366524  79.0362701  43.8241234  26.4938507  36.0958824
  44.6230621  27.0207806  36.0792427  43.1520882  27.0660133  35.7254372
  78.5937653  42.4278641  41.8588142  77.8541183  41.9060516  42.1700592
  78.9961548  41.8900681  41.1768379  51.3579140  61.9518890  48.8749428
  51.0581856  61.0837250  49.1445427  50.6786613  62.5482674  49.1898689
  19.7544365  49.0636482  56.9318962  19.4366646  49.6559601  57.6133766
  19.2055683  49.2566376  56.1718102   2.2240751  56.5883560  40.1406937
   1.6208676  56.3049660  39.4536247   2.1371005  55.9243355  40.8246117
  15.6981544   1.1878008  34.5048141  16.5248318   0.9120184  34.9007683
  15.9505510   1.5669477  33.6629257  79.8102036  40.3422356  50.7089958
  80.0671234  39.6760902  50.0714417  80.3031921  41.1217041  50.4528198
  12.8925724  31.7261295  56.0993843  13.2613573  31.2271061  55.3705482
  12.8894739  32.6325455  55.7917633  51.5978546  29.1858959  15.7483606
  51.3173637  29.2716656  16.6595135  50.8658180  28.7496033  15.3124638
  16.9819355  29.8072491  11.5534706  16.2603989  30.2226543  12.0257549
  16.7070255  29.8201618  10.6366882  86.5378494  24.4663448  77.9758911
  87.4426193  24.7229042  77.7975616  86.5151367  24.3089504  78.9197922
  76.9596558  21.6075249  68.0751114  76.8946915  20.6591492  68.1873474
  77.8933258  21.7964153  68.1689682  69.7032089  65.0296631   2.4643357
  69.5441132  65.9666595   2.5782104  68.8292770  64.6440887   2.4027328
  29.7177868  41.9668007  53.2814636  30.5069618  42.5056610  53.3368187
  29.9108849  41.2027397  53.8247490  84.0810623  68.1467209  55.6857758
  83.9050827  67.2644653  56.0127220  83.6034012  68.1949768  54.8576813
  59.9933167  60.3499794  76.8477249  60.8977814  60.6530380  76.7681503
  59.9880562  59.4957809  76.4158173  58.6640320  66.1046143   6.9776549
  58.2957878  65.3199844   7.3838410  58.1037827  66.8179932   7.2833414
  49.3894348  36.7910843  55.4841766  49.6451912  37.4001770  54.7914810
  49.4708633  35.9253769  55.0839882   8.9352970  36.6018410  59.6330566
   9.5338411  37.3486443  59.6168633   9.4847841  35.8599319  59.8857765
  64.4800339  35.3932343  45.4580193  65.1644897  36.0621872  45.4423294
  63.6609192  35.8882790  45.4433670  85.9295731  30.0444088  50.8032074
  85.8159714  30.9060574  51.2043114  85.1258926  29.9056339  50.3021317
  34.4657707  35.7467880  10.0522337  34.7858353  35.1016235   9.4217148
  35.0144806  36.5173340   9.9059353  26.6303215  37.1307755  72.4404297
  27.3093643  37.7556953  72.6946182  25.9799938  37.6588974  71.9774094
  41.8021736  46.3192673  33.7808495  41.6227074  45.8641853  32.9580956
  42.4861183  45.7965546  34.1994362  20.3343811  53.0454865  38.0337639
  21.2267590  53.2339706  37.7433014  20.2254467  53.5686798  38.8278885
  29.7563820   5.4983683  10.6605711  29.3029308   4.6904550  10.4199677
  30.6590252   5.2262197  10.8261051  13.5643768  17.7226830  58.8237610
  13.1360044  18.0342674  58.0264893  13.8388653  18.5205975  59.2756691
   7.7182069  24.8173523  86.0731812   7.2334490  24.2318249  85.4914627
   7.0590911  25.4295158  86.4003677  13.2256832  63.4998970  74.1987534
  13.3089828  62.5471153  74.1600266  12.2845898  63.6610031  74.1307831
   7.2959538  49.2148743   4.8050456   7.2659426  48.3818245   5.2755313
   7.8352509  49.0356407   4.0348077  81.1999741  63.5169640  44.3616104
  82.1262512  63.7030449  44.5152855  81.0314484  63.8513260  43.4806862
  67.4785004  32.9447250  72.6716919  66.9006653  33.1578407  71.9389420
  68.2798920  33.4378242  72.4960175  30.8959160  47.6252441  81.2387543
  31.4042664  46.9485931  81.6859207  31.3357124  47.7375526  80.3960266
  44.8380623  57.5301971  43.4516754  44.5266800  58.3932610  43.1789246
  44.0565109  57.0868645  43.7816277  30.4861298   0.4416845  57.2985001
  31.1708927   0.6866234  56.6761360  30.1681347   1.2753431  57.6450882
  21.9808064  56.9278984  12.7897177  21.2882595  56.3874626  12.4095297
  21.8110294  56.9071350  13.7315121  32.9701271   8.9201937  82.5597305
  32.3275299   9.1185532  83.2408676  33.6017799   8.3419962  82.9874344
  36.4350739   3.3583963  77.7091599  35.8600464   3.7688298  78.3550110
  37.2930756   3.7518592  77.8680573  31.8848591  15.9154329  67.2068634
  32.7971344  15.7715797  66.9552841  31.6583843  15.1497335  67.7347336
  18.3440723   1.5973930  74.2158203  18.0673409   1.0741966  74.9680939
  17.5818233   2.1369879  74.0059433  72.6617050  22.2955341  81.2593079
  72.1417313  21.5324554  81.5114288  72.1831512  23.0415268  81.6208420
  30.1239758  67.9614792   4.1605153  30.4534378  68.8403473   3.9726903
  30.0423470  67.9349594   5.1138597  69.0389252  65.5851822  85.5631180
  68.4442139  66.3199310  85.7137604  68.8671951  65.3193741  84.6597366
  42.3107109   1.2586006  23.1713943  42.1410446   2.2004416  23.1909218
  42.9030228   1.1372682  22.4293213  22.9021797  68.0534515  71.1204681
  23.3688908  67.3190613  71.5193329  23.5492554  68.4661942  70.5484848
  16.9030323  41.6813545  11.1493311  16.2600746  41.1812477  11.6520538
  16.7912121  42.5838432  11.4480696  41.2657471  59.2322388  52.7790031
  41.0925903  59.2339058  53.7204094  40.5493851  58.7195053  52.4046173
  49.1840744  71.7918625  54.9995155  48.4090042  71.3007202  54.7269783
  49.7168770  71.8575974  54.2070312  81.6915970  63.4911003  53.4722672
  82.5351791  63.0424957  53.5301247  81.8879547  64.4004593  53.6975441
  67.7113953  40.3243332   1.6302574  67.7385101  41.1126328   2.1725531
  67.7525635  39.6014137   2.2562966  34.2151146  59.0617561  70.0170288
  34.4242783  59.5983772  69.2524948  33.2705193  58.9186134  69.9580002
   8.0725451  19.7995529  51.1108971   7.9424605  18.8869228  51.3686142
   8.9455376  20.0183678  51.4368362   5.3503518  36.6879272  67.6664810
   5.3115301  37.1654701  66.8378220   6.1983275  36.9265633  68.0409470
  45.3983116  43.7631683  65.4074631  45.9841499  43.0881348  65.7500381
  45.9398651  44.5513039  65.3651199  69.4189224  13.6248541  35.6759834
  70.3652573  13.5145550  35.7683334  69.1762390  13.0283289  34.9678230
  39.0268173  32.2437706  56.0672913  39.9124641  32.0926971  55.7370796
  38.4582405  31.7935085  55.4426193  68.6241608  47.4381027   3.4756804
  68.3298035  47.2729340   4.3713961  68.4529877  48.3693390   3.3351979
   6.8118911  27.6194019  73.3155136   7.2857285  26.9105892  72.8804398
   7.0906334  27.5679874  74.2297897  48.9980812  49.1673813  47.2800217
  48.6503448  48.3743820  46.8720245  48.8513565  49.0386925  48.2171135
  65.9117203  14.8954496  54.0441093  65.7990112  14.3378210  54.8139000
  66.1802979  14.2937870  53.3497734   0.8265395  59.9125328  42.2290840
   0.4587494  59.1329117  41.8129692   1.1560308  59.6011887  43.0721359
  79.6332932  20.3423004  25.3364067  79.6681442  21.1559296  24.8333912
  79.1219406  20.5636063  26.1147156  72.5512314  32.6155624   8.9950438
  73.1086960  33.2123108   9.4943943  72.3119583  31.9315681   9.6204510
  19.8956814  57.4653244  76.8656540  20.5688038  58.1087914  77.0872116
  19.3840542  57.8828354  76.1727219  23.8465347  58.2863922  82.1652298
  24.0058784  58.2346458  83.1076508  23.2604790  59.0361633  82.0622177
  85.3895416  60.5197906   4.4360919  85.9108429  59.8974686   4.9432387
  84.6668549  59.9982376   4.0868888   2.0639801  63.1158524  83.5543213
   1.7854631  63.5451202  82.7453766   1.6469029  62.2548141  83.5244141
  64.3931122  60.2135315  65.6982956  64.9635468  60.8968430  65.3462524
  64.8169632  59.9439735  66.5131073  58.7600975  62.6903000  23.3864822
  59.5420761  63.0526276  22.9699955  58.3366890  62.1788330  22.6970196
  75.3292084  12.9172049  23.1218586  75.0562134  12.8638668  24.0377522
  76.2854996  12.9380722  23.1577950  14.3128433  42.3654671  42.4744034
  13.9519205  43.2195587  42.7120934  14.9842386  42.5625343  41.8212357
  31.4973431  67.5645523  28.9406567  30.5554600  67.6117554  29.1045494
  31.7088051  68.3966599  28.5174294  28.1248093  65.8197098  39.9235992
  27.6940956  65.8445435  39.0691376  27.9630356  66.6854095  40.2986069
  54.6970673  24.5042839  88.0547485  54.8170624  24.1080742  88.9177933
  55.4056244  25.1439819  87.9842682  42.3755264  49.3047943  60.7704124
  41.5880318  49.1851845  60.2395821  42.1592255  48.9056778  61.6131210
  28.4568157  33.6046906  16.4755135  28.3115997  32.7448997  16.0806656
  28.0449619  33.5450325  17.3375168  60.4630470  29.8198967  50.5826149
  60.2759018  28.9083138  50.3585052  60.9039803  30.1710625  49.8089905
  54.6895981  18.6288662  22.6767426  55.1286469  18.2890739  21.8969936
  53.9774895  19.1691513  22.3343563  23.6617851  29.5424957  80.7431717
  23.1017780  28.8203526  81.0280075  23.7922058  30.0697231  81.5313644
  61.0231819  32.3706474   2.8452306  60.9186821  32.1821480   1.9126107
  61.2296333  33.3047028   2.8791347  67.9484711  29.3413048  17.3846664
  67.0860596  29.4801540  16.9932480  68.4368439  30.1379032  17.1769295
  46.7995338  15.4884367   7.0729089  47.2175179  14.8870516   7.6892343
  47.1929817  16.3396950   7.2647209  41.7513008   4.2748513   2.0901799
  41.3270645   4.3279853   1.2337732  42.6422997   3.9823451   1.8983613
  25.2462292  49.8220863  51.8285904  24.3391380  49.7636375  51.5285873
  25.2666569  49.3025131  52.6322441  33.1235161  19.8592892  68.7033768
  32.5177383  19.7891846  69.4411774  32.8208771  20.6261692  68.2170258
  37.7036934  59.0396347  67.2565994  38.6349297  58.8338928  67.3384476
  37.5870781  59.2583008  66.3320312   8.9187546  20.0210438  69.0382004
   9.2093210  20.0969067  69.9470749   9.1344271  20.8673191  68.6463699
  40.5971222  46.1936455  12.3043442  41.3547783  45.8432045  12.7727213
  39.9210892  46.2839012  12.9759588  10.6386318  17.7408047  61.8970680
  11.1146507  16.9529266  62.1595306  10.3544989  18.1348667  62.7218208
  19.0821552  13.0350933  86.4137878  19.3411274  13.9334106  86.6191864
  18.1416855  13.0106487  86.5902863  73.1301651  46.9071693  10.5112400
  73.8597183  47.1807556  11.0672388  72.6371384  46.2885742  11.0502138
  51.5462227  30.0488319  11.4580584  50.8930016  29.6255360  10.9009638
  51.6988335  29.4230595  12.1661205  77.2057190  39.4277992  50.5862961
  78.0463943  39.8454552  50.7735558  77.3404770  38.9827690  49.7496262
  52.3004761  67.0844116  39.0256729  51.4673119  66.6968460  39.2937469
  52.8766479  66.3346024  38.8771667  11.7331762  49.3347740   1.0731531
  12.5404329  49.4763298   0.5786536  11.8738976  48.5048981   1.5289353
  61.1556931  18.6139297  65.0989685  61.9073906  18.2223091  64.6542053
  61.1702271  18.2310486  65.9761353  77.3670654  40.6437225  11.7838211
  76.8160706  41.2197380  11.2538700  78.0704727  41.2102394  12.1008434
  79.2087173  51.4637032  44.1062279  79.3038025  50.8942986  44.8697548
  78.2803497  51.6966248  44.0952835  69.5320053  20.8094997   4.8991442
  69.3893585  21.2345657   5.7448401  70.4238129  21.0564556   4.6543550
  12.6082506   9.2285280  25.8445721  12.1028976  10.0194683  25.6567841
  13.3011436   9.5218573  26.4362545  42.6947784  30.2999897  77.1846848
  42.0980148  30.6521111  77.8450775  42.9569397  31.0620060  76.6681213
  81.4636002  30.2900887  30.4489841  81.5443954  29.9074326  29.5753250
  80.7520752  30.9251575  30.3674431  39.4298782   2.1080093  34.5657616
  39.8622513   2.0520978  35.4179153  38.4950180   2.1117306  34.7713089
  80.4948044   1.5024140   4.0393171  80.3420410   1.3955392   4.9781852
  81.4465179   1.5629972   3.9568794  58.7858696  26.6910038  65.7059250
  58.5044594  25.8450661  66.0543976  59.4287109  27.0092525  66.3397293
  67.2487335  37.8231354  38.4821892  68.1230164  38.0405045  38.1587486
  67.4061432  37.2385635  39.2236290   7.5492916  38.2906227  18.6492233
   6.7312770  37.7963257  18.7016888   7.4103713  39.0450935  19.2216816
  48.8397751  14.7524967  18.0902138  48.3551254  15.4691887  17.6807041
  49.7595711  14.9616575  17.9275417  59.3205910   0.7288782  48.2852783
  59.6523476  -0.0436406  47.8276939  58.7134438   0.3787526  48.9372101
  33.9997520  38.9759979   4.9215231  33.4411507  39.4551773   4.3094902
  33.5522614  39.0522537   5.7642379  25.0525761  30.8896236   0.8997457
  25.2408905  30.0650082   1.3478277  24.6631050  30.6257324   0.0661352
  65.8395081  52.1801147  65.1645889  65.1976700  52.8776169  65.2978821
  65.3162003  51.3805847  65.1085968  74.1029053  69.4160461   1.7205453
  74.8722687  68.8603287   1.8450027  73.9552612  69.8161163   2.5775023
  36.1279030  20.4470882  85.6288223  36.6536102  20.7903938  86.3513260
  36.6465797  19.7230492  85.2781448  55.7483063  19.8727245  12.3243856
  55.2103500  19.3700752  12.9360857  55.3676262  19.6906815  11.4652147
  72.9522247  17.6884689  52.1228676  72.4388962  17.8735027  51.3364258
  73.8489761  17.9233208  51.8843155  51.7332535  54.7565269   0.6087269
  51.2503128  54.2671127   1.2746676  52.6190987  54.8331490   0.9631866
  48.7642746  64.4282532   3.3675940  47.9220619  64.6299667   3.7752998
  49.4154091  64.7338333   3.9991601  14.9447155  42.7834930  73.8200531
  15.2704048  43.5470009  74.2967148  14.3846798  43.1494942  73.1354828
  62.0908813  54.0439720  62.3197403  61.4154663  53.4389534  62.0131531
  62.0809212  54.7573814  61.6816368  46.6169205  51.0621452  64.6365280
  47.0604095  50.3038750  64.2563019  46.3869858  50.7852592  65.5234833
  85.3002625  14.8782911  61.7053261  84.7388840  14.3325176  62.2559700
  85.9519196  15.2362814  62.3081703  57.5920715  51.5285187  10.3272791
  58.5355530  51.6703987  10.2501421  57.2088051  52.0991364   9.6611443
  61.8940315  51.3875122  82.6474457  62.8294830  51.2320366  82.7777939
  61.5093346  50.5120354  82.6051712  68.3649063  24.4839821  10.3325586
  69.1498795  24.1120796   9.9303913  67.6564865  23.9015064  10.0585260
  19.3375454  49.8582497  10.0521574  19.4310760  50.3975601   9.2669010
  19.6741428  48.9999580   9.7947311  31.8694363   7.1562138   7.9166832
  32.5540085   7.2272058   8.5819292  31.2968063   7.9053469   8.0813808
  83.4040451  20.7031384  42.7011566  84.3181076  20.9566479  42.5728722
  82.9664841  20.9668541  41.8916969  30.1651325   4.0486345  16.3922672
  29.5780334   3.8769088  15.6560221  29.7735596   3.5752749  17.1263180
  10.8241405  32.0271606  20.0317440  10.0164490  31.7014103  20.4289265
  11.5234661  31.5975246  20.5242748  84.3803253  26.1926079  77.7638321
  85.0212860  25.5757637  78.1172562  84.9008636  26.9469433  77.4876938
   7.4635634  59.5723038  50.6176338   6.7530508  60.2122078  50.6615524
   7.1081038  58.8554001  50.0923424  47.7198105  50.0974159  13.7528543
  47.1233292  50.8442764  13.7014780  48.5662231  50.4821014  13.9805212
  69.2560501  12.4359932   5.7058802  69.5106354  13.2246313   6.1849093
  69.9672012  11.8164730   5.8692727  61.1159363  34.8867874  48.5343513
  61.7513428  34.7026863  49.2261581  61.3258514  34.2588692  47.8430557
   5.0204835  57.6624680  49.6049538   4.9911938  58.1282997  48.7692680
   4.1441774  57.7756195  49.9730797  56.6526337  30.7004471  15.0573778
  55.8993263  30.1425896  15.2511740  56.3001099  31.3935318  14.4991732
   0.9652861  43.8865623  50.6379318   0.0130364  43.8144493  50.7031441
   1.2058038  43.2668762  49.9491844  48.0394173  63.0997162  59.0716591
  48.0695152  62.4822617  59.8024635  47.8428574  63.9433861  59.4788589
   8.1753101  53.2490196   0.4149301   7.7172627  52.9132767  -0.3555893
   8.2847328  52.4845810   0.9805181   9.2874880  40.2210693  81.0062408
  10.0731554  40.6749954  80.7014313   9.6150150  39.5549011  81.6105423
  67.7504196  48.1881447  16.5918274  67.7663879  47.4693336  15.9599361
  68.6730423  48.3787842  16.7610970  81.5224380  15.3921156  30.9842854
  81.8412247  15.5901070  30.1037159  81.1945953  14.4948187  30.9242020
  55.2788010  31.9813118  13.0342255  54.6581650  32.6788063  12.8231640
  55.8215828  31.8983383  12.2501755  75.1110916  43.3359184  35.8587151
  75.7941895  42.7035179  35.6358147  75.5493546  44.1859512  35.8186836
   7.7744555  38.1239281   3.6422489   7.5056777  37.3446808   3.1556654
   8.1921015  37.7807999   4.4322267  66.7699127  43.6826744  71.4425201
  67.2486572  43.1987534  72.1154556  65.9555054  43.9463463  71.8708420
  52.4167366  60.8565102  25.7391796  52.9640274  60.3876457  25.1091976
  52.4634972  61.7716866  25.4626007  78.3014221  29.2409725   5.9018784
  77.4095306  29.5386486   6.0812049  78.2815933  28.9630852   4.9861174
  32.7717323   4.9960752  72.6877441  33.7191010   5.1043024  72.7714767
  32.4116478   5.4322357  73.4599686  10.7889614  34.2237701  15.7931767
  11.1989326  35.0438423  15.5181503  10.3179436  34.4487610  16.5955181
  55.7678490   1.1713480   2.9526253  55.6075325   0.8733899   3.8480310
  55.1818848   1.9199251   2.8407707  73.5954971  13.9156046  33.7897530
  74.1621094  13.3325968  33.2845001  72.8248444  14.0399389  33.2357941
  71.4385529  65.1828842  17.8188038  70.9999771  64.9104309  18.6248112
  72.2292633  65.6326599  18.1166553   1.5576406  40.8534088  20.5189285
   1.7104645  41.7359848  20.8564796   1.0144954  40.9849205  19.7417984
   5.3406143  70.1810608  77.6677551   4.7191796  69.6288300  77.1933212
   6.1557751  69.6793213  77.6672745  61.5352859  31.5382977  26.8877392
  60.7266083  31.7211685  26.4093742  61.2999153  30.8390694  27.4975853
   9.8974638  13.6842842  66.2798386   9.5067463  12.8107681  66.2565918
   9.9317379  13.9066458  67.2102280  59.5995903  22.6449032   6.8063331
  59.6451492  23.0171909   5.9256749  58.8064919  22.1090164   6.7990937
  74.5825577  46.4683800  58.3305359  73.7795792  46.1079521  58.7067604
  75.2252121  45.7644577  58.4184151  69.4166183   9.0705347  14.5103445
  68.5180435   8.8734713  14.2458324  69.8186569   8.2131672  14.6500521
  57.8544159  16.2337742  16.5404758  57.8547401  15.9875088  15.6154966
  58.6826744  15.8938656  16.8791199   7.4198027  34.8410187  35.0350647
   8.0221815  35.1890793  34.3776245   6.8229895  35.5659790  35.2207565
  46.2503128  22.9158974  82.6411972  46.1069260  22.0888557  82.1811142
  46.3345451  23.5663376  81.9440079  59.6948204  70.4941025  64.1710281
  59.9757080  70.3686676  63.2646065  59.9720535  69.6956863  64.6203537
  50.7916603  37.4213829  75.3028564  50.0439606  36.9022446  75.5989456
  50.4004517  38.1642609  74.8431549   4.1556177  67.9432602  13.6055784
   4.4321933  67.9859467  14.5209560   4.0578361  67.0077209  13.4282942
  31.2775116  32.1006889  64.2797241  31.9567566  31.8130989  64.8897629
  30.5575638  32.3883209  64.8411255  68.9672394   6.0867996  50.7553596
  68.7034607   5.1699858  50.6772346  68.3799744   6.4493055  51.4186401
  85.0852356  26.3192673   2.9745131  84.5559998  25.8782597   3.6390798
  85.9898758  26.1448879   3.2342396  18.4118748  36.4211502   7.4877987
  18.6935406  36.9935684   6.7741928  17.6299229  35.9844131   7.1500988
  61.0307541   1.9842119  35.7461700  60.9013672   1.0362822  35.7158356
  60.4274940   2.2866833  36.4250069  16.1839142  11.5063276  14.5239496
  15.9028807  10.8344669  15.1451216  15.5791054  12.2340546  14.6683512
  79.0028152  55.6977654  18.2627811  78.9599991  55.5138130  17.3243999
  79.2412949  54.8603439  18.6603756  10.0300207  14.5311852  68.7871323
   9.9780798  15.4866343  68.7616272  10.9534187  14.3459997  68.9582291
  71.3800735   0.4924955   7.7481880  70.4308167   0.5669540   7.8461781
  71.6849518   1.3968738   7.6748633  14.9010267  44.0110207  39.7933502
  15.5109396  44.7365723  39.9267998  15.4563522  43.2760849  39.5331230
  53.7122269  15.6456099  67.8496246  53.9855385  16.3664436  67.2822342
  53.6501083  14.8905849  67.2645493  54.5321960   1.7576497  22.5209961
  55.1141205   2.5072367  22.6463737  54.3746300   1.7319838  21.5772038
  36.0574989  17.1071110  87.6386871  35.3536110  17.4004555  87.0601349
  36.0777397  17.7579193  88.3403091  72.1543274  67.4028168  19.9057350
  71.8056793  68.0799255  20.4855652  72.8731689  67.8318481  19.4415817
   9.1892128  27.6315937  59.8052444   8.5129280  27.9643021  59.2151794
   9.3928738  28.3713856  60.3774872  82.0160141  21.1227913  86.5926666
  81.9240189  22.0617790  86.4311981  82.6234055  21.0649643  87.3302002
  12.3075008  56.0558281  79.8700409  11.9965506  55.5774536  80.6386185
  13.2073164  56.2993889  80.0873947  11.9217186   3.9152122  19.3620663
  12.6791563   4.4151669  19.6663113  11.6094198   4.3961773  18.5956631
  55.6318016  21.8106117   4.2829442  55.2628288  21.2889595   4.9956656
  55.9432793  22.6099319   4.7075620  18.3266029  39.0735588  33.4446564
  18.2067375  39.5771179  32.6394920  18.3286190  39.7310600  34.1403008
  83.6619415  13.3121414  22.5477753  83.2930298  13.7803659  23.2967129
  84.2850494  13.9286222  22.1631718  11.7636786  62.1232224  60.9567223
  12.0949316  62.3996773  61.8111687  11.0879450  62.7663651  60.7422905
  37.7746277   6.5948205  66.9448318  38.2648582   7.3941960  66.7527237
  37.7418594   6.1275129  66.1100922  44.9659729  62.5887032  77.5255280
  45.4391441  61.7592812  77.5918427  44.1075401  62.4059372  77.9075165
   8.8152580  43.6508636  35.5103607   8.3025942  44.0906258  34.8321114
   9.5764484  44.2165985  35.6398315  67.4924622  67.9463348  36.9847069
  68.1501923  68.5980148  37.2274704  66.8906326  68.4168167  36.4079285
  77.0639954  16.6241093  89.0288391  76.2368393  17.0318756  88.7723770
  76.8480911  15.6993141  89.1487198  79.0527878  16.4009495  32.2122612
  79.0710373  15.8747644  33.0116539  79.8478470  16.1499023  31.7420692
  81.7946396  46.4740524  24.3362103  81.5121078  46.4665604  25.2507324
  81.6901474  45.5679741  24.0458126  38.8490639  33.0045509  38.9835548
  38.9241753  32.2516327  39.5698128  38.0371361  32.8516846  38.5001945
  15.3981485  44.2067757  34.7926483  14.7756472  44.3583717  35.5038033
  15.2221031  43.3102188  34.5072937  57.5810890  62.7233200  59.9932518
  57.0734596  61.9133682  60.0434647  57.7257118  62.9723244  60.9061127
  68.7268906  27.6360130  22.7421284  69.1462479  28.1660042  22.0642757
  68.4519730  28.2691517  23.4052906  46.3788490  60.8477211  70.3160172
  45.9412537  61.5347290  70.8187714  46.0623817  60.9676704  69.4206467
  48.4215240  70.7411957  68.7839813  48.9381409  70.9814529  68.0148163
  48.9798775  70.9675598  69.5277786  68.1808472  26.4717464  58.7827530
  67.5678635  27.1889210  58.9444351  68.4170914  26.5621185  57.8595772
  85.6735458  24.8170834  82.5138702  86.2697525  24.1359386  82.8250122
  85.7617950  24.7956505  81.5609894  49.8988380  28.7842827  27.3767643
  50.0683975  29.6938381  27.1314297  48.9916382  28.6302414  27.1131477
  49.0379715  68.7197113  46.3394547  49.0640488  68.1214142  47.0861778
  49.5378418  69.4836655  46.6270790  31.5319023  68.9492416  85.8421783
  30.7341366  69.1495743  85.3526154  32.1678658  69.5973816  85.5393677
  72.0753403  61.0682144  12.8561783  72.0348053  60.8408241  13.7850924
  72.0257721  60.2274170  12.4013901  44.8718147  62.7882843  14.3580303
  44.8201981  62.6722984  13.4092875  45.6107483  62.2421455  14.6262426
  63.1357117  44.8856468  81.6302719  63.5736427  44.7232552  82.4657822
  63.8500824  45.0225716  81.0080566  52.8140793  23.1854706  60.1582489
  52.8797264  22.6618366  60.9568291  53.7167511  23.2669678  59.8503952
  85.6410370  41.3157539  37.0607109  85.6428146  42.0565872  36.4545822
  84.8174515  40.8619270  36.8818474   8.1575003  16.6582851  24.0435066
   8.2378464  16.0988064  24.8160095   8.9387999  16.4649162  23.5254230
  75.3461838  16.7253094  62.8137131  74.5202789  17.1213970  62.5358124
  75.1109467  15.8320332  63.0646172  69.6863022  68.6609192  57.0411186
  69.8968887  67.7274857  57.0168037  69.4933395  68.8867035  56.1311646
  23.3103371  28.6451664  15.8515987  24.0891418  29.0016079  15.4242277
  23.6099262  28.3954868  16.7257481  81.3080139  70.4332581  40.6743469
  81.0312347  70.3530273  39.7615547  80.4928131  70.5488205  41.1625366
  15.7770844  64.5118713  73.6690521  15.0644779  64.0441513  74.1045532
  15.5195065  64.5363770  72.7474823  57.4664268  58.3941765   0.0067402
  57.7141762  58.2350121   0.9175193  57.8978767  59.2184563  -0.2182980
  50.7788773  50.5961723  19.1500149  50.7229881  50.0306816  19.9202919
  50.4961967  50.0403404  18.4238110  49.2703972  55.9843636  74.7358017
  49.8012848  55.1919250  74.6555710  48.4565582  55.7748413  74.2775421
  78.7379456   6.4301920  48.7057304  78.1186066   5.8962007  49.2032280
  78.6894760   7.2951078  49.1129189  34.6774750  68.1190491  56.9307938
  34.4410172  69.0402756  57.0387764  34.6429787  67.7575226  57.8164215
  77.1951447  69.1444702  82.4124603  77.2561111  68.2267303  82.1473541
  76.4066696  69.1855698  82.9536057  15.7155428  43.1949806  17.6070824
  15.7446947  43.8836212  18.2712803  16.6130829  42.8650627  17.5645771
  77.4536285  55.6307945  33.2348099  78.1369629  55.1724167  32.7457542
  77.6556244  55.4521790  34.1532478  58.2220802  34.8343048  49.2641373
  59.1391869  35.0561295  49.4252167  58.2570152  34.0157318  48.7692146
  14.1686897  57.5659065  64.8792343  13.7682991  57.9029808  65.6806717
  13.7680588  58.0787773  64.1773148   3.1280680  43.4997101  34.5075836
   3.0341525  43.7790565  35.4182854   3.4819105  44.2665825  34.0571022
  43.4960327  52.7086792  88.1166306  44.2870560  52.1711159  88.1558456
  43.8058586  53.5708237  87.8392334  80.9185562  56.2204361  47.7931671
  80.8335495  55.3460808  48.1733055  80.0577011  56.6202049  47.9170570
  81.4519806   7.5947037  40.8043900  80.4972229   7.5302200  40.8270073
  81.7369385   7.2238097  41.6395340  33.4276772   7.7908473  18.2559052
  32.8607788   7.0215869  18.2002583  33.4502983   8.0047321  19.1886292
  80.7542877  50.6623344  28.5850677  80.1879654  49.8988457  28.4728451
  80.2704468  51.3812637  28.1785297  46.9926071  47.3920860  60.1875648
  47.6426582  47.5851936  60.8631172  47.4856453  46.9397278  59.5030785
  82.0307617  55.9018021  65.3675613  81.5266800  55.5252609  66.0889130
  82.6741257  55.2280502  65.1476288  87.0341110   6.5062838  45.2587090
  86.1778259   6.9315748  45.3049240  87.0087280   6.0046587  44.4438705
  81.2152557  60.1981850  73.7170105  80.9815140  60.9440460  74.2695389
  81.9532318  60.5100861  73.1932373  57.9417953  12.3353710  30.5749340
  57.3700752  12.5336161  31.3165989  57.5346375  11.5780020  30.1543999
  85.8694534  32.7468109  51.1388435  85.9950790  32.9280128  50.2073822
  86.6928787  33.0131340  51.5478363  18.5949059   6.7652826  18.8968716
  19.0023384   6.2012920  18.2394924  18.2554493   6.1590934  19.5553055
  41.0612335  67.1115265  47.6592903  40.6675415  66.8041458  48.4758415
  40.4431763  67.7616501  47.3252640  70.0252304  38.8018799  17.6508770
  69.7158966  38.7409134  18.5546627  70.6585999  39.5194778  17.6623936
  53.9421005  55.7475471  31.7904243  53.0013428  55.8248253  31.6315575
  54.1055984  56.3169098  32.5423050  52.4018555   5.1742172  30.5466423
  52.8527603   6.0113792  30.4367409  53.0541954   4.6020622  30.9507771
  33.9118805  66.7067490  71.1721878  33.6518631  67.6213913  71.2819290
  33.9197235  66.5720215  70.2245483  65.9682083  24.5088196  55.8085709
  65.7420807  24.3148136  56.7182198  65.5243301  23.8292313  55.3012581
  49.3190575  41.0291557  66.3991699  49.4976540  41.7463646  67.0074005
  49.6256371  40.2458115  66.8559113  -0.1679531   9.0044947  55.0857277
  -0.1884090   8.8796749  54.1369209   0.7634413   9.0112677  55.3063889
   6.7431421  13.9781361   5.3140841   6.8536000  14.3745251   6.1783214
   6.2165065  13.1952391   5.4752002  11.1133442  48.0048409  28.5998020
  10.6662741  47.2365723  28.9549332  12.0263968  47.7312851  28.5118675
  66.1121445   1.9498142  28.6632271  66.1667175   2.3459857  29.5328827
  66.4146652   2.6357903  28.0681229  58.5048866  18.7636395  87.3756180
  57.7898865  19.2643471  86.9828110  59.1164322  19.4280758  87.6930542
  26.3388367  61.8856888  14.0352850  26.4723854  62.8262939  13.9184036
  25.3945522  61.7915955  14.1606016  51.9073486  49.4328461  54.9194374
  51.2623100  48.8020821  54.5996017  51.3845863  50.1303101  55.3150368
  23.8370647   4.8627191  14.7086439  24.3055058   4.6619453  13.8984060
  24.4872169   4.7342515  15.3993177  31.8404751  30.8759117  67.4182053
  31.6459618  30.7537842  68.3474426  32.7777481  31.0685787  67.3930054
   3.4419448  25.3846035  27.7090778   2.8429255  24.6514645  27.8501892
   3.7967360  25.5745907  28.5775585  42.7560806  22.1588650  10.2191820
  43.0724449  21.4501476   9.6589441  42.3349915  22.7712460   9.6159353
  75.5866928  29.8076115  18.7347069  74.8138809  29.2511597  18.8314381
  76.0649490  29.4273243  17.9979000  65.7094879  51.4432983  24.0845451
  66.0974121  50.6971054  23.6274452  66.0660248  51.3926163  24.9714184
  38.5323715  45.3770256   1.0831780  39.4547958  45.2124405   0.8875458
  38.0823936  45.2387390   0.2497328  11.0188646  51.7521782   1.6957859
  11.0795593  51.9053001   0.7528643  11.4762220  50.9226913   1.8336610
  38.0715179   6.3602896  85.1677170  38.3421745   5.4538708  85.0214996
  38.0967407   6.7609301  84.2987595  83.7626190  21.6469898  10.9116697
  82.9798813  21.9960556  10.4853992  84.4000168  21.5547409  10.2035398
  67.0714951  54.5415535   2.5813472  67.3210068  53.7467957   3.0528719
  66.4411926  54.9739761   3.1575119  13.0766459  58.0123596  13.6379271
  12.5123901  58.1587753  12.8787107  12.9926863  58.8124619  14.1565962
  40.8261337  66.1644516  41.1168480  40.0060043  66.6027451  40.8898773
  41.4372101  66.4286499  40.4290886  75.1995468  13.9822102  59.1393929
  76.0698624  14.3027096  59.3761826  75.3650665  13.2915163  58.4976959
  -0.0942349  69.0266037  82.6418839   0.8354612  69.1553726  82.8298111
  -0.4436074  69.9123154  82.5434418  67.8515396  59.2978554  87.9319916
  68.1928482  59.7399979  88.7093277  68.6289597  58.9572983  87.4894180
   1.3272847  25.5035172  84.9069824   2.0165212  26.0266380  85.3162842
   1.3436471  25.7642155  83.9861145  23.9487839  43.6618385   1.1898185
  23.9268169  42.7928276   0.7891043  24.6679497  44.1118813   0.7465405
   8.3118973  27.4011726  21.7131462   7.7255244  26.7439137  22.0878544
   7.7857394  27.8373070  21.0429382  76.1217041  36.7427864   3.7853112
  76.7082214  36.9912949   3.0708375  76.7052536  36.5605469   4.5218482
  78.0932236   3.4315193   2.2586863  77.2344437   3.4227962   2.6813633
  78.6908112   3.0890141   2.9233737  59.4510307  33.1970520  73.9888000
  59.8369827  34.0242348  74.2769699  59.9629936  32.9492188  73.2189331
  79.2644653  40.3862762  65.7983246  78.7310410  41.1544647  66.0022430
  80.1567307  40.7258110  65.7290344  16.7999878  27.5890923  31.6055641
  16.3750134  28.0524673  32.3273087  17.6748161  27.9743481  31.5556889
  59.7296448  53.8350372   4.6598644  59.4091187  54.7072868   4.4303493
  59.6066246  53.7762909   5.6073070  67.7074661  12.5428619  61.3439713
  68.4312973  12.2753668  61.9103127  67.5742569  11.7980824  60.7576370
  71.3248138  34.8501282  38.1806297  71.4818497  34.9666214  39.1176453
  71.4893188  33.9202690  38.0239944  61.2039261  33.9531021  88.2217865
  61.4008293  33.1572075  87.7278061  60.5069733  33.6944809  88.8247757
  52.3345947  14.3037643  45.2264404  53.2116203  14.1930256  44.8592949
  51.7554436  13.8740330  44.5970383   7.9684806  24.1544933  50.1616821
   8.5679846  24.5800114  49.5486908   8.4805117  23.4399185  50.5404167
  80.1436844  60.8013496  35.4062119  81.0187836  61.0693626  35.6865654
  80.0954514  61.0647430  34.4872284  43.1758881   6.5782776  75.6957397
  43.3856621   6.5417767  76.6289597  42.7864647   7.4438043  75.5714645
  46.5816689   6.3145595  84.3898773  47.0237808   6.9317608  84.9728317
  46.9328308   6.5117307  83.5215225  72.0301132  38.9598198   9.2822857
  71.6505203  39.4033775  10.0408335  72.1159515  39.6468086   8.6212912
  58.9989662  12.8027830  80.7242584  59.0407219  13.7078924  81.0329056
  59.1001740  12.8686256  79.7747040   0.6264204  64.5049744  26.1165810
   1.1092966  65.3267517  26.0285683   0.7759911  64.2351532  27.0227013
  80.4402924  17.5420914  13.8109016  80.9398346  16.8236065  13.4229889
  80.2903671  18.1485119  13.0856390  51.0303307  53.6669769  74.2185898
  51.0278473  52.7113380  74.2731628  51.8038635  53.8749466  73.6945419
  65.9515152  28.9704781   4.1071310  65.9822464  29.5062981   3.3145506
  65.3792648  29.4552345   4.7019186  23.1154766   3.1999867  55.8752747
  22.5499630   3.4281802  55.1374702  23.3375607   4.0405369  56.2757568
  80.0454712  41.8772926  69.7045670  79.3963776  41.2561111  70.0347748
  79.5431976  42.4793396  69.1554871   1.8964553  52.0968666  70.3315735
   1.5772734  52.8369102  69.8151474   1.1068019  51.7113571  70.7111282
  79.8687973  14.2448988   3.9114430  79.2223892  13.7870941   3.3740404
  80.6966629  14.1220541   3.4469163  63.5802956  47.3969803  18.9395370
  63.9711075  48.2699432  18.9016552  63.7413979  47.0246124  18.0725765
  79.5756760  48.2780113   5.1580896  80.5091019  48.3459587   4.9572825
  79.3825989  49.0644722   5.6684160  12.9661102  17.7178574  88.3181915
  13.4396305  18.4805470  88.6503220  12.7567501  17.2067871  89.0999908
  26.1351318  69.8591080  29.2977924  26.4687691  69.9979248  30.1841602
  26.4770069  70.5981979  28.7947025  58.9231453  33.0903397  78.3937454
  58.6077576  32.2566414  78.0448685  59.8749428  32.9930649  78.4228973
  26.4414120  59.3580017  81.5112457  25.7005901  59.0385513  82.0263824
  26.8603325  58.5649529  81.1768570   2.5164075  71.0104065  25.2954502
   2.8782883  70.4179611  24.6364536   2.8975980  71.8631058  25.0860806
  49.6251602  55.2043495  47.5171242  49.9305840  56.1110535  47.4881401
  50.0377769  54.7883148  46.7602272  44.0871124  50.5410118  38.1682281
  44.8592682  50.2724380  37.6703568  44.1616859  51.4932594  38.2306786
   2.6678424   7.4542203  61.6053314   2.1567349   6.8227282  62.1115112
   2.0279064   7.8749609  61.0311432  67.1634979  32.1278381   2.6744277
  66.7010345  31.4834175   2.1386302  67.0695343  32.9504280   2.1940610
  85.4708328  24.1132278  44.5225067  86.3235855  24.3204308  44.1402702
  85.6005630  23.2686558  44.9538956   0.2496697  32.7595024  59.7271347
   0.9307072  33.3808174  59.9847908  -0.0081247  32.3339691  60.5448761
  84.2233200  60.3902855  66.8872757  83.9129486  59.4849205  66.8723831
  84.1489029  60.6839561  65.9792862  18.6183529  57.1777878  32.7340927
  19.4522743  57.6470184  32.7591743  18.0164299  57.7324066  33.2303963
  50.9466476  68.0810089  64.6704025  51.3803139  68.1114349  65.5231857
  51.5913506  67.6791992  64.0880508  45.0484200  68.6990509   6.5141783
  45.0384064  68.9513168   5.5908732  44.1491585  68.4274673   6.6980357
  56.9638901  30.6669655  79.3683395  57.1296539  30.9720821  80.2603378
  57.7751312  30.2293510  79.1102524  86.0667877  51.4854660  25.0911331
  86.2522812  51.0871124  25.9415092  85.7427139  50.7627335  24.5536690
  32.0185852  45.7080460  14.2427320  32.6165199  46.1904488  14.8136921
  31.5470943  46.3875465  13.7608538   0.5009628  71.0624008  46.0748825
   0.7664540  71.9404678  46.3482666   0.0614887  71.1956635  45.2350388
  61.9858093  49.1367874  87.8027802  62.4330444  48.8943253  86.9919662
  62.3675156  49.9808922  88.0436630  71.2346573  18.8711929  72.3022842
  71.0545959  19.4316826  73.0570450  70.6541901  19.2000198  71.6158676
  34.9012489  52.6265030  78.1653748  34.0145187  52.9259872  77.9647675
  34.8203697  52.1893463  79.0130692  35.8530235  29.1862926  66.5387421
  36.3546638  28.9770756  65.7508240  35.7368736  30.1357708  66.5036469
  59.1655426  32.3467789   0.4220370  59.0469627  31.8242073  -0.3711143
  58.2785149  32.6020660   0.6755061  85.3359680  65.3521729  72.8671722
  86.0874481  65.9304581  72.9979401  84.6124878  65.7957535  73.3099365
  37.1362572  67.4568710  75.4870224  37.2373581  66.6426086  75.9799652
  36.9210472  67.1737213  74.5983505  45.9951820  54.9976883  63.9832993
  45.3499947  55.3140450  64.6156616  45.9467430  55.6217499  63.2591248
  77.5702667  18.8428898  13.8817883  78.1125259  19.3682423  14.4701700
  76.7277756  19.2968731  13.8632364  37.4750252  66.1407471   0.9910011
  37.7465820  65.5368347   1.6822128  36.5495186  66.3079987   1.1690513
  83.1199799  28.0217094  82.6508713  82.8800812  28.7783012  82.1158524
  83.5259933  27.4118347  82.0348816  79.5673752  64.7492752  77.2952881
  78.9987183  64.3870392  77.9747314  78.9646530  65.0698700  76.6243362
  54.7080612   2.5619664  47.4468040  54.0298042   1.9281038  47.6800728
  55.5313988   2.0946298  47.5880470  20.7089806  64.4886475  76.5097504
  20.1377316  65.2299805  76.3089294  20.7501087  64.4701004  77.4658890
  63.5803642  22.2574406  85.1430664  64.2133102  21.8530312  84.5497131
  63.5317230  23.1693039  84.8560638  55.3278809  47.2695084  22.6239357
  54.5956001  46.7653198  22.2692680  55.6700516  46.7272911  23.3346748
   6.2703962   6.4964933  69.7054214   6.4626627   5.7310500  70.2470474
   6.2575412   6.1590185  68.8097763  25.0029640  68.7315369  68.9867859
  25.7195797  69.2169037  68.5779953  25.0429287  67.8629990  68.5864410
  29.9153271  19.4826069  66.5885086  29.8924370  19.8857327  67.4563751
  29.2040977  19.9068661  66.1085129  51.6555176  56.1362000   6.1234345
  51.6785736  55.3110619   5.6388221  50.7239113  56.3059578   6.2631545
   1.0193509  54.6027603  24.9458847   0.1056959  54.3173370  24.9463654
   1.1308155  55.0477676  24.1057796  45.1614189  65.6628418  62.2509499
  46.0331955  65.4315186  61.9304314  44.8863716  66.3903885  61.6930466
  14.5627651  71.3282928   6.4630585  14.6580572  71.3861694   5.5123734
  14.1517506  72.1557236   6.7133851  79.2136383   2.3533361  42.1246338
  79.9356918   2.6185513  42.6943130  78.7669525   3.1715794  41.9074249
  84.4775009  68.7903214  49.4626617  84.8516464  69.0234375  50.3123131
  85.2195587  68.8173828  48.8586388  61.5135040  47.9941216  11.5838766
  60.7943878  48.3992348  12.0686274  61.7350159  47.2136307  12.0918112
  35.6567001  62.9134789  81.8574371  34.8761635  63.4159470  82.0909348
  35.4731331  62.5802231  80.9790955  27.5820675  54.1417160   9.5485296
  27.4039497  55.0397263   9.8279715  28.5122223  54.1412125   9.3226070
  80.7575226  47.0685081  72.8711090  80.1808853  46.6526604  72.2301788
  80.5815964  48.0049362  72.7795181  42.1166267  40.3590012  85.3447723
  42.5736198  40.6702423  84.5634155  41.9834099  39.4241867  85.1879044
  41.3435402  38.1022263  82.7672119  42.0813904  37.9739723  83.3633347
  40.7273216  37.4062843  82.9956207  67.7379837  33.9234467  59.4765396
  67.7482834  34.8698692  59.6194115  67.2387085  33.8086967  58.6679688
  62.3658333  28.7982979  10.2113142  62.3446655  28.9305935  11.1590910
  63.2101440  28.3783779  10.0468922  50.2283669   6.0084891  10.1017151
  50.9238091   5.3520050  10.0614681  50.3394699   6.5243711   9.3031206
   3.6959603  34.3531303  72.9763641   3.8212991  35.0260696  73.6454468
   2.9399638  34.6543312  72.4723969  60.3027267  20.9104900  29.5161858
  60.3508759  21.4507084  30.3049030  61.0770493  21.1562042  29.0099430
  37.7813683  41.8062782  17.2806911  38.5205498  41.4889755  17.7994976
  37.6118393  41.1051216  16.6515083  31.4773216  57.9678192  39.9887619
  32.0405006  57.2380905  39.7307701  31.1400051  58.3137932  39.1624756
   6.1830111  63.4729767  48.4306831   5.9018331  64.0431519  49.1462746
   6.8022671  64.0043259  47.9302559  30.3239460  29.9599190  62.7547722
  31.0564690  30.5631351  62.6291847  30.5281601  29.2143421  62.1902885
  41.7311401  22.8869057  67.6104965  42.1948051  23.1351929  66.8107452
  42.0958939  22.0331764  67.8435822  56.6516800  69.7498932  64.2593765
  57.0749435  69.0315247  63.7892418  57.2318840  69.9262009  64.9999924
   7.8304935  34.8866425  47.6092644   7.5933704  34.0910492  48.0857506
   7.5296364  34.7285500  46.7144318  22.1532764  50.3257484  62.5594673
  22.0409203  50.4308624  61.6147156  21.4986324  49.6728897  62.8073540
   8.8688335  70.3802109   0.1819963   9.7484198  70.6730576  -0.0563362
   8.7210655  70.7496872   1.0525622  49.5850029  62.2197266  18.5617294
  49.4081879  62.2159729  19.5024509  48.7390518  62.4173660  18.1598110
  36.5227318   5.9507570  13.6386328  36.7133751   6.5880928  14.3268852
  36.2046280   5.1794796  14.1078596  74.0050888  57.8626213  72.8218842
  74.0780792  56.9693871  73.1580963  73.0767059  58.0774651  72.9123459
  18.8296509  69.6539841  78.3617172  18.8146725  70.4072800  78.9520950
  17.9068317  69.4470673  78.2139893  16.4142971   1.1061357  20.5748043
  15.8961639   0.6899201  19.8859386  15.9845467   1.9487218  20.7217560
  54.0537834  53.5520706  69.2378693  53.7312698  53.3488960  68.3598404
  53.7001610  54.4210472  69.4277878  12.3834019  44.6360130  60.6238403
  13.0424843  43.9441376  60.5676918  11.6657495  44.3286819  60.0699883
  46.0520477  56.0563545  61.3553276  45.7809753  56.5006180  60.5519714
  47.0080872  56.1019058  61.3433037   9.0435495  30.1443195  78.9418182
   8.3330145  29.5415936  78.7225189   8.7504330  30.5788116  79.7427750
  79.2584076  60.5410080  66.8171005  78.8713150  60.4822960  67.6905670
  78.6960297  61.1564293  66.3467636  64.8202362  20.6385689  62.1061783
  65.0326614  19.8481674  62.6025391  65.0801086  21.3590221  62.6803246
   9.6655064  19.5220947  24.6212387   8.9393883  19.0226135  24.2477379
  10.0870857  19.9327278  23.8663330  31.3812199  25.9928150  78.8360748
  30.5698013  26.0007343  79.3437805  31.9865494  25.4682465  79.3601303
  11.2924490  57.5317345  83.4598770  12.2133703  57.5740089  83.7174606
  10.8478355  58.1289825  84.0614166  29.0454731  49.2826195  42.5105286
  28.7457886  49.8833389  43.1928482  29.5767155  49.8265228  41.9289970
  70.1302109  14.6305227  23.6701660  70.4478607  14.2933712  22.8325138
  69.8795090  15.5354691  23.4845524  56.9345207   7.4781241  33.3409691
  57.1241226   7.2520666  34.2515640  57.5516434   6.9538503  32.8305511
  32.2510529   9.6653624  88.9867630  32.6849403   9.3118877  88.2102127
  31.5136662   9.0743361  89.1390152  60.7228355  29.4065304  18.5750427
  59.7699432  29.4319496  18.4879589  60.8738098  29.0607033  19.4547253
  40.5162926  54.3550491  65.8721085  40.7521172  55.2709961  66.0192642
  41.3549347  53.9056168  65.7676086  86.4573898  38.5649681  62.9716072
  87.4134369  38.5335732  63.0065689  86.1738358  37.8150597  63.4945450
  80.6615982  10.6701069  83.8098526  80.3267365   9.9130440  83.3292770
  80.1148529  11.3997526  83.5184555  17.5101833  14.4521723   1.0465667
  17.1563587  15.3387423   1.1175207  17.1576653  14.1189327   0.2213911
  28.6225739   2.2957323  17.9565601  28.1337605   2.9167442  18.4965935
  27.9983692   2.0183616  17.2859898   4.9826498  37.1246643  18.5857506
   4.5799561  36.3998947  18.1074429   4.5536571  37.1146774  19.4413776
  63.7489967  12.6934986  12.9640064  62.8064079  12.7002735  13.1304712
  63.9853630  11.7659407  12.9629068  64.8523178  13.0159950  56.1068611
  64.3468475  12.4144526  55.5601654  64.2652969  13.7578707  56.2526703
  41.0550880  59.8427544   9.8865910  41.0163231  60.6850090   9.4334555
  40.1480255  59.6611061  10.1325006  52.2865143  63.3711700  43.1570244
  52.3039742  62.5270042  42.7061195  53.1135521  63.4030113  43.6378784
  56.8869247  23.2003326  43.1281281  56.1584587  23.7002392  43.4964523
  56.4923286  22.3756371  42.8445740  55.5709457  42.0520363  46.2060204
  56.2939034  41.9288177  45.5908928  55.7736778  41.4652023  46.9345474
  50.8503532  12.9713335  64.0601349  50.8554802  12.6820602  63.1477051
  50.7897720  13.9252262  64.0086365  65.1017227  66.0740356  28.2464638
  65.2533035  66.6208725  27.4756012  64.6589203  65.2969131  27.9055271
  21.8166370  52.1801491  23.7400017  22.5195465  52.1977196  24.3894958
  21.1949062  52.8423462  24.0419655   1.4593296  66.6549911  66.8280487
   1.1706938  66.7713852  65.9228592   1.4414707  65.7078400  66.9652252
   2.7016280   9.3329601  17.9690914   3.4217780   9.8436146  18.3390217
   2.2428529   9.9466209  17.3953533  71.5069809  50.9130478  70.7771759
  70.5789719  50.7804604  70.9707184  71.7518082  51.6813774  71.2928925
  11.4500999  19.1508217  83.5049057  12.3429728  19.0441246  83.1768494
  11.3626633  18.4814034  84.1834869  16.0149803  51.4190331  68.6417542
  15.5052547  51.5915833  69.4333649  16.7590771  52.0182686  68.7006607
  22.9119549   7.2410159  72.6850052  22.7312126   6.4872184  73.2465668
  22.7848835   7.9998460  73.2544403  48.4913521  66.9374390  11.7015123
  47.6792221  66.9428482  12.2081146  49.1813507  67.0584641  12.3538065
  64.8963013   4.0045333   3.5955236  64.8934860   3.8410633   2.6523898
  63.9870834   3.8726816   3.8641744   2.0081916  37.8745346  55.8322563
   2.1045702  38.1741257  54.9282684   2.3559611  36.9827576  55.8274002
  51.8768692  45.9001083  56.0899734  50.9736137  45.7613106  55.8051987
  52.3855858  45.2585297  55.5941734  53.7974472  48.2395287  56.5486488
  53.6244392  49.1783638  56.6185799  52.9301147  47.8347359  56.5588799
  46.9705887  71.0427094  65.9398117  46.2575836  71.3853226  65.4008560
  46.7182274  71.2600479  66.8372040  56.8667717  69.2271500  33.2043228
  56.5879478  69.1928329  34.1193695  56.8792229  68.3122253  32.9232597
  35.6949844  56.6480827  51.8501053  34.8150826  57.0218239  51.8983269
  36.2713280  57.3536758  52.1437111  47.3395767  44.2762070   3.0219088
  47.6339417  43.3679695   3.0904002  48.1402092  44.7761230   2.8628411
  21.1953735  57.3604393  45.0779762  22.0119457  57.8360901  44.9256706
  21.3784313  56.4690819  44.7809830  59.4184723   2.5544324  68.8095551
  58.4721642   2.4831517  68.6844254  59.5187569   2.8520560  69.7137680
   4.9834681  39.1254539  16.7698689   5.1966357  39.9873695  17.1274948
   4.9597101  38.5485687  17.5333271  69.9924164  21.9368515  86.2548141
  70.1588821  22.8589382  86.4504623  70.7134323  21.4687271  86.6758041
  51.6852760   2.9185283  74.4471436  51.4852600   2.1928515  73.8558578
  51.0822258   3.6141636  74.1851273  81.1902008  22.1056728  65.6884537
  81.9838181  22.5765018  65.4340439  81.5090179  21.2893181  66.0733490
  31.9386997  44.3018799   7.8290257  31.2078400  44.1512489   7.2295375
  32.5114517  44.9091415   7.3606029  12.4634256  53.7426109  39.2301445
  12.6529884  53.3412323  38.3820953  13.1418018  54.4094925  39.3364868
  70.1104813  58.7782631  17.1663837  70.2925873  58.6615677  16.2339401
  69.9482422  59.7166405  17.2631302  35.3424225  51.1828651   9.5769577
  35.6449432  51.0540390  10.4759111  34.3879738  51.1427612   9.6373768
   5.9977508  58.4314384  80.9095078   5.6379275  58.8161278  81.7087402
   5.2971277  57.8701324  80.5774002  54.9233627  64.6539841  74.5374069
  54.9850616  63.8011932  74.9677200  55.0202446  65.2882538  75.2477264
  10.0237207  65.9013901   1.3944317   9.8837385  65.7619171   0.4578511
  10.4762392  66.7432861   1.4462081  74.0405731  55.1254272  59.0555458
  73.4983826  55.4700089  58.3459549  74.0429153  54.1783180  58.9169235
  73.2867889  70.8265839  80.8927917  72.4578781  70.4307327  80.6236496
  73.0671997  71.7396545  81.0780106  32.6013260  36.6960640   2.0825193
  33.4098892  37.0128746   1.6799167  32.5753975  37.1253166   2.9376807
  50.0456657  69.1495819  25.7288361  49.6557961  68.2829514  25.8436489
  50.9004517  69.0860291  26.1548996  39.7170525  18.1155090  71.2472458
  39.2689285  18.2133827  72.0873871  39.3368683  17.3252316  70.8636398
  42.7603149  47.3399391  21.0396214  42.3587074  48.1584244  20.7480354
  43.6195297  47.5998192  21.3719482   6.8963904  11.4522142  58.3741531
   7.5215569  10.8917198  58.8337669   6.4321833  10.8590860  57.7834396
  10.9047251  56.0615044  48.1084862  10.2226887  56.6663055  48.4005051
  11.5936136  56.1407051  48.7683296   5.2974906  41.9105988  82.0968399
   4.9058080  42.4954643  81.4481888   5.3364043  42.4330978  82.8979111
  39.5139122  29.0932293   1.6100413  40.1751823  28.6543560   2.1451502
  39.5107498  28.6061592   0.7860363   0.4934573  16.9935417  70.2566833
   0.3294488  16.0651550  70.0910645  -0.3761840  17.3700523  70.3915787
  48.0950966  19.4744797  88.5174332  48.1104012  19.4236870  87.5616989
  48.9244728  19.8928585  88.7483597  85.1776505  53.8072548  10.8684998
  85.4429398  54.4317894  10.1933641  84.7713623  53.0887680  10.3837929
  49.4241714  64.1911850  84.8118362  49.1535606  63.4568825  84.2606506
  49.6211433  63.7940254  85.6601868  71.1670837  56.6026764  24.9017696
  71.2169952  57.5556488  24.9765434  71.3824463  56.4226265  23.9866581
  47.3543167  71.2312317  74.3088684  46.4463577  71.2871246  74.6067200
  47.3776894  71.7598343  73.5112076   9.1779013  30.0065613   4.9092870
   9.3360043  29.1032658   4.6348882   9.9920559  30.4656086   4.7027454
  65.3301086  47.4013672  67.8826981  65.4716949  46.5650291  68.3262329
  65.8533707  48.0286713  68.3816147  57.2515640   2.3583391  61.2481995
  56.8138657   1.6332079  61.6941109  57.9940987   1.9516498  60.8015671
  67.0438843  29.7083111  86.5232925  67.3882675  29.4906101  85.6571350
  67.2930069  28.9658260  87.0736465  69.2489471  28.2615662  44.6496277
  69.8244476  27.5597687  44.3454590  69.8188553  29.0279770  44.7133179
  54.8812561  42.2853355  78.3688354  55.6189499  42.6205864  77.8592834
  55.2100868  41.4776039  78.7633896  12.8599300  21.2724476  86.0148392
  11.9177723  21.2284546  85.8516388  12.9731092  20.8683529  86.8751450
   8.3786383   4.4251471  72.7138290   8.5268574   5.3704176  72.6868820
   7.7953815   4.2529979  71.9746323  54.4301949  28.5366573  63.5570831
  53.8323097  29.2812614  63.6228828  54.0179710  27.8512897  64.0829849
  21.7777920  70.4014587  79.4267578  20.8597183  70.6304169  79.2820206
  22.2473240  70.8307648  78.7115860  72.5958786  24.5085831  72.9403992
  72.4816132  24.2587337  72.0234680  72.4749832  23.6935558  73.4275818
  68.5904770  26.1775780  86.6292191  68.0640106  25.6549683  86.0242844
  68.5542908  27.0652256  86.2728424  52.3095589  21.8576221  13.2346916
  52.3632584  22.5342922  12.5598097  53.1933403  21.8125801  13.5995588
  11.8722591  18.4547958  70.8259048  12.4655876  17.9810467  70.2430191
  12.1830025  18.2444592  71.7064896  51.4211769  58.7224731  50.1268044
  51.3060989  58.2077332  50.9255753  52.3697548  58.8089104  50.0321503
  59.9287376  53.1972656  52.5147400  60.2417717  52.5556908  53.1524086
  58.9772224  53.0931358  52.5175476  52.3483086  44.4915733  70.5374222
  52.9007301  43.7274361  70.3726349  52.2116508  44.4884987  71.4848099
  52.8877487  53.5290146  11.8674822  51.9807091  53.3654251  12.1258316
  53.4034386  53.2849693  12.6360788  27.5039577  50.6084328  50.0432549
  28.2021389  50.6985283  50.6918373  26.8601074  50.0373154  50.4621964
  67.0067215  25.6904926  74.9601364  67.7190933  25.2423286  74.5041656
  67.1654434  26.6202507  74.7970657  40.0449638  14.0676689  72.5999527
  40.0237160  14.7030907  71.8843994  39.7810020  14.5677538  73.3722687
  76.8411865   2.5500963  38.1213760  77.2844620   3.3295572  38.4563179
  77.0122833   2.5633252  37.1796837  71.4318390  69.3429413  45.7835693
  70.7440033  69.9711838  46.0036201  72.1308975  69.8760147  45.4049072
   1.0018981  57.9662628  72.8441849   1.5202196  58.6775475  73.2205505
   0.0974478  58.2751846  72.8968048  33.4209709   7.4301949  70.0821457
  33.9359016   7.1399837  70.8350449  33.6276855   6.7989345  69.3929367
   5.1142564   6.0220699  88.1702194   4.5962043   6.7984462  87.9578705
   4.7206206   5.6841335  88.9746323  25.5115108  47.2460670  22.7593689
  25.5593872  46.3351898  23.0496178  25.8417282  47.2288818  21.8610973
  64.2580795  47.4517059  52.0973129  63.3078728  47.4410133  51.9823036
  64.4100418  48.1115265  52.7739067  82.6373138  58.6974945  39.0328445
  82.0554428  59.1524239  38.4239960  82.1601257  57.9028282  39.2716599
  68.5026550  70.0815430  69.1312637  68.8884735  69.6814499  69.9105606
  69.2381516  70.5088654  68.6923218   4.9996963   3.2838380  69.4844131
   5.9445238   3.1378148  69.4374084   4.8826041   3.8508506  70.2466583
  70.1427612  25.9271469  61.2845001  69.5071716  25.8069992  60.5789375
  70.1454620  25.0904751  61.7494774  48.6453743  24.4670086   2.2998705
  49.0564156  24.5529804   3.1600356  48.5214233  25.3683567   2.0024824
  39.9626122  64.3716888  81.1300735  40.5008316  65.1447144  80.9598312
  39.7733612  64.0156937  80.2619247  24.3829479  57.6419830  19.2259560
  25.2613792  57.2943916  19.3801365  23.8672276  57.3276176  19.9685459
  17.8070183  31.8843575  19.7558918  16.8839855  32.0908508  19.6089153
  18.2820435  32.6127777  19.3559093  28.3616734  59.6654434  24.3088417
  28.3127155  60.6195488  24.3681355  29.2816277  59.4618721  24.4775925
  19.9230099  60.0432816  30.1707172  19.7336388  59.2673645  29.6431561
  20.6870747  60.4380150  29.7504559  22.4961319   4.9252911  74.0699234
  21.7420616   4.4435506  74.4098282  23.1975098   4.7449603  74.6958466
  48.4568481   5.0419750   5.7959480  47.9148407   5.5111389   6.4302540
  48.9906349   5.7230997   5.3868337  42.1273766   5.6338835  73.3242569
  41.2169647   5.4618630  73.5646591  42.6263733   5.4317493  74.1156921
   7.8110280  44.2642975  30.4137421   8.2221632  43.7857933  31.1336269
   7.0059228  44.6190109  30.7908554   1.1401200   3.7790751  53.4253464
   1.9438335   3.2603760  53.3903084   0.6335653   3.3880823  54.1372185
  44.2051277  50.9869652  24.6331005  44.8618736  50.7723274  23.9706440
  43.9151993  51.8703575  24.4055214  26.0096416  61.6231232  83.7062302
  26.7580357  61.1835594  83.3025970  25.7048149  62.2382278  83.0391769
  67.0969696  59.8145332  14.3065071  67.2512589  58.9381180  13.9539089
  66.3256836  59.7157593  14.8647156   4.6128621  33.0077667  76.6633911
   5.0408983  33.5005989  75.9632950   5.3156848  32.8126984  77.2832489
   6.1940932  44.6087646  69.2158966   7.1129541  44.4791908  68.9810791
   6.2210312  44.9474449  70.1107712   1.6942632  11.8785667  -0.2758030
   1.2960327  12.2933722   0.4894296   2.5540512  11.5887346   0.0291461
  59.1784172  42.9552727   1.1287323  58.6730080  43.6160698   1.6021678
  58.5185242  42.4148865   0.6942666  23.6009254   7.8381877  70.1107330
  24.2904549   8.1557350  70.6937790  22.8894978   7.5827746  70.6979828
  28.0233536  66.1622314  45.2565575  28.1318874  65.4505844  44.6256790
  28.7670555  66.7423630  45.0935020  26.7466984  41.9744186   4.2459126
  25.8175678  42.2023354   4.2142859  27.1993561  42.7785263   3.9914677
  60.5153236  54.2154236  77.5620117  60.0370369  53.6322365  76.9726257
  59.8450127  54.7989502  77.9175568  71.7565765  24.4045372  30.5233593
  71.4394836  24.4630489  29.6221046  72.1203079  25.2708893  30.7060089
  84.3349838  54.7410011  67.7997589  84.0527802  54.3238297  66.9857788
  84.5800476  54.0122604  68.3699341  41.1542091   0.9037936  69.1079483
  41.5959511   0.4080958  69.7974243  40.3761330   0.3858722  68.9015808
  16.3980026  15.0943794  26.5756721  17.2070618  15.4874821  26.2483711
  16.0415802  14.6195831  25.8248310  74.0842819  13.4515829  16.4363556
  74.0940857  13.5047636  15.4806833  74.9378433  13.7922401  16.7039642
  83.0787735   1.1682739  22.6200485  82.9108963   0.2294133  22.7012272
  83.7988739   1.3362607  23.2278862   2.8737822  40.1051407  45.0140533
   3.2835538  39.9956017  44.1559601   1.9720533  39.8096542  44.8883362
  31.7354012  21.7752934  85.7480698  31.9404716  21.2237110  84.9931259
  32.4364471  21.5945396  86.3742447  32.1075096  19.4058323  13.0797491
  31.7099304  20.2315121  12.8033171  31.9052238  19.3432903  14.0132380
  75.0819626  34.8804779  44.0191803  75.3401718  33.9897499  44.2561531
  74.8483582  34.8236504  43.0926628  31.0853081  31.2736988  83.6383438
  30.4556122  31.3318748  82.9197845  31.9120598  31.0437412  83.2142792
  37.9680214  69.6529388   8.1248236  38.7453461  69.0948944   8.1008081
  37.7133141  69.7484665   7.2070928  64.1010666  53.1263657  85.7454376
  64.7210693  52.5123749  86.1389313  63.2837448  52.9795609  86.2215347
   4.1220188  29.6395798   6.5798326   3.6625381  28.9292755   7.0276895
   4.9976735  29.6396580   6.9664330  19.1174145  59.6893425  63.1124496
  19.6031857  58.9486427  62.7496567  18.4702415  59.2897797  63.6936111
  72.2791748  51.1852570  54.6822510  73.1245346  51.4420204  55.0505753
  72.4567947  50.3631706  54.2252388  33.6239929  43.2358246   4.8118033
  32.7586021  43.2442207   4.4028244  33.5194893  43.7623596   5.6043115
   6.1259379   5.5085268  45.2359085   7.0049715   5.8507681  45.3983994
   5.5676150   6.2855544  45.2087860   4.4801617  48.5460854  49.1386833
   4.0398784  47.6980896  49.1959991   4.6702385  48.6547737  48.2068596
  50.4854202  30.7148914  53.8041153  50.7157021  29.9521503  54.3346138
  50.8381195  31.4601440  54.2903633  80.3058243  14.8337088   9.8470440
  81.0432129  14.3992882  10.2757177  79.6686707  14.1347036   9.6998663
  19.3882732  64.5895386  68.4517365  19.8603611  65.3902740  68.6801529
  18.7133179  64.8765945  67.8367004  54.5521278  27.6238747  35.5555038
  53.8471909  27.1704254  36.0177574  55.3551826  27.2403088  35.9079399
  40.9931450  37.8823624   7.3916135  40.2636337  37.2634964   7.4240875
  40.6378136  38.6479874   6.9401803  33.4856415  53.5221405  11.6709003
  33.5710373  53.9480782  12.5238466  33.8131447  54.1692200  11.0461912
  48.6815262  56.3395119  49.9546852  48.5876045  55.4268303  50.2274933
  49.5972557  56.5507927  50.1364136  49.7565689  13.5524921  77.1374512
  49.7292557  13.8936310  76.2435226  48.8678017  13.6793318  77.4694672
   9.9433603  48.4131699  87.5174332   9.0752907  48.5992355  87.1595688
   9.8864689  48.6801414  88.4348831  30.1910458  57.7646255  59.2250214
  30.5991516  57.2178917  58.5536308  30.5519848  57.4402084  60.0500717
  25.1119289  44.7204666  24.2447605  24.1698036  44.6174889  24.3790302
  25.4107685  43.8537827  23.9694633   6.7005730  55.0866661  25.6088200
   7.4044223  55.5093689  26.1009083   6.8518176  54.1495018  25.7316170
  54.9385757  23.6141472  23.2381096  55.5818863  24.0998096  23.7543583
  54.1024628  23.7915859  23.6689987  72.3476257  69.0339966  13.3313370
  71.7854767  68.3299103  13.0080900  73.1933365  68.6132812  13.4862251
  41.7929764   3.4562366  58.5494804  41.5374146   2.6250694  58.1493797
  41.0946159   3.6450741  59.1762695  84.0408173  47.0679626  50.8717918
  84.3984070  46.8750305  51.7384758  83.9738007  48.0225029  50.8474083
  12.8303328  40.0068817  63.3156319  13.1420393  40.0476112  62.4115257
  13.6232605  39.8813972  63.8369331  38.8956070  53.0184669  81.4640961
  39.0335274  53.7467766  82.0697174  38.5769882  52.3046494  82.0165253
  17.5053291  59.0830269  23.3738670  18.1225033  58.4893303  23.8014793
  16.6913834  58.9778557  23.8664742  71.1051407  71.1099548  42.1189766
  70.4964066  71.4494858  42.7750282  71.9462051  71.0640793  42.5736656
  39.7955246  21.1734657   7.8050728  39.5809669  20.4833508   8.4327173
  40.2698364  20.7227783   7.1064019  72.7359772  34.1722145  65.8097229
  72.6671982  34.8997383  65.1914902  73.2812424  34.5117111  66.5194168
  58.7939911  18.9041080   1.5543001  58.7088470  18.1436882   0.9791952
  57.8928261  19.1397934   1.7747263  41.9253311  66.3453217  25.4887772
  41.9684715  65.5602264  26.0346680  41.7610130  67.0578232  26.1064968
  75.9801483  33.6994629  34.2230835  75.4363785  33.7877426  33.4402962
  75.4252167  33.2341080  34.8489647  63.0591927  50.0657272  61.2319527
  63.2063675  50.3938866  60.3448868  63.6748695  50.5582275  61.7747421
   4.9822736   5.1247044  30.4257069   4.1478500   4.6589656  30.3704243
   5.5641251   4.5198693  30.8859844  83.1336365  36.8453217  17.6367664
  83.6018295  36.3396416  18.3010826  83.7715073  36.9649696  16.9331799
  11.1723928  70.8079758  81.5455933  11.9222231  71.2307053  81.1269150
  11.5413351  70.3719711  82.3137131   1.7065320  68.1299820  43.0401802
   1.2060431  67.3160782  42.9826965   2.4969907  67.9618149  42.5272217
  36.0961075  56.1357689  71.7993011  35.5732193  56.7115250  72.3572693
  36.4179306  56.7062721  71.1013107  24.7775536  11.9867897  25.7737446
  24.7598610  11.5779533  26.6390610  24.5496292  11.2797632  25.1700916
  31.4515228   2.5241275  82.8677444  31.0000420   3.1789653  82.3352203
  31.3411999   2.8300679  83.7679977  83.7249680  65.1311493  39.3509293
  83.3632050  65.9854355  39.5866280  82.9745483  64.6353989  39.0232964
  39.3928185  47.6441345  34.4173126  40.0148125  46.9530869  34.1897011
  39.0474129  47.3837585  35.2712059   2.9969220  65.6278687  56.1649323
   2.1832187  65.5847244  56.6671867   3.6176152  66.0605698  56.7512321
  79.1134567  51.4411926  85.0502625  78.1564026  51.4368362  85.0341263
  79.3371277  51.8704224  85.8760681  66.7773361  32.6766434  62.2163086
  67.4300003  32.3013611  61.6251831  67.1997833  33.4570351  62.5751305
  85.6360321  44.8356514  43.9159737  86.0485687  44.1196404  43.4328880
  85.0965729  44.3998795  44.5757561  64.9328461  50.1197014  56.5025902
  65.0116806  51.0717125  56.5633392  64.0668716  49.9276390  56.8623466
   3.8992488  30.6376152  56.7112617   4.4038024  30.4371338  57.4995918
   3.0135856  30.3337612  56.9100189  35.3304214  62.1558189  84.1871262
  35.5308075  62.5376053  83.3325424  36.1853905  61.9394684  84.5592194
  62.3382072  59.4908142  13.2870026  63.1035690  59.7164650  13.8157148
  62.4154816  60.0402565  12.5070200  51.9612808  68.3484421  67.4299316
  51.5414810  69.2060089  67.4975967  51.3350716  67.7432175  67.8271713
  62.4495697  18.3167725  77.7569122  63.1418991  18.6324558  77.1761703
  62.0436096  17.5957184  77.2757568  43.5004692  62.7171974   7.2093582
  43.4449921  61.7621269   7.1778073  42.8001556  62.9781647   7.8074265
  54.7165909  30.2975368  22.4164791  54.0907822  30.2791729  23.1405354
  55.4848595  29.8356724  22.7521553  41.2343178   8.6583147  83.7253265
  41.7217674   7.9562192  83.2944107  40.7739449   9.1023102  83.0131760
  64.3198776  35.0184479  18.1154652  63.9240112  35.6579094  18.7075901
  64.0934525  35.3308945  17.2394848  28.4354153  38.3531342   3.3988149
  28.1029415  38.3116417   4.2954597  27.8395367  37.7974319   2.8964622
  40.1147690  31.6016083  88.8035660  40.4637642  31.9052467  87.9655685
  39.1741905  31.5091228  88.6519165  82.7092514  38.1316452  46.6878624
  81.9938736  37.7732124  46.1625099  83.2936783  38.5404930  46.0494843
  17.0744152  15.6926508  86.7463150  17.9267159  16.1273918  86.7748947
  16.5622463  16.2102451  86.1250153  65.5652084  32.5505714  47.7192459
  64.7847214  32.1619720  47.3242073  66.1332474  32.7548294  46.9763832
  61.5988846   9.0760622  78.5870132  61.9244156   9.3984995  79.4274216
  60.6462822   9.1331835  78.6612854  59.1664047  41.2193680  61.2369576
  58.7765541  42.0853119  61.3569107  59.7975006  41.3370895  60.5269623
  55.4435997  25.9171276  57.6039124  55.3995743  26.8595924  57.7653198
  55.5065041  25.8398514  56.6519127  65.0056000  10.7577019  44.4956360
  64.8821487  10.9007988  43.5572815  64.1790924  11.0348701  44.8909683
  70.3121719  49.7653275  25.9797478  70.7603531  50.0446167  25.1814003
  69.6956711  50.4728546  26.1683388  58.1866264  62.8339615  28.9909344
  57.8407211  63.2806931  29.7635994  57.4126434  62.4822388  28.5510788
  67.4000320  34.4087372  70.2108765  67.3433990  33.8052406  69.4700546
  67.6304703  35.2502556  69.8172073   4.5604825  32.0510750  63.3584213
   4.3238254  31.5869980  64.1614532   4.0490470  32.8595963  63.3894539
  15.5820923  68.9645767  55.2250595  14.7335196  69.4040909  55.1704636
  15.4831610  68.1842041  54.6796532  26.4502888  26.8475952  13.6753588
  26.4646587  27.8019180  13.6025982  27.2502575  26.5616875  13.2342920
  49.8607254   8.0941458  12.0728703  49.3649368   8.7474413  11.5792818
  50.0676117   7.4150834  11.4307594  61.1966667  71.5696869  74.9109039
  60.2696877  71.4387131  74.7114410  61.5936928  71.7924194  74.0688858
   6.4493613  51.7264748  55.7163506   6.8272357  51.9812660  54.8746147
   5.5464625  52.0420761  55.6789169  62.5712891  19.6499481  14.8291311
  63.4318314  19.2350426  14.7695408  62.0302315  19.0132408  15.2961349
  11.3555889  63.9456329  41.4622345  11.8691683  64.1588745  40.6831322
  10.8983078  63.1364136  41.2335701  25.8666058  57.0780373  35.4893456
  25.8310108  56.2275848  35.0515213  25.0826454  57.0978661  36.0382042
  51.9803352   8.7135744  74.8488235  52.7427406   9.2266798  75.1165848
  52.2645073   8.2580614  74.0563660  77.2229691  61.6124687  48.4396019
  76.6484985  60.8584175  48.3068581  77.8880997  61.3016586  49.0537949
  84.5371780  52.1149368  35.2578239  84.6386261  51.2103043  34.9618874
  85.1445084  52.1958961  35.9932327  68.9594193  36.8537560  11.6364574
  68.7244415  37.0878181  10.7385550  69.2987518  37.6650505  12.0144663
   0.2786248  56.6498604  10.1521463  -0.3691643  56.3289948   9.5247345
   1.1038967  56.2587013   9.8655205   8.0528364  39.6781235   7.8339725
   8.7318983  39.0293655   8.0189619   8.5358496  40.4792023   7.6309795
  26.7810211  38.8974113  67.2422409  26.3886738  38.4337578  66.5024338
  27.3209553  39.5775146  66.8395462  13.8641262  42.8104668  49.7995033
  14.6670094  42.3083496  49.6599121  13.1889200  42.3167992  49.3340836
  75.7581329  32.2194099   9.9064293  75.5608902  31.2845459   9.9643784
  75.9573135  32.4783897  10.8061457  11.6107635  54.1501808  82.1802139
  11.0234375  54.6116638  82.7788086  11.0664968  53.4658051  81.7908096
  58.7178459  60.0278511  55.0240593  58.6152840  60.9068871  54.6593552
  58.6137199  59.4433708  54.2732124  34.4634171  56.4244003  82.2376404
  34.7351074  56.3458862  83.1521072  34.3375168  57.3639679  82.1050034
  41.2802887  52.6205788  10.5813093  42.0758858  52.7595024  11.0950756
  41.4458961  51.8114777  10.0974045  63.8365555  65.9353714  48.8504219
  64.6968613  66.3030472  48.6481323  63.8078537  65.9051208  49.8067131
  62.6645050  22.2404594   2.9540935  62.3525314  23.0785885   2.6128538
  61.8837814  21.6873093   2.9810977  53.6298180  55.0254936  27.3397980
  54.1868515  54.3481941  27.7234745  52.8930130  54.5445290  26.9629383
  78.0437241   4.7659402  30.2500896  78.6686249   5.4180460  29.9330940
  78.2574005   3.9716349  29.7605457  44.4642105  67.7161484  71.9382477
  45.1401138  67.7350311  72.6157684  43.6484375  67.5717468  72.4177246
   2.8182368  39.3701477  27.3957539   2.5233378  39.8334656  28.1797218
   3.7647867  39.2848625  27.5097771   7.2883692  30.5108757  13.1900940
   7.1639309  30.1323891  14.0604353   7.6939878  29.8099117  12.6798439
  61.4453201   7.5003610  15.6259689  62.0178947   7.7981787  14.9190779
  61.7992554   6.6473379  15.8775902  32.2553101  18.0052834  78.0981140
  32.4599609  17.8275108  77.1800995  32.9232597  17.5270157  78.5893707
  64.6488266  17.0571346  18.2549057  65.3193817  16.8381691  17.6078777
  64.7267914  16.3742714  18.9211273  48.2405357  38.4719353   4.0189443
  47.9721718  39.0957184   4.6935601  47.8606186  38.8154755   3.2103190
  23.0898781  22.3090687  77.0295334  22.9291859  21.8456364  77.8515015
  22.4695606  23.0379868  77.0403137  18.5378857   6.4144306   8.7361450
  17.6105976   6.3806539   8.5011368  18.9994392   6.2451682   7.9148350
  82.5022659  53.1910019  52.8532486  82.9262466  53.6126900  53.6006813
  82.3213425  52.2997818  53.1519585  17.2603245  66.3533096  10.1289377
  16.3822079  65.9729538  10.1507282  17.1933517  67.0748596   9.5035563
  79.6273041  33.0714531  81.7836914  79.7658615  32.7247276  80.9023209
  79.0482407  33.8230476  81.6570969  70.9122696  43.9981766  17.0585766
  71.2838593  44.8802986  17.0630131  69.9659195  44.1367378  17.0965881
  79.6513138  34.7544060  22.4417305  79.3646851  35.2024956  23.2375298
  80.5306168  34.4377708  22.6486320  20.6467762   8.4897194  13.4381399
  20.4334049   7.8615661  12.7481194  19.8703728   9.0456333  13.5044031
  61.9229813  66.0018463  73.6078186  61.3837166  65.9586945  74.3974762
  61.8924675  66.9223099  73.3469543   0.8717731  21.2024212  59.3184700
   0.1113473  21.3673325  59.8759537   0.5793455  21.4391651  58.4383163
  17.3042221  30.6002464  67.3848572  17.3593578  30.6128807  66.4293365
  17.8394241  29.8507652  67.6457672  68.6562805  37.2976837  69.3219528
  68.4063110  38.2189903  69.2516708  69.3764648  37.2923431  69.9524612
  67.7093353  10.3612595  12.2144775  67.9827499   9.5577850  12.6570911
  66.7673111  10.2536907  12.0831442   1.3351285   5.5967464  42.7118111
   2.2265770   5.7237053  43.0365143   1.1286376   6.4116306  42.2540359
   6.6281204  11.1195621  72.1854858   7.4584517  11.5941763  72.1464615
   5.9612894  11.7914677  72.0436707  82.0569611  33.9997635  36.7685013
  82.6794586  34.2963638  37.4323997  81.2204208  33.9477119  37.2308044
  67.0120850  61.2752228  62.5149727  67.2318268  60.7410507  61.7516861
  66.5985336  62.0571022  62.1490898  56.6804237  17.9498577   5.6096597
  56.4522896  18.7296124   5.1035261  57.0921974  17.3640175   4.9744706
  58.1733932  65.8626175  49.5966187  57.6429482  66.3135223  50.2535324
  57.5937538  65.1881866  49.2425041  19.9891682  34.4843254  12.5291300
  20.7311211  33.8798561  12.5479879  19.5644798  34.3160782  11.6879616
  85.3485718  60.9185829  49.3319359  85.6736450  61.1330223  50.2063370
  85.9613647  61.3496590  48.7362099  84.9700317  67.5927582  76.5222244
  85.7294083  67.0103226  76.5410843  84.9466934  67.9842224  77.3954086
  58.3390160  44.4190636  72.9062424  58.9404831  45.0885201  72.5802078
  57.8558998  44.8531036  73.6094055  78.1902161  32.6113853   7.8046274
  79.1463547  32.6477585   7.8312130  77.9747238  31.7366199   8.1280117
  82.0607452  61.1900673  83.3819199  81.8903503  61.8922577  82.7541275
  82.9923019  60.9963264  83.2775574  42.1998901  33.4698639  19.6564503
  41.6993256  33.7607193  18.8941708  41.9558449  32.5508995  19.7668209
  28.1289673  28.8918247  87.2446136  28.9836674  28.8059788  86.8222961
  27.9191227  29.8230286  87.1734924  50.9278374  17.0860558  25.9687119
  51.7080383  16.9297504  25.4366512  50.6907692  16.2221031  26.3057823
  50.2878838   3.2880392  82.8177414  49.8991547   2.5373185  82.3688126
  50.1511040   3.1080396  83.7478638  52.1231117  68.4250031  12.4059372
  51.1811981  68.3447113  12.5562143  52.4404716  68.9424973  13.1460142
  26.0289612   8.3257141  81.0116501  26.6400623   7.5999928  81.1385956
  26.3100357   8.9886236  81.6423492  67.3145828  21.3129215  26.9011211
  66.9018555  21.4825668  26.0543022  67.6941147  22.1540756  27.1553822
  35.8451042  21.0078125   4.1385050  36.3470306  20.7830334   3.3550658
  36.5013962  21.0765114   4.8318958  47.5540047  10.7845907  79.7710876
  46.9007454  11.2301731  79.2316971  47.1226616  10.6612511  80.6166382
  71.8349686  16.2002621  66.2463379  71.3068771  15.4657774  65.9334717
  71.6252060  16.9178391  65.6485748  72.1498413  63.9279213  57.5501060
  72.1532898  63.0025215  57.3054619  72.9898300  64.2620010  57.2353935
  63.4926491  70.8570099  33.7097359  63.6832542  71.6815567  33.2625046
  64.3517303  70.4640808  33.8640594  18.9355488  68.4720764  84.4791565
  19.5084000  68.8082123  83.7898941  18.1526909  69.0205383  84.4286041
  79.6776047  19.3631706  15.7451820  80.1486740  18.8697014  15.0737543
  80.3508377  19.6051369  16.3811359  19.2943077  45.4339752  24.9232941
  19.9395504  46.0779190  25.2152348  19.2179317  44.8224335  25.6556969
  71.3323822  25.1053314  47.8449020  71.0017624  25.8230476  48.3850899
  71.6101837  24.4400024  48.4745026  77.9486542  37.9820366  66.6554565
  78.7824249  37.5205307  66.5656052  78.1353378  38.8734283  66.3608322
  44.9552650  49.0371323  71.6240540  44.2452545  49.5919685  71.3011322
  44.5120354  48.3262062  72.0870514  77.9261398  67.4878235  39.0234909
  78.7347794  67.2383118  38.5761948  77.8147278  68.4158173  38.8169746
   8.5523977  61.9844017  52.2792931   8.9135342  62.3704071  51.4812889
   8.8575315  62.5580750  52.9821625  72.7962570   6.4936032  74.1079865
  72.2321243   6.4352794  74.8790817  73.5222092   5.8989844  74.2967987
  61.4872398  31.0048580  86.4811096  61.5147362  30.3931141  85.7454147
  62.1181412  31.6864567  86.2495575  55.5842896  30.6811123   2.7996457
  55.4978828  29.8374386   2.3558216  55.6922112  31.3148708   2.0904670
   2.8025730  18.6913338  63.1274567   1.9353654  19.0171719  63.3683128
   3.1657352  19.3725891  62.5615578  85.4351196  20.9587364  82.4607620
  85.8489227  21.6594753  82.9647064  84.5093079  21.1999683  82.4306107
  47.4950409  29.3630276  73.0080872  46.8427582  29.3921528  72.3081512
  46.9841881  29.4324322  73.8145905   1.0658698  50.2225266  66.7897491
   1.3294832  50.4625320  65.9014206   0.1572238  50.5158119  66.8574295
  80.3113251  70.2358093  22.8932056  80.8884430  69.4721680  22.8976440
  80.4636459  70.6560669  23.7396202   4.3517671  56.8090248  11.1868715
   5.2323036  57.0636711  11.4626274   3.8918819  57.6385536  11.0579462
  64.0769577  44.9488983  38.4656601  63.6860161  44.2825890  37.9004822
  64.8072205  45.2979431  37.9546623  83.8588257  -0.3014747   1.9550562
  83.3656769   0.1781599   2.6206305  84.3847504   0.3681377   1.5177339
  32.0101662  27.2910175  69.4149475  32.4166603  27.3613148  68.5512009
  32.1434975  26.3777733  69.6687927  46.8674088  56.2711029  77.8417358
  46.8257866  57.1459999  78.2278061  47.6212006  55.8587494  78.2636261
  73.8020706   2.0083466  64.4109344  74.6909943   2.0463800  64.0579529
  73.3292160   2.6971631  63.9438400  77.8129730  50.8427200  31.7490444
  77.7304153  50.2897224  32.5259666  77.1015701  51.4779434  31.8305016
  58.5387650  15.4366083  81.6863937  58.2117958  15.8625011  82.4788208
  59.0507927  16.1138573  81.2443619  45.7159843  41.3249016   2.1881247
  46.6130295  41.3632889   2.5198841  45.7585182  41.7521591   1.3326281
  77.4123993   7.1090870  27.6120529  77.7321243   6.2906194  27.9916859
  78.1756516   7.6867332  27.6107292  28.2657204  57.8105469  41.2604332
  29.1352673  58.1315422  41.4993553  28.0548344  57.1653023  41.9352760
  70.3981400  65.3090897  45.9140778  71.0696564  64.6423492  45.7700157
  70.5615616  65.6255646  46.8025436  34.7705612   2.3184223   3.7266374
  35.5207520   2.8705370   3.5061507  34.6789513   2.4065289   4.6753612
  35.2831688   1.3914238  56.8659134  36.2108650   1.6049424  56.7658043
  34.8390656   2.2391906  56.8487396  76.1352539  19.7669411   0.3760146
  75.9909439  20.4814606   0.9963915  76.3568802  19.0145168   0.9246242
   6.7738233  68.4904709  48.0326271   7.3694615  68.1971359  47.3431320
   6.0217404  68.8502655  47.5623550  26.6306477  67.5554504  28.0511379
  26.1476631  68.1548157  28.6200962  26.6943378  66.7448349  28.5561943
  63.5369873  56.9903488  51.9024239  64.0796356  56.5170746  52.5331192
  63.8212662  56.6633224  51.0489197  11.3605003  68.0799942   3.6670997
  11.6061077  68.7494888   4.3056021  12.1885777  67.8166428   3.2656465
   2.8312800  13.4217396  52.0711136   2.5478194  13.4732533  52.9839249
   2.0271120  13.5328445  51.5639610  48.4633369  69.2753906  22.8643208
  47.8875542  70.0266800  22.7219696  47.9016953  68.6174240  23.2740402
  72.7826920   5.1798172  31.8579845  72.3624268   4.4335971  31.4304733
  73.1490250   4.8183532  32.6650620   4.4784713  34.1640015  36.6076050
   3.6914966  33.7015533  36.8957825   4.2575221  34.4927330  35.7361984
  27.6893711  22.6930752  79.4784393  27.8632641  22.9511662  80.3836365
  26.7606659  22.8852406  79.3487854  77.1325302  16.8640003  20.7558918
  77.9387817  16.4496746  20.4484367  77.3615646  17.2286510  21.6107635
  58.5663719   0.0967577  12.5492020  57.6683617  -0.2312717  12.5962086
  58.5669937   0.6858336  11.7947340  50.1451530  25.3761234   6.9919477
  50.8445129  24.8963223   7.4357018  49.4540520  25.4547844   7.6495390
  68.0894165  33.0056877  88.5750732  68.5341187  32.6969681  87.7856598
  68.7337646  32.8905754  89.2734985  52.9513359  40.9281883  46.3056068
  53.6084023  41.5813370  46.0650063  53.2137718  40.6345482  47.1780357
  77.4900284  36.2219543  44.9240723  76.8896561  35.6826248  44.4093857
  76.9222412  36.7098160  45.5205994  77.6559296  64.8420563  25.1536064
  77.6592026  63.8973351  25.3076591  77.5936356  64.9294128  24.2024384
   5.9551477  47.0292892   1.3658608   6.3217731  47.8762169   1.6198990
   5.2149582  46.9010735   1.9590824   7.3062568  27.2610340  76.1972046
   7.9475546  27.9715519  76.2086716   7.4464722  26.7984715  77.0233994
  39.8064651  49.2496910  56.1838341  40.1669159  48.4260445  56.5123329
  39.3701019  49.0109100  55.3660316  84.9630661  32.3916512  75.4104156
  85.0411758  33.2448120  74.9835129  85.4371414  31.7915096  74.8348160
   9.7789125  51.0463562  78.5248260   8.9402666  50.6416740  78.7464981
  10.4311962  50.5039749  78.9682007  74.0776138  66.7763672  62.3033333
  74.1452179  65.8945312  61.9372253  73.6775360  67.2953491  61.6056061
  42.8053093  65.0991898  66.1927414  42.7043686  64.5557556  66.9742279
  43.7408371  65.0612183  65.9938126  84.5331955  63.7754784  78.0329437
  85.0511475  63.3197136  78.6964493  85.1828461  64.1610260  77.4451141
  68.7601929  26.6837749  31.3732815  68.1008835  26.4547291  30.7182407
  68.2533875  26.9385624  32.1442947   6.3062706  39.2385712  41.9928055
   6.6548920  39.5446854  41.1555557   6.5426764  38.3116226  42.0261536
  72.6540070  64.9244614   7.2265110  73.2491989  64.7583160   6.4955068
  72.0544968  65.5952225   6.8995495  32.1253510  70.9580307  89.4518051
  32.0316238  70.3223648  88.7423172  32.9986763  71.3293991  89.3268433
  65.9630508  56.5734138  53.2175522  66.1653137  55.6904221  52.9082832
  66.8051987  57.0283546  53.2107162  83.6395798  62.6991348  64.1180115
  83.0088043  62.7724609  64.8342285  84.4506989  63.0606575  64.4752502
  74.2430038  43.9182320  47.9034729  74.4613571  43.3178864  47.1906319
  75.0879288  44.2595062  48.1964836  55.6982574  50.3839874  79.4686508
  56.5852089  50.1941376  79.7744370  55.7084999  50.1461601  78.5415268
   3.9155548  67.3298416  69.0987320   3.8055372  68.2780762  69.0281219
   3.5875859  66.9880753  68.2669449  24.3948803  46.0492668  64.5631790
  24.9696198  45.6011772  65.1837616  23.6717834  46.3753891  65.0989075
  74.8290176  31.6876774  24.4479694  75.1846237  31.5445938  23.5708694
  75.4506149  31.2534847  25.0322018  71.4799881  33.8661194  54.1968422
  70.8066406  33.6933632  53.5388260  70.9906006  34.0303993  55.0029106
   6.7402954  58.0497551  12.5105743   6.9678140  58.0673752  13.4401741
   6.1451159  58.7905464  12.3955812  39.3210564   4.6069865   3.3181181
  40.0932541   4.2910328   2.8489559  39.3653488   5.5597997   3.2380130
   2.2055154  25.3151875  76.9316330   2.9262869  24.9081841  77.4123306
   2.5487375  25.4415703  76.0470657  24.6992016  69.1267853  88.3912811
  24.4245052  69.2914200  89.2933121  25.4074707  69.7523193  88.2386398
  81.9438400   1.7859805   8.4820366  81.6767578   2.2863557   9.2530899
  81.5663452   2.2640724   7.7436867  71.5199890  39.9706993  68.6554794
  71.0203705  40.5504112  69.2304153  71.3468552  40.3004913  67.7737274
  61.1826591  52.3754692  32.6152229  61.5531158  52.1656570  31.7579174
  61.2205620  53.3306046  32.6652679  41.8553085  42.7628098  20.0257645
  41.7469139  43.2017670  19.1820812  42.7722778  42.9111176  20.2568531
   5.9925909  52.3822365  46.4195976   5.2665091  52.5550079  45.8202744
   6.6889620  52.0391922  45.8595810  47.5978737  41.8785095  53.3532372
  47.2106972  41.3385544  52.6641998  46.8794975  42.0365753  53.9657593
  86.3075104  50.4209862  28.0498486  86.0943069  49.6322594  27.5511684
  85.4662170  50.7220345  28.3931160  35.5618286  69.9026642  46.6037903
  35.9270477  70.7431488  46.8802528  35.0915337  69.5812225  47.3730278
  44.8246078  44.4404831  82.9036636  44.4104156  43.9356880  82.2037659
  44.0949478  44.8552170  83.3639069  19.3737068  35.8347435  75.3856583
  19.0084438  35.3512306  74.6446915  18.7382851  36.5304604  75.5543137
   5.9176631  65.2517776  31.5386868   6.5467229  64.5439911  31.6785412
   6.0950217  65.5575562  30.6491508   4.0205207   0.8926848  70.3735809
   4.2786393   1.7092283  69.9459534   4.6119595   0.8171095  71.1223984
  39.8062935  32.3382912  10.1723413  40.3244247  33.0770416   9.8529301
  39.6523438  31.8001900   9.3958263  80.7800140  40.9521561  81.3149033
  81.1355896  41.2835388  82.1395111  79.8529205  40.7996979  81.4979095
  84.9157867  39.8767700  65.4699478  85.1414490  40.7990379  65.5912933
  84.4154663  39.8579483  64.6541290  38.5898743  24.0622044  87.5124207
  37.9330330  24.7490768  87.3984070  39.0642319  24.0440712  86.6812286
  86.0867538  66.9405518  46.1826096  86.0147705  67.7207870  46.7324104
  86.9899673  66.9531860  45.8659401   6.9190564  38.7659111  58.2311859
   6.8048906  37.9427109  58.7060966   7.0324416  38.5019264  57.3181190
   7.6090031  35.1717834   3.1834171   6.8619437  34.8100243   3.6601384
   7.5648670  34.7596703   2.3206055   4.8391609  21.1663494  71.2414856
   5.3448858  21.9788761  71.2580566   5.3035741  20.6078529  70.6180801
  69.4724655  24.4179897  74.6760101  70.2875748  24.9184494  74.7129517
  69.7530594  23.5028400  74.6765823  39.9260292  10.6828918   3.1955199
  39.7256165  10.7111874   2.2599635  39.1677589  11.0891485   3.6152952
   0.6352562  42.5621262  27.6392708   1.2490339  41.9192085  27.9944706
   0.2863479  43.0110550  28.4093056   6.1409693  39.5528526   9.8651695
   6.7615170  39.4589806   9.1424379   6.6838050  39.5191917  10.6528416
   7.3313313  55.7087440  79.7152023   8.0173693  56.0404587  79.1359329
   7.7629647  55.6060448  80.5633621  33.0172539  55.2572632  64.5421448
  32.4535332  54.9490547  65.2516937  33.4473534  56.0346413  64.8984146
  65.4056396  12.6080379  27.9812775  65.1535339  13.3247299  27.3990173
  64.8195953  12.6929827  28.7333221  12.0483894  53.4995117  19.6430397
  12.3626814  53.6767197  18.7564449  11.6397181  52.6359444  19.5841484
  33.8603172  23.1321201  81.3836288  33.2620697  23.1012878  80.6370544
  34.7131233  22.8986053  81.0169830  73.5503540  65.6594467  26.0236950
  74.2465363  65.0955887  26.3607788  72.7455521  65.2889938  26.3860474
  39.8200531  51.7096519  28.4911232  40.0497856  50.8496170  28.1392765
  40.6259155  52.0237007  28.9012375  74.3013382  27.4969826  28.4627228
  73.5115738  27.7248802  27.9722404  74.7907944  26.9217148  27.8747349
  14.8410397  57.3416405   8.8343525  14.8245134  56.7588005   8.0752382
  15.2855635  56.8360977   9.5148363  84.1572113   8.2050266  48.5209694
  83.3323135   7.9390378  48.9272118  83.9818115   9.0792789  48.1729012
   6.5753784  50.6083984  61.7036133   7.1223760  51.3898926  61.6243172
   6.9942083  49.9639854  61.1330452  64.0305557  62.3079948  83.7655334
  64.3989944  61.4791374  83.4597855  63.5511818  62.6498871  83.0108490
  38.6018257  36.3178368  80.0055084  38.0236168  37.0581436  79.8215179
  39.4661865  36.6117821  79.7179260  75.5991821  18.7196083  41.4753265
  75.7895584  18.9071617  42.3944626  76.3845444  19.0007629  41.0058632
  20.9526443  43.5874367  74.6319656  20.7260036  42.8824425  74.0254593
  20.1316299  44.0607758  74.7665558  15.7880144  49.8098869  84.6855011
  15.3722219  49.6073151  85.5235443  16.6244488  50.2097855  84.9235916
  59.7463531  37.6926804  48.2585945  60.1251106  38.2072716  48.9713173
  60.1044464  36.8135223  48.3813858  40.9529839  34.2492027  63.9556580
  40.8102531  35.1684837  63.7303047  40.0726967  33.8914185  64.0710449
   6.3385682   0.9535591  11.2649384   5.6074071   1.5401778  11.0712557
   5.9577475   0.0761229  11.2287025  84.9880142  57.9611053  54.3224640
  84.0823975  57.9450378  54.6320419  85.4316711  57.2930756  54.8450813
  48.1527596  70.9170837  38.1455994  48.1239014  71.0695801  37.2010689
  48.7170906  70.1506500  38.2473412  71.6875610  46.8013992   0.5651675
  71.8393021  47.6988525   0.8614590  72.5640793  46.4474640   0.4145716
   9.4549646  69.0076065  17.0254326   9.0300379  68.6938400  17.8236904
   9.5322142  69.9533768  17.1511040  72.0128021  16.5600567  19.2953472
  71.6614685  17.1774960  18.6538105  72.6813965  17.0579662  19.7657719
   5.5121589  69.4785156  34.8947678   4.9134893  68.7878494  34.6104965
   6.0800862  69.6291885  34.1391296  59.9957848  66.5647583  14.7035522
  59.1535339  66.5769424  15.1581879  60.0529251  67.4223022  14.2821465
  23.0237904  50.4785118  57.6183701  23.0430374  51.0067825  56.8203773
  23.4717827  49.6671028  57.3793182  55.1764946  60.9510307  34.1112061
  55.5087357  61.6002998  34.7311211  54.6334381  60.3686485  34.6423836
  84.3035736  19.7074718  67.7110291  84.5912018  20.5805206  67.9780197
  83.6766891  19.8671608  67.0055161  75.8461075  58.5249519  56.6428108
  76.0877686  59.4473190  56.5587349  74.9913406  58.5395927  57.0733795
  83.4875641  66.3331909  87.4566956  82.8532181  66.9880524  87.7482376
  83.6105652  65.7640228  88.2164001  56.0945015  59.4563828  42.9003220
  56.8216133  59.3069992  43.5046616  55.3272209  59.5442200  43.4658279
  49.1955795  38.3717957  35.7745857  48.6668549  38.3781090  36.5724831
  50.0000420  38.8305511  36.0167007  81.6543579   1.3380786  75.9217529
  80.7441788   1.5042733  76.1670837  81.7579269   0.3908966  76.0131454
  77.0441132   3.0533707  35.2848740  77.5538940   2.6862082  34.5626869
  76.1326141   2.9494452  35.0117493  74.9249954  27.5659523  73.4699097
  75.8227463  27.4173889  73.1729279  75.0103989  28.1974812  74.1841354
  36.9961395   8.7191544  80.4821014  36.1062889   8.9678993  80.7321548
  37.0302429   8.8692141  79.5373535   6.8390293  37.2928314  76.2017212
   6.1517239  37.7626762  75.7294006   6.5131106  37.2307129  77.0995789
  64.1409607  23.2885513  44.4683380  65.0066986  23.4166985  44.8560295
  64.0858383  22.3458691  44.3116684  23.2929039  19.3086662   3.1298707
  23.8312721  19.3877392   2.3423817  23.3204517  18.3766499   3.3462462
  46.0592728  39.4895554  81.1965714  46.7990532  40.0840034  81.3214340
  45.9080811  39.1102028  82.0622864  51.2366943   9.6495991  67.4946823
  52.0920982   9.2636728  67.3060684  50.8549194   9.0736923  68.1571121
  36.5379753   1.9333793  75.5458603  36.6107101   2.5275679  76.2927704
  36.4459343   1.0652720  75.9384766   4.9829412  14.5055056  64.9909744
   4.9398265  13.6247635  65.3633499   4.1092191  14.6560287  64.6301575
   0.7358702  33.0333176  76.4307098  -0.1867179  33.2834358  76.4807434
   0.7433248  32.1009216  76.6470795  66.1012039  43.8282051  39.8529205
  65.4227829  44.1496124  39.2590523  66.6605759  43.2795944  39.3030472
  54.9027863  18.5693607  42.8904572  54.9544830  19.4335384  42.4820938
  53.9731712  18.4521790  43.0862007  25.1859074  13.3388004  89.6192322
  25.8303127  13.7930088  89.0764008  24.5482597  12.9925785  88.9949188
   5.3552513  38.4032593  65.4919128   6.3026762  38.5267754  65.4339294
   5.0652037  39.0661163  66.1185913  55.3504753  24.5848866  59.7959747
  55.2875099  24.9489994  58.9129753  55.2599220  25.3421936  60.3743515
  11.4466047  11.6642780  81.7252045  10.9751673  11.1256886  82.3607330
  12.3534012  11.6578131  82.0316467   7.7550087   7.8473659  56.1814575
   7.8745289   7.4151111  55.3358192   6.9036422   8.2792339  56.1114845
  29.3597698  62.5518303  85.6642303  29.1598091  62.3372879  84.7530670
  29.2799034  61.7191048  86.1294479   7.9520044   6.6217861  39.1253815
   7.3142796   6.4720383  39.8233147   7.5852776   7.3451896  38.6170197
  22.7675285   2.3799579  13.8080587  23.2878361   2.7165523  14.5375900
  23.4143181   2.1253211  13.1499901  11.7174797  41.5835419  28.7491646
  11.4305973  41.3821411  29.6398773  12.6705933  41.5007591  28.7800369
  24.1914043  62.1938782   7.9465814  24.5285759  63.0730171   8.1188126
  24.8872833  61.6078987   8.2442532  83.9258270  36.0957451  72.3892365
  83.9192429  36.9065170  71.8804703  84.2540436  36.3557663  73.2499847
  36.6257019  53.9068565  34.5599060  36.6515923  53.2753143  33.8410759
  36.7608681  53.3793793  35.3471336  79.5070953  47.4671669  86.0421524
  78.9195557  47.9005623  85.4231262  79.3025436  46.5361633  85.9548416
  22.4958916  41.3259239  16.7761288  22.3465405  40.4191704  16.5083103
  23.3839817  41.5208588  16.4769192  53.8361397  39.0662193   0.7315971
  54.6466827  38.9462013   1.2264177  53.1827660  38.5617294   1.2161812
  59.4102745  33.7564278  29.8710346  59.8405228  34.0615883  29.0722885
  58.6370926  33.2847023  29.5613594  77.5979462  36.0622406  15.7839165
  77.1878815  36.7024040  15.2023096  76.9250488  35.8650551  16.4354935
  84.7103806  11.6607275  25.3565731  85.0099106  11.0857162  26.0607605
  84.0350800  12.2044573  25.7622337  47.0417366  55.9017334  56.1500435
  47.4614258  56.6590157  56.5582352  47.0355911  56.1064034  55.2150002
  31.8405724  12.2483253   0.9324966  31.4173794  12.3116293   0.0762658
  32.5515671  11.6207848   0.8024459  53.4720001  18.9384766  78.6183167
  53.3977089  19.3190002  77.7431488  52.6059341  18.5705624  78.7938232
  48.9295769  24.7646523  83.1102524  48.3311386  24.6164207  82.3780365
  48.6362648  24.1541939  83.7866669  76.5194016  27.9491577  47.3552475
  76.8606262  28.5636520  48.0050125  77.2984238  27.5297146  46.9899826
  63.4985428  36.9681664  62.3632240  63.5697746  36.0963936  61.9744186
  63.5820236  36.8179970  63.3048782  72.3027573  21.8906994  12.7005768
  72.6825409  21.5984573  13.5291843  71.3745422  22.0203781  12.8950729
  80.4819946  58.2548218   0.6031247  81.1347656  58.7335358   0.0922813
  80.9525909  57.9702530   1.3865749   9.3374834  66.5552673  43.9357719
   8.7412996  65.8091736  43.8714676  10.0062246  66.2743454  44.5603523
  41.7877617  46.6747780  15.6014109  41.7955513  46.3988762  16.5179539
  42.6521873  46.4308472  15.2704992  38.4585609  54.7605858   5.1843071
  37.8825645  54.9863739   5.9147038  39.3001022  55.1558838   5.4118695
  84.9312897  34.5703545  83.3182526  84.2719955  35.1218376  83.7394791
  84.9322052  34.8540077  82.4040451   0.1114025  13.5684729  50.9925385
   0.6552659  13.9942760  50.3298645  -0.1322545  14.2739534  51.5918388
  20.0687141  11.1024141  73.5927963  19.9373550  11.4795055  72.7228622
  20.9294739  10.6863222  73.5459976  67.4704590  17.1638508  60.1699715
  67.9049911  16.3930244  60.5349884  67.4328232  16.9943047  59.2286568
  72.0725555  60.7003746   3.5857437  72.1895828  59.7580605   3.7065065
  71.1248093  60.8175888   3.5204027   2.2801249  28.7776031  81.3205490
   2.0727394  28.1616230  82.0232468   3.2366562  28.8096676  81.3046951
  47.8764076   7.7688336  86.2394028  47.5152664   8.6511087  86.3254166
  48.2074165   7.5593324  87.1127701  12.6740475  71.1562195  40.2141800
  12.8440628  71.1656189  41.1561127  12.6442289  70.2272263  39.9854431
   6.3016152  40.9854431  74.9369431   6.1236062  40.0466690  74.8799744
   5.8866878  41.2586823  75.7551193  57.6829681   8.0377064  64.5085678
  57.2098427   7.2204456  64.3521347  58.2189789   7.8599820  65.2814484
  80.3778992  14.9349098  45.5410614  79.9583435  15.5881510  46.1009560
  81.2668381  15.2655745  45.4119186  37.4107399   0.2621410  16.7739620
  36.5643501   0.3821768  16.3433285  37.7166100  -0.5914388  16.4672413
  66.1600342  63.9406052  44.9038620  66.4548721  64.4597397  44.1556664
  65.2785110  64.2650223  45.0879936  27.5423107   8.0811911  12.3574352
  27.5184669   8.9574699  11.9729891  28.4745960   7.8764930  12.4293795
  28.5775318  64.8112106  43.0136032  29.4719009  65.1508255  42.9819946
  28.6540947  63.9063568  42.7109375  63.2695389  42.7208748   5.5358844
  63.4202881  43.3941803   4.8724370  62.8198204  42.0183792   5.0663223
  79.0888748   4.2153878  69.0241928  78.1348877   4.1648321  69.0840530
  79.3466568   3.3929062  68.6078949   7.5424199  60.1506538  68.4881897
   7.3350034  60.0098648  69.4119797   6.6942878  60.3092346  68.0737610
   2.7381852  34.6954880  59.2988281   3.1956122  35.0751038  58.5485725
   2.1691928  35.3981628  59.6130333  84.4259033  40.7371864   1.8788301
  84.8487396  40.4801331   2.6981986  83.5396957  40.9914856   2.1361351
  50.3410950  69.2901993  62.1288757  50.6055374  70.1726151  61.8687820
  50.7504807  69.1598282  62.9842339  81.2254486  19.9412766  67.2585144
  81.2186432  19.0133972  67.0235062  80.7695923  19.9787445  68.0993576
  83.6736069  43.8884773  82.4246750  82.8565369  43.9633789  81.9317017
  83.4435349  43.3635139  83.1912994   1.3701279  66.9797592  85.5718155
   0.5171548  66.6542969  85.8594666   1.6873527  67.5032120  86.3077545
  49.1038322  59.3753738  34.6833458  48.6312256  59.6147346  35.4805756
  48.5928192  59.7672806  33.9751740  82.0402298  15.0762310  61.4731903
  82.7058640  14.8479624  60.8243027  82.3871155  14.7414265  62.3001175
  29.5115376  69.9803848  84.3377914  29.9298115  70.3101730  83.5424805
  28.6306591  69.7302094  84.0590439  16.9764671  68.2998886   3.5252717
  16.5865479  67.4335022   3.4087296  17.3292007  68.5216751   2.6635175
  57.4069977  12.9481754  71.6722412  58.2423782  12.4858751  71.6040726
  56.8575516  12.5508709  70.9965973  85.4391785  61.7830849  42.5493774
  85.9772873  61.1113510  42.1305161  85.2061310  61.4081078  43.3986778
  76.3526230   8.2428198  87.9492264  75.9591141   8.8627529  88.5632782
  77.2861328   8.4541321  87.9607620  18.1504211  66.2450562  73.5816040
  19.0711555  65.9898605  73.6395187  17.8677864  65.9289474  72.7234497
  30.9372158  17.4951458   7.7237396  31.1513767  18.3740635   8.0365820
  30.0006981  17.4006100   7.8976083   8.3942099  71.6765366  13.1077728
   8.4193087  70.7321167  12.9539261   7.7914376  72.0114136  12.4438820
  55.8935432  70.6269836   8.2734976  56.0929222  71.3240891   7.6485782
  55.1059074  70.2101364   7.9240689  69.9902878  11.6078653  11.1457586
  70.4253693  11.5522614  11.9965487  69.3056259  10.9399624  11.1827688
  71.4670181  38.3603477  13.1186552  71.3985443  39.0915794  12.5047770
  70.8106461  38.5485268  13.7894773  74.4046173  32.1459007  40.6914444
  74.5788116  32.5226593  39.8289223  74.1633530  31.2372303  40.5116081
  25.8071861  18.8236275   9.4966192  26.6477146  18.5678844   9.1166973
  25.4971790  19.5345688   8.9356470   7.3844266  66.4255829  83.8318176
   7.2497563  67.0370331  83.1077881   7.7377605  65.6381989  83.4177856
  37.4677391  13.0190172  66.1738052  36.9061394  13.7926960  66.1262817
  37.9650879  13.0334749  65.3560867  69.0142593  39.7298622  76.6224976
  68.2639923  39.3388481  77.0702057  69.2747421  39.0748787  75.9748993
  44.0289574   6.5110750  87.2605896  43.5917816   6.3894296  88.1033859
  44.2692680   7.4375172  87.2469330  55.0609360  24.6240635  79.1840363
  54.9393730  23.7200966  78.8936920  54.4244804  25.1266041  78.6754990
  83.8526535  20.4169483  71.0912323  84.6537552  20.2587929  70.5917740
  83.2881088  20.9035892  70.4906540   1.2936685  54.5984688  29.6885967
   1.6215495  55.1081047  30.4295425   1.4737087  53.6886406  29.9253044
  26.9555225  52.1174812   6.8347993  27.7712917  52.1089935   7.3354802
  27.0624542  51.4174309   6.1908059  74.0026474  59.7672882  65.2671356
  74.2080307  58.8334923  65.2215881  73.7481155  60.0003662  64.3743210
  55.9665527  12.0921803  80.6913300  56.0040665  11.5278215  81.4635544
  56.8258705  12.5126858  80.6600189  69.1149292  16.3865814   9.4604006
  69.8616562  16.7945881   9.0220394  69.2632980  15.4462032   9.3608627
  54.8333282  63.4285202   9.2749119  53.9669533  63.2895927   9.6574402
  54.9044876  62.7596970   8.5938501   3.1286159  66.4923172  48.9855270
   4.0210404  66.2792053  49.2582817   2.8371007  67.1523514  49.6144981
  28.8940182  29.5929813  67.8355560  29.4176884  29.1387081  67.1755219
  28.0384235  29.7109108  67.4228973  53.7452202  59.0819511  35.6122894
  53.8244247  59.2906380  36.5430984  52.8992996  58.6403961  35.5369644
   1.5262597  55.3027229  76.6550980   1.3392667  56.2405052  76.6978531
   1.2049108  55.0334091  75.7946091  74.8798294  20.1865139  63.2687912
  74.6475601  19.2687149  63.1276245  75.7834930  20.2550049  62.9606934
  25.3357601  61.5486259   0.9363976  25.8056774  61.8411102   0.1554606
  25.8308525  61.9195747   1.6668158  31.2632561  47.5060806  76.6837845
  31.7443657  48.3223038  76.5476227  30.3565063  47.7819939  76.8176041
   2.0757072  67.4752426  60.0620880   2.3923335  67.2316360  60.9319344
   2.6679182  68.1715088  59.7779503  53.1928711   0.9006467   0.5606521
  52.2524719   1.0107503   0.7012258  53.3581924  -0.0213154   0.7578471
  59.8635635  50.6795959  48.6495552  59.0919762  51.1641197  48.9430161
  60.5275154  50.8608284  49.3148003  42.1260910  64.6511154  57.4547043
  41.9241142  63.7667084  57.1493149  42.2957802  65.1479568  56.6543388
  56.5483780  20.8920364  20.7949562  56.9931641  20.8023777  21.6377831
  55.6300125  21.0364475  21.0229549  39.1156731  50.8028793  34.6864700
  39.8771896  50.3381844  34.3395042  39.4343567  51.2213707  35.4861794
  51.2999649  18.2505093   4.9857974  51.0662346  19.1749611   4.9021950
  51.8199043  18.0632896   4.2042322  46.7567368  26.0132179   5.2649078
  46.5133934  25.0927410   5.1662211  46.2747536  26.3068142   6.0380359
  73.8068771  49.2433319  70.8761215  73.0419617  49.7904701  71.0543900
  74.0338974  48.8649368  71.7255402  28.9117527  60.9174728  29.8810635
  28.9188042  61.6489868  29.2637558  29.5314999  60.2875900  29.5131130
   2.1565711   6.3105874  72.1482697   1.7143469   6.0721989  71.3335037
   1.4647061   6.6797328  72.6971664   9.8926878  54.6243324  41.3950119
  10.7654533  54.9953461  41.5248604   9.5337172  55.1106033  40.6527748
  17.1699200   3.4066143   5.9710436  17.5921078   4.0105381   6.5819979
  16.8343315   2.7015412   6.5246544  41.3091660  58.3768578  76.8557510
  41.1079178  59.2076645  76.4250641  40.7863464  58.3898621  77.6574478
  46.2455406  62.9502792  49.3009109  46.3591232  63.8951530  49.4035988
  45.3561249  62.8514786  48.9611816  70.8757401  18.5081692   7.8847704
  71.1868820  18.7464714   7.0114803  71.5917511  18.7555275   8.4698982
  49.3436737  49.0581894  25.6782665  49.2085991  48.1205597  25.5410347
  48.4627533  49.4114227  25.8025208  73.1933212  26.9393845   9.6813097
  72.8316727  26.4794731  10.4388876  72.5777435  27.6541348   9.5187378
   4.5622706  48.7652626   5.4912362   5.4750562  49.0454559   5.5586724
   4.4286308  48.1993904   6.2516036   4.4114151   2.3717241  79.3327713
   4.3046279   2.2345152  78.3914948   4.9670873   1.6467752  79.6189728
  77.3924332  63.5388985  43.2333565  77.3552094  63.0393448  44.0490112
  77.0524521  64.4029236  43.4659462  59.1423836  32.5376320  25.4153767
  58.5440636  32.9906235  26.0095539  58.5687065  32.0753326  24.8043079
  16.8656521   8.5193672  78.3579636  17.3895512   8.8637686  79.0812531
  16.6825752   9.2826624  77.8101578  77.1680298  12.7502394  51.7407417
  77.9999771  12.4350967  52.0939865  76.8646622  13.3941784  52.3806953
  54.9796104  42.0025177  50.0299110  55.8294373  41.6302223  50.2653275
  54.6348953  41.4093628  49.3623962  45.4348450  24.1440392   8.5458593
  45.7515831  23.3658104   8.0873060  45.5280342  23.9296303   9.4740715
  35.5643578  67.5546188  16.0615959  36.2579231  67.4001999  15.4202299
  34.8495598  67.9384384  15.5536728  53.6336136  63.9449043  58.8973122
  52.9988213  63.6944008  58.2261047  53.8915901  63.1175308  59.3036766
   6.1063714   0.1679883  79.7621002   6.7768183   0.6463762  79.2743759
   6.0255990  -0.6673604  79.3017731   3.4419055  36.2597847  22.5602531
   3.3551633  37.1121025  22.1333351   3.3584113  36.4502983  23.4945793
  72.0829468  28.5537796   5.9109159  71.8247375  29.1322651   5.1933403
  72.4649429  29.1391544   6.5648613  26.5987091  53.2850800  31.7999783
  26.1092701  52.4678078  31.8935146  26.1605301  53.7461472  31.0846806
  28.9311638  59.8414383  86.0613708  29.1418934  59.4697113  86.9179001
  28.1780319  59.3340263  85.7587891  73.0900116   8.5521431  57.7086029
  72.8596725   9.1799402  57.0237312  74.0441284   8.6012793  57.7675018
  45.0727768  37.7042084  58.8280716  44.4054108  37.0208969  58.8908348
  45.5391083  37.5095978  58.0151176  46.5896759  34.3251801  23.5642624
  46.4767570  33.7267380  22.8257866  47.4899788  34.6397400  23.4821415
  70.6402969  11.9766636   2.0218649  70.1523743  11.8245497   2.8311992
  70.5548325  12.9168406   1.8637735  51.6919365  53.3934669   5.2747111
  51.9115562  52.6996002   4.6529794  51.5497208  52.9362144   6.1035213
  83.9642334  17.2469349  13.5177708  84.7180710  17.0536594  12.9604511
  83.4184341  17.8289757  12.9890318  41.0510292  68.1522980  78.4508514
  40.4434471  67.6148453  78.9590073  40.9859505  67.8096390  77.5594635
  24.2122955  63.2131004   4.8863378  24.2186184  62.8295898   5.7633281
  24.0665169  64.1474533   5.0345645  75.0506058  40.8828545  77.6602020
  74.7250061  41.7691345  77.5029602  74.3398285  40.4463692  78.1297913
   2.9898231   9.8956614   4.7473416   2.3030505  10.1524029   4.1319890
   2.7396498   9.0168190   5.0324421  56.0534401  12.7022219  46.8962746
  56.9368515  12.5999517  47.2503357  55.5111465  12.9016190  47.6594238
   7.3658943  63.9353142  86.4454498   6.6722498  64.5409698  86.1841583
   8.1323595  64.2198410  85.9476395  30.8278637  66.2115555  39.7962456
  31.0550613  65.7526474  38.9875298  29.8837280  66.0830002  39.8874359
  45.0171013  12.1103878   3.4760904  44.9786911  11.7754326   4.3719482
  45.4434967  12.9635010   3.5574331  62.5893745  52.2463455  66.3711090
  61.8061562  52.2126999  65.8218689  63.1746445  52.8523941  65.9168015
  82.1924133  59.0200996  14.9807396  83.0987778  59.3266525  14.9530849
  81.6958237  59.6992760  14.5242853  25.8954544  68.0042267  18.0751476
  25.2100506  67.3601837  17.8972168  25.5400085  68.5432434  18.7817974
  52.6320877  12.9759350  77.2648849  51.7563972  13.2111273  77.5716171
  53.2202454  13.3038359  77.9451675  81.5273056  26.2973919   8.7907772
  80.8876343  26.8346329   8.3234129  81.2363739  26.3173733   9.7024746
  27.4400291  47.2081070  62.9275589  27.3291969  46.6780777  62.1382446
  26.8104191  47.9220467  62.8270035  78.0645905   4.9663219  82.9050446
  77.6275253   4.9730258  83.7566071  77.3692474   4.7595644  82.2805634
  82.5728989  57.8436127  56.2450714  81.9811249  57.6125450  56.9610634
  82.4077759  58.7733612  56.0884438  70.3765717  52.6886787  28.2578812
  69.7923126  53.2143936  27.7115345  69.7899933  52.1257172  28.7630844
  61.8638802  45.9407806  39.5926132  62.6494026  45.5978279  39.1665001
  62.1011047  46.0030136  40.5178604  65.8824844  16.8060112  56.5966034
  65.4922943  17.5162659  57.1060371  65.1532440  16.2134113  56.4142303
  16.9817505  45.7318840  39.4690285  16.9274998  46.6830635  39.3765793
  17.4467087  45.5976448  40.2948799   4.8760972  70.7950439  82.9210510
   5.3357797  71.5825882  82.6300049   5.3404212  70.0751114  82.4940491
  84.3286591  53.1020851  87.9079742  83.5688858  52.9778862  87.3391647
  84.0528259  53.7724190  88.5331116  44.8884773  49.7172432  34.5927048
  45.5800171  49.7339401  35.2543144  45.3519630  49.8027382  33.7595749
  27.9360104  66.4153137  67.3646393  26.9970074  66.4157104  67.5503922
  28.0401993  67.0500183  66.6557541  51.9091606  28.2060032  85.7052765
  51.1646004  28.6144772  86.1468811  51.5981560  27.3317280  85.4704361
  63.5761909  15.5029802  56.5078964  63.7671814  15.2736044  57.4173698
  62.8739586  16.1507835  56.5666656  13.3222160  35.0361786  10.5119505
  12.8654928  34.8214645   9.6986027  13.2417049  34.2468491  11.0474062
   0.4741853  39.6133537  67.0850830   0.9480519  40.2040443  66.4996185
  -0.1462945  39.1585121  66.5155640  39.3035698  60.8797302  17.7130508
  40.0188179  60.3611374  17.3446541  39.6222229  61.7818680  17.6841087
  26.7937717  27.4103432  78.1749649  26.6971169  26.8576679  77.3994446
  27.3201199  28.1520119  77.8764420  43.8399124  64.4392166  16.2953854
  43.3352890  64.8564835  15.5971861  44.4960365  63.9149284  15.8362007
  54.2397995  31.7744579  61.9024277  55.0283661  32.2089272  62.2274323
  53.7955818  31.4630985  62.6910744  30.4686909  54.8572235  21.2476406
  30.3279114  55.4234238  20.4888077  31.3308449  54.4685478  21.0998058
  43.7616806  61.9780884  52.4151535  43.1971931  61.4361610  52.9664192
  44.6109276  61.5369492  52.4352188  77.6564407  65.0522461  30.9315281
  77.4921112  64.7373505  30.0426693  76.9754791  64.6384964  31.4619331
  38.3577118   4.8402324  57.8374481  37.6438103   4.4015322  57.3747139
  38.8316956   4.1319127  58.2731705  86.1169815   3.8301280  71.5046463
  86.2466278   4.3206215  72.3163376  86.0591660   4.5020647  70.8253937
  19.2553234  71.7306366  36.7742310  19.3581009  72.1550522  37.6260147
  18.5753174  71.0719147  36.9153481  18.7167282  50.7463722  49.8812599
  18.8148289  50.0394859  49.2433586  18.6917820  51.5440979  49.3528252
  31.2551746  46.0800209  29.0126724  31.3465385  47.0116692  28.8128853
  32.0981789  45.6986771  28.7674160  18.4413471  61.3046913  34.2983017
  18.3981190  60.3564720  34.4217606  18.5139637  61.4197998  33.3508263
   8.6533918  52.2939644  37.3656464   8.2599497  51.4808502  37.0489731
   8.9393263  52.0907097  38.2562447  45.6068192  15.6997337  69.0570831
  46.3319817  15.2355833  68.6388321  46.0157356  16.4601746  69.4703064
  24.1630440  31.3370705  66.9707642  23.9714642  31.8944359  67.7249985
  24.4164715  31.9485416  66.2793045  35.0026436  45.7851944  34.2594032
  34.4287262  45.6935921  33.4988365  34.8827209  46.6917877  34.5421371
  81.7566147  39.6568146   5.0944219  80.9457932  39.9106598   4.6535530
  81.5277557  38.8633919   5.5785007  35.8866692  57.4737740  28.5626297
  36.3192787  58.2029076  29.0069771  35.8439102  56.7822342  29.2230644
  37.4824409  67.2276993  57.0231552  37.9809151  67.6673813  56.3343582
  36.5694313  67.3097305  56.7476196  33.4608994  47.3823547   9.4112682
  33.3053093  46.4425354   9.3176737  34.2806168  47.5373306   8.9419355
  78.6817093  37.4183655  34.4538078  79.0652542  36.9381943  33.7199402
  79.3086472  37.3048248  35.1681557  77.0063019  32.0191383  85.2471466
  77.1994095  31.9265385  86.1800766  76.0648422  32.1886444  85.2131042
   5.5752740  63.1737442  41.4491730   6.2014656  63.2799072  40.7330437
   5.9714069  62.5134697  42.0178108  73.6520538  28.5431671  50.7368011
  74.0731735  27.7634754  50.3749008  74.3084412  29.2339115  50.6459236
  68.6925049  53.2010536  24.3872070  68.2015686  53.9728775  24.1052456
  68.6796799  52.6184502  23.6278400  38.5967255   6.7879767  77.0205841
  38.6466331   5.8321738  77.0070724  37.6616325   6.9800100  76.9502106
  43.4800568  71.0161591  18.6026859  43.5718040  70.0680618  18.5082359
  43.7110825  71.3660507  17.7421989  30.6070728  70.6980667   2.6744015
  30.9747982  71.2625580   3.3543696  31.2211170  70.7719345   1.9438368
  53.6925392  14.4126539  14.9600925  52.7399368  14.4772635  15.0279589
  53.9371300  15.1097860  14.3514757  36.9091721  64.8373566  69.7034073
  37.6084290  65.1748657  70.2631912  36.4513435  65.6191101  69.3944168
  13.2511482   4.7977667  10.8528347  14.1469421   4.5796285  10.5955400
  13.0058937   4.1106887  11.4725161  39.6867218   8.4136992  60.2482529
  39.1200333   8.6360588  60.9869347  40.5097771   8.1385660  60.6521301
  12.6043463  64.0939407  43.9267807  11.8742247  64.1189270  44.5452728
  12.1902714  64.1443939  43.0652542  85.2669449  32.8148994  68.2824860
  85.5629578  33.2795906  67.4997482  84.6896439  32.1279526  67.9492340
  39.9802895  68.1170273   9.8855696  40.2756271  68.9722748   9.5732307
  40.7092972  67.5271454   9.6936874  33.8191681   0.3463216  22.0405540
  33.9057655   0.8882195  22.8248234  34.6953125   0.3410980  21.6550999
  44.4985580  61.9367676  11.7611160  44.0976982  61.1082458  11.4982662
  43.8091316  62.5880699  11.6317883  69.8064041  46.4218407  46.8499336
  70.1970367  45.6604652  46.4210434  68.9070969  46.4457283  46.5229759
  49.5908775  40.9386597   2.5362036  49.0672035  40.4093895   1.9346459
  50.1918716  41.4217758   1.9690725  70.6967926  66.9112473  54.3370476
  70.3078918  67.5947266  53.7912903  71.6405487  67.0173645  54.2175064
  49.7412262  68.2751160  13.7633467  49.3390465  69.1355972  13.8819370
  49.7685318  67.9001236  14.6436129  83.6499863  40.9460602  29.0678272
  84.1347198  40.1532288  29.2973557  83.2315979  41.2160873  29.8853035
  26.7287178  32.7120667  80.9993515  26.1902905  33.4506187  81.2837296
  27.2151718  33.0464249  80.2458267  38.6029854  41.6132469  78.5213623
  38.0413361  41.3286667  79.2423325  38.0748215  41.4711227  77.7358246
  39.6364861  53.3147926  76.1669312  40.0025139  54.1958656  76.2441711
  39.0861549  53.2151146  76.9437408   3.9039981  27.6896095  85.2099457
   4.2309914  28.4266644  84.6941376   3.1823483  28.0562592  85.7208481
   6.4832869  14.8749533  85.2727051   6.4873433  15.7460947  85.6693497
   5.7242684  14.4389553  85.6600418  79.6920013  61.7956696  29.1954746
  79.4820328  61.0091171  29.6989403  80.6475983  61.7965660  29.1400452
   6.3353176  71.2010956  17.9884281   6.0122271  71.6219482  18.7851238
   6.3452649  71.9006424  17.3351593  52.8220673   1.8195566  44.7684288
  52.4233589   1.2553971  45.4309921  52.1859550   1.8356911  44.0533524
  53.7340088  63.1020050  16.1168785  54.2640953  62.7537537  15.3999672
  53.1935997  62.3629341  16.3961029  10.7523928  18.1326103  16.6265163
   9.9994812  18.2278214  17.2098618  11.5096817  18.3245869  17.1795902
   6.0393162  54.5855217  82.9203339   6.8381338  55.0488358  82.6684189
   5.3508697  55.2483711  82.8664474  40.5807724  31.6466522   2.2713468
  40.7505493  31.9994793   1.3978939  40.3608856  30.7274628   2.1197793
  72.2700882  59.3943825  86.8629379  71.9364319  60.0024376  87.5226212
  72.8647919  59.9220085  86.3298645  63.7411156   7.9748960  14.2789335
  64.4029312   7.7821665  13.6147881  64.2370605   8.3367138  15.0133410
  39.0659027  27.3278370  88.6530685  39.8550911  26.7862129  88.6603928
  38.4872704  26.8994770  88.0222549   0.3849529  65.9767685  42.9921646
  -0.2075869  65.4815598  42.4265747   0.4639133  65.4425812  43.7825050
  14.8469477  49.9909744  29.1139545  14.0287914  49.8889580  28.6276989
  14.6405621  49.6845474  29.9969826  85.3948441  21.6925430  31.9060307
  85.9330521  22.2730274  31.3678837  85.0966339  21.0132923  31.3011150
  75.5459595  41.9372482  46.1943855  76.3659058  41.5724602  46.5273323
  74.8639450  41.3973274  46.5938416  41.2262421  11.4415951  71.8213577
  42.1252861  11.2179775  72.0620728  41.3153763  12.1899776  71.2312622
  18.5736332   4.3599319  10.3953676  18.4998207   5.1298251   9.8314095
  19.4665737   4.0449753  10.2550507  41.7725792  68.9849930  22.9430065
  42.0082436  68.6411285  23.8046627  41.3031998  68.2667542  22.5186806
  79.3718796  56.5175591  50.8250351  80.3205948  56.3926964  50.8008270
  79.1874008  57.0955315  50.0846672  86.6670074  14.0678940  74.6889648
  86.8465958  14.9624443  74.3995514  85.9534073  14.1591501  75.3203812
  11.3216753  61.8311806  69.9828262  10.9827223  62.7056580  70.1742249
  12.1561604  61.7902298  70.4499359  21.7409191  41.3500519  65.6153793
  21.8069916  42.1683235  65.1231384  22.5545864  40.8858490  65.4186783
  42.1496353  55.8802261  39.2875443  42.5615578  56.5105286  38.6965523
  42.2348251  56.2746735  40.1555252  34.2746429  19.0501881  73.4520721
  34.5607872  18.3701630  72.8422165  33.7748642  19.6618748  72.9114304
  54.8373108   3.3560071  30.1506920  55.7666740   3.2568338  30.3572807
  54.7965355   4.1375480  29.5995445  65.5796661  46.6984825  62.4016953
  66.5304413  46.7781944  62.3248558  65.3875885  46.9766655  63.2972107
  44.7206612  66.2659378  78.8051605  45.5670700  66.0150452  78.4351883
  44.6134567  65.6955643  79.5663528  43.8490372  25.4988499  38.8961449
  43.5691833  26.1033859  39.5834961  44.0212326  26.0594635  38.1396446
  37.2598572  54.0314217  24.4552155  37.3838539  53.3408279  25.1063194
  36.9642334  54.7878952  24.9617596   8.3859549  48.5066605  20.0396175
   8.5306110  48.2034874  20.9359398   7.4445009  48.6728783  19.9919987
   6.6878047  62.6502380  20.9088726   7.4045477  62.2660713  21.4137764
   6.2600946  61.9019051  20.4925842  85.4236298   3.0689473  82.0529327
  85.5975800   2.3396125  81.4579239  85.2513351   3.8129683  81.4758911
  75.2923660  18.3650875  47.2374306  75.1992950  17.4782677  47.5854492
  75.8157196  18.8259888  47.8931007  60.3748474  26.3104305  19.5798721
  59.6448402  25.8800564  19.1347923  59.9860687  27.0876865  19.9810638
  24.4541988   9.1050882  25.1223984  24.4044724   8.9250956  24.1835899
  24.4169979   8.2417498  25.5340958  35.3364525  37.5841980  12.9533567
  35.8676491  36.9397964  13.4211254  35.6079483  37.5002708  12.0393114
  80.6364288  34.6097412  88.1509247  80.6404419  33.6596146  88.0348663
  79.7271271  34.8213959  88.3621216   8.0482845  68.1596603  13.8677082
   8.8532419  67.6758575  13.6827459   8.0711613  68.3103104  14.8127003
   0.2278288   7.7934704  73.6091995   0.7200081   8.4976225  74.0312881
  -0.5595787   8.2205181  73.2717819  45.6203842  53.0818977  70.8929596
  44.9240150  53.0642052  71.5494537  46.4256554  52.9544487  71.3944855
  35.4754486   6.0250030  61.0110741  35.2936211   5.2505274  61.5433884
  35.0348396   6.7400451  61.4702148  77.9240189  18.4419765  30.7704315
  78.6241455  18.5614567  30.1287308  78.3232040  17.9193020  31.4659138
   9.6230545  23.8126717  58.3932076   9.8691549  24.2462273  59.2103348
   9.9863758  24.3718567  57.7065201  32.3007431   9.1001682  74.9986954
  31.7723217   8.5020504  74.4702454  31.6844940   9.7737608  75.2863464
  35.8581505  33.5125923  61.7526817  36.3651657  34.0997925  62.3133659
  35.2446594  34.0880699  61.2958641  77.1478043  11.6946077  12.2289047
  76.7853012  12.0350733  11.4110374  76.7886353  12.2671156  12.9067421
  86.1312027  37.9946632  38.0717316  86.4298935  38.8828239  38.2671547
  86.3029785  37.5021629  38.8743286  83.8943405   4.3470316  27.2060986
  83.7126389   3.4186361  27.0601597  83.0684204   4.7871943  27.0052414
  15.7930250  54.9643822  10.3828869  16.3369274  54.3992195  10.9315157
  14.9148512  54.5893745  10.4493074  41.6461601  29.1274796  80.1244049
  41.4940491  29.9317207  80.6206818  42.5794334  28.9482613  80.2389297
  36.4058151  22.9282799  79.8287048  36.4394264  22.3162518  79.0935059
  36.9788704  22.5401001  80.4898834  60.8097572  57.2288437  51.1887703
  60.6332779  56.3199501  50.9458733  61.7646179  57.2867470  51.2221870
  60.9567146  65.5590591  57.7994499  60.0790863  65.5491867  57.4174767
  60.8109512  65.4378738  58.7376938  83.7553406  10.8593216  75.9829636
  83.6237411  11.4861412  76.6943054  83.6660004  11.3803797  75.1849976
  84.7119370   9.7084045  81.0980530  85.4413300  10.2936640  81.3022385
  84.1302872  10.2333946  80.5482330   0.3312434  15.9972534  17.6020069
   0.2089426  16.8196583  17.1277428   1.2603512  15.9893246  17.8320675
  37.1563911   0.2117541  26.9864082  37.2808189  -0.3347917  27.7623196
  37.8367424   0.8816960  27.0537338  20.0000591  45.2840233  82.2598953
  19.4898453  44.9960060  83.0168381  20.0562057  46.2346725  82.3565903
  57.2315025  68.1072769   8.3048201  57.0969276  69.0253525   8.5399065
  56.4185524  67.6724701   8.5622816  64.3239594  50.2344093  26.6321945
  63.6253090  50.6487427  26.1257839  64.0325394  49.3298950  26.7469044
  60.2385101  38.2845535  22.0486641  59.9682617  38.2956352  21.1304722
  60.4159851  39.2017517  22.2571831  54.4637108   0.8565778  16.8011780
  55.2463646   0.8766974  16.2504673  54.1615982  -0.0505185  16.7549820
  72.4612885   7.4877791  88.7010574  72.3856964   8.4192715  88.9080353
  71.6061249   7.1220117  88.9272156  76.5205688  23.0736732  70.4658585
  75.6207886  23.2110653  70.1696472  76.6357117  22.1235657  70.4493942
  43.6085320  63.1649780  62.2057419  43.5302849  64.0924759  61.9824524
  44.5109062  63.0670929  62.5096741  54.9220123  68.0450897  68.5070267
  54.1858902  67.4347000  68.5492096  54.5742683  68.8081741  68.0454865
  21.4609013  10.6194105  60.3742447  20.7108917  11.0479364  60.7866554
  21.4417362   9.7245016  60.7133675  72.9345932  15.0524359  70.9778900
  73.6936188  14.4716082  71.0303116  72.2101669  14.5317860  71.3248291
   9.4067516   9.1346893  69.8157654   9.9874573   9.5845995  70.4294434
   8.8117294   9.8170328  69.5049820  73.8575745  71.0028763  33.4516907
  73.6082230  70.3480682  32.7995529  73.3871231  70.7432327  34.2438316
  51.6163940  70.2160721   1.1970948  50.6650124  70.1905746   1.0948383
  51.9521065  69.7486496   0.4322118  67.6294174  59.5207176  18.2363358
  66.9660797  59.0624237  17.7204132  67.9506607  58.8623772  18.8524723
  10.7488861  38.9018326  68.0041275  10.3919258  39.7654152  68.2115860
  10.7032719  38.4192162  68.8294907  80.1052628  20.2368774   0.1160542
  79.9594498  19.3009567  -0.0218714  79.8207550  20.3934669   1.0164785
  17.5430031  44.6325912  30.3761425  17.5445805  45.2485390  31.1088371
  17.4774761  43.7709045  30.7877655  13.4459791  52.7853966  77.1696930
  13.3125315  51.8567505  77.3595352  13.5473690  52.8232803  76.2186356
  73.2965088  62.8331223  39.8441925  72.9878235  61.9354744  39.9673653
  74.2375565  62.7881317  40.0134048   8.5635834  53.5069962  77.7605515
   9.0770054  52.7085190  77.8832779   7.6819282  53.2716370  78.0495529
  86.1645279  28.3825798  30.7957954  86.3042603  27.8058071  31.5468216
  85.2873535  28.1607628  30.4833889  45.2478294  66.9425430  85.6275177
  46.1469460  66.6148758  85.6063004  44.8324242  66.4562454  86.3396912
  30.5426025  45.0149422  77.8984070  30.3998203  44.4004593  77.1785049
  30.9319649  45.7843513  77.4829102  15.2165880  49.5455627  73.0204315
  15.8909779  49.1955719  72.4382553  15.6632261  49.6676903  73.8581848
  54.3933067  37.3214951  45.2709999  55.2180061  37.7667007  45.4656525
  54.5187378  36.4309235  45.5986900  69.7871170   9.7460346  17.0258465
  69.6777344   9.6515427  16.0796242  69.6265106  10.6745653  17.1939774
  27.0388622   6.5403676  21.6794052  26.4390450   6.1677060  21.0332069
  26.6696186   6.2843261  22.5245876   7.5818586   2.0985465  55.8282051
   7.2711105   1.5662017  56.5605125   7.2969117   1.6225197  55.0481834
  81.4370499  30.2873077  49.3177605  81.3958817  30.0628490  48.3881607
  82.2156067  30.8385220  49.3968086  79.5277023  32.0994301  33.5234261
  79.6094055  32.2765694  32.5863152  79.3725586  32.9581337  33.9168625
  66.8673553  52.1095581  48.7192154  66.2026520  51.4692345  48.4654617
  67.5257111  51.5978813  49.1893044  40.3805122  59.5348740  82.5550995
  39.9286613  60.3609962  82.7271118  39.6963425  58.8689308  82.6233978
   4.2115183  30.3677216  61.2502594   3.3170390  30.2686272  61.5763245
   4.6356072  30.9443550  61.8857727   5.6780210   0.4706752  56.8705673
   4.7975445   0.6777792  56.5573578   5.5350299  -0.0791387  57.6409492
  55.2333221  18.1674633  85.6698532  54.7436905  17.4165878  86.0055237
  54.9981461  18.2118282  84.7430573  10.6881847  69.9993210  46.4830551
  10.5728149  70.2071838  45.5558472  10.6282883  70.8450317  46.9273605
   9.1124229  18.4563408  81.8152008   9.2512541  17.5252647  81.6418381
   9.8874435  18.7264214  82.3077774  10.0811138  43.1788826  13.9394741
  10.1921654  44.0995064  14.1768665   9.2390881  43.1485481  13.4852686
  75.8285522  60.4179802  40.6216431  76.4090958  59.6951408  40.3835144
  74.9841919  60.1839676  40.2362556  62.8062592  53.9905777  45.5522614
  62.3336716  54.7053185  45.9789200  62.5117378  53.2025261  46.0088348
  21.7135410  41.6971664  39.2770348  21.6469841  40.7438927  39.3324585
  21.6731815  41.9933548  40.1863632  69.1993256  48.5001488  30.0080509
  68.4610291  47.9344406  30.2341633  69.7779236  48.4545288  30.7692165
  81.4233780  37.8178215  59.9194107  82.2600098  37.5957603  60.3280220
  81.6243134  37.8903885  58.9863548  47.4334068  46.8535347  67.5530472
  47.7463303  46.0163689  67.2103119  46.7410507  46.6160583  68.1698761
  72.1351013  53.1829605  72.4479675  72.8289719  53.7826538  72.1738586
  72.0396042  53.3404846  73.3872757  46.9478798  57.2814598  47.2677383
  47.5489540  56.9277039  47.9233284  47.2002373  56.8477249  46.4526176
  25.1170654  27.6972733  10.0135946  25.2235355  28.6094799  10.2833614
  25.8062744  27.2268257  10.4825315  25.4688606  50.3754311  77.6106339
  24.6826019  49.8685913  77.4077911  25.5067444  50.3862457  78.5670242
   2.8323309  55.5033989  85.2075500   3.2474172  55.0128250  85.9169693
   2.0556850  55.8935471  85.6085968   2.7527127  22.4082546  56.3800278
   3.1085432  23.2410374  56.6900063   1.9279864  22.3083630  56.8555069
  77.9938507   9.2193308  55.2720490  78.6981659   8.6535826  55.5884323
  77.5611191   8.7048111  54.5906944  59.4580269  13.2522287  77.8981476
  59.8267021  12.5982323  77.3043442  58.6640625  13.5551891  77.4576111
  65.2598190  33.2044830  44.0229034  65.0935440  34.0890846  44.3485756
  64.8768997  32.6294289  44.6854095  77.6549606  33.6241837  72.7361679
  77.9663467  34.5158463  72.8917618  77.4322510  33.6072578  71.8053970
  51.4180450  33.7378616  25.5822868  52.0258522  33.2431870  25.0326519
  51.9816780  34.2721024  26.1418724   8.2243595  21.2047710  62.7896080
   7.3596153  20.8131313  62.9123573   8.5826378  21.2763691  63.6743355
  10.2696724  44.2656403  85.4981155  10.8027067  44.0381012  86.2599106
   9.6674566  43.5283394  85.3983231  69.7063065   4.7887340  46.9394875
  70.0165100   4.5959597  47.8242722  68.7685242   4.5990176  46.9678268
  45.5364876   6.2293549  74.5246735  44.7574921   6.5122123  75.0036163
  45.3151703   6.3684864  73.6038589  81.7218475   3.3665106  57.5617027
  81.4677658   2.9040649  58.3603401  82.2816238   4.0807281  57.8662872
  12.4323130   7.9482889  10.1353378  12.3381252   8.5611620   9.4061279
  12.1509533   7.1059804   9.7781467  11.7390785  15.8676157  12.8307991
  11.6531601  15.6229372  13.7522011  12.1017237  16.7532310  12.8509731
  10.9558783  37.1568642  87.5985489  10.8045254  36.4835510  86.9352493
  10.5268278  36.8192558  88.3847885  31.5924244  34.1688766  75.7411270
  32.0720024  33.3409004  75.7673569  32.2584038  34.8250122  75.5357208
  83.9994049  36.8121681  60.5828972  84.3452377  36.5229263  61.4272766
  84.6296921  36.4848976  59.9411316  39.8051605  48.3526154  16.1738243
  40.0353508  49.2678108  16.3340034  40.6302223  47.9390221  15.9199677
   8.9686937  26.0159950   9.2737179   8.2016935  25.6301193   9.6968527
   8.6453562  26.8304367   8.8885279  14.9080410  41.5184898  81.3107986
  14.7535524  42.4612579  81.3703995  15.2786703  41.2822876  82.1611328
  35.7563820  55.7504234  30.4451008  36.4512749  55.7773132  31.1028500
  35.7104492  54.8310509  30.1826572  83.3529892  69.4524460  52.3601112
  82.8199463  69.4496536  51.5650711  83.3379211  70.3628464  52.6553764
   4.3230090  64.3358307  24.3320980   4.0147610  63.8472023  25.0952854
   5.2471733  64.0992432  24.2534904  16.3758259  39.7026825  54.7200165
  15.8921967  38.8960114  54.5422249  16.9788857  39.7880821  53.9816017
  26.9056149  48.1989632  30.8586807  27.7202816  47.7056122  30.9543476
  26.2311363  47.6181984  31.2108498   2.4389169  68.4213486  34.5369911
   2.9931850  67.7942810  34.0724487   1.9395554  67.8876648  35.1550980
  83.3091431  57.5735893  67.3708344  83.6330948  56.9047508  67.9741135
  83.3379059  57.1545029  66.5107346  59.0277061   1.4656950  82.6524124
  58.2870560   1.5801522  83.2478638  59.7394981   1.9611521  83.0575104
  44.8397102  49.7813568  55.5484276  45.3960991  50.5466156  55.4033585
  44.2597694  49.7591286  54.7872391  13.2048721   5.1538248  70.9772797
  13.2582312   6.0668912  71.2595825  12.6995611   5.1834478  70.1648636
  66.2837982  71.2350769  48.5538750  66.0552750  72.1263809  48.2900772
  65.7736816  71.0824966  49.3493195  22.6730824   8.9722595   9.9957867
  23.2273407   9.7180319   9.7658882  22.3599186   9.1697006  10.8784971
  67.1966248  33.6058998   4.9623928  67.1303024  32.9327393   4.2851248
  67.1738586  34.4329720   4.4810772  28.2010479  56.2928238  65.9705429
  28.7606201  55.8204384  66.5869522  28.5648251  56.0857773  65.1097107
  72.7252579  21.4033165  47.9834137  71.9848938  20.8555489  47.7225609
  72.3374481  22.2592716  48.1655655  24.1348495  38.9228783  63.0333519
  24.1995277  39.7114372  63.5720749  24.0072575  39.2507629  62.1431580
  69.2626266  54.8982887  87.7672195  69.0264435  54.1172676  88.2676773
  69.7617416  55.4352570  88.3826752  82.0400696  47.7165413  85.0994492
  81.8989487  48.3121376  84.3635254  81.1602554  47.4405136  85.3562927
  82.8769150  30.7768574  63.8304672  82.3126297  30.4780025  63.1173744
  83.3432388  31.5298157  63.4673920  28.3236160   0.9936295  31.9633522
  28.5785198   1.7567433  31.4447842  29.0162086   0.3527254  31.8027611
  57.1244926  42.5636215  55.1694946  57.3328323  41.9277878  55.8539925
  57.3944130  42.1370964  54.3562012   1.0911130  42.5608139  12.0562925
   0.7969904  43.4709778  12.0198355   1.0794849  42.3424950  12.9881907
  60.2708473  19.0722904  58.6171837  59.3297424  18.8982506  58.6336060
  60.3854065  19.7030430  57.9063683  55.3356438  40.9139214   5.2690239
  55.0081673  40.4872169   4.4772453  56.0792694  41.4367790   4.9692364
  70.9884338  19.3418732  46.4918060  71.8278885  19.2704220  46.0374489
  70.3916473  18.7962265  45.9796028  62.3158722  47.7060394  59.8235092
  63.1759529  47.6810036  59.4041481  62.4264450  48.3059273  60.5611687
   3.5334287  15.0367212  58.0827942   4.3643999  14.8144293  57.6629066
   3.7788391  15.6020832  58.8151665  20.0222282  52.5132561  59.7097588
  20.5554161  51.7339172  59.8665237  20.0478706  52.6340370  58.7605553
  11.7281761  21.6283932  71.8229065  11.6506567  21.4641838  72.7627258
  12.4539566  21.0713596  71.5415039  53.8631935  65.1361694  35.4907227
  54.6908340  64.6931763  35.3036423  54.0793495  66.0682983  35.4652443
  23.1374226  68.3065491  36.4837723  22.6087990  69.0634460  36.2309914
  23.0292835  67.6871033  35.7620888  76.2240372   5.2393570  72.3385468
  76.0839615   4.8322697  71.4836273  77.1747589   5.3240199  72.4106216
  10.1306429  21.6157417   1.4800427   9.3776541  22.1453209   1.2177712
   9.7852955  20.7256317   1.5483694  51.5940895  64.7132034  82.9686279
  51.9694290  65.5138474  83.3351212  50.9444466  64.4357376  83.6145401
  22.7995701  64.1284256  23.6631107  23.1988449  64.5163574  22.8844452
  23.2263279  63.2762299  23.7518024  29.6546612  24.9180298  69.4633408
  28.8695049  24.7816448  69.9935837  30.3803215  24.7111320  70.0522766
   5.6869612  20.9142857  59.6735764   5.7627792  21.1047955  58.7385941
   5.2621441  21.6888275  60.0421486  30.9079685  62.1154709  21.4519672
  31.0567970  61.5782623  22.2300987  29.9807663  62.3491135  21.4959831
  68.8767014  59.4870033  22.3173618  69.6702576  59.9941826  22.1462593
  69.0939407  58.5991745  22.0331039  66.2486877  43.9620514   6.4946837
  65.3927841  43.5569878   6.3547416  66.1439590  44.4717789   7.2980771
  86.1562576  64.5686340  66.0755005  85.6799088  64.9215622  66.8270111
  86.2805252  65.3203964  65.4961548  10.0369701  52.2501183  81.0327759
   9.1323490  52.1786041  81.3373718  10.0155602  51.9126740  80.1372910
  42.3361282  14.5648060  75.3858414  42.8458595  14.9448509  74.6703186
  41.7247429  15.2567225  75.6382141  51.9517021  65.8416977  53.8050537
  51.7704811  66.7652817  53.9793663  51.1559906  65.5168610  53.3836823
  64.1413193  28.8208828  15.2606974  64.2614136  28.1469936  15.9297876
  63.4442825  29.3790760  15.6053600  59.8925362  71.4875488   7.6279340
  59.4833565  71.9315414   8.3706846  60.0657578  70.6010208   7.9446301
  40.2645111  16.6500397  63.6535835  40.1526031  15.9509420  64.2977676
  39.6715622  16.4151821  62.9398041  58.6719894  40.9914932  82.2366562
  59.4656410  40.7804260  82.7283936  58.5986862  40.2912521  81.5881805
  76.2820511  53.7564888  57.0277138  75.6900330  53.7079163  57.7783051
  76.1439362  54.6335678  56.6701012  10.5717468  52.1101761  43.4478798
  10.4773321  53.0108948  43.1380043  10.7167044  51.5973015  42.6527786
  66.5809250   4.0366898  26.7996559  66.4122162   4.8606548  27.2566586
  65.7767792   3.8657072  26.3094082  14.5220165  65.7149887  40.7809601
  13.9548683  66.2121506  41.3703690  15.2565737  65.4408417  41.3300514
  49.3236237  21.1347408  16.2226219  49.7732048  21.5790348  16.9414482
  49.5069618  20.2058334  16.3631592   8.7994795   4.2094378  24.0141430
   8.8332491   4.4934711  24.9276066   9.6569815   4.4431891  23.6587791
  42.2884865  67.4119873  54.9324493  42.1523323  67.9849854  55.6870155
  43.1740494  67.0680542  55.0495834   0.1452566  65.6274490  -0.2433497
  -0.2363268  65.7883606   0.6196298   1.0716393  65.8450699  -0.1399709
  84.3395157  25.9437122  88.4022064  84.6298370  26.7363033  88.8535843
  83.7039108  26.2544498  87.7574692  20.5201607  18.8988247  10.3097954
  20.3251019  18.8050823   9.3773813  21.4557343  19.0989037  10.3398409
  34.2775688  63.8923645  21.1831150  34.2061996  64.8418655  21.0851803
  33.9714813  63.7197380  22.0734749  83.2921524  28.1578922  70.0459900
  83.0275650  27.2709942  70.2902069  83.3420639  28.1383362  69.0902939
  54.4008675  71.6852875  60.2980156  54.8919601  70.9739227  59.8869057
  54.4627380  72.4099350  59.6756859  10.4903679   7.7976689  75.6007843
  11.4006023   8.0907478  75.6433182  10.3878431   7.2236671  76.3598862
  85.6433792   8.9075899   6.7980690  85.5517731   8.2335701   7.4715214
  86.3419724   9.4762573   7.1218123  35.0180817  41.8205223   9.0912571
  35.8356667  42.1778526   8.7447071  34.5098343  41.5881424   8.3141365
   0.7116027  55.7384834  38.0818443   0.1254864  56.2744942  37.5476227
   1.4085084  55.4742241  37.4812431  16.2854195  34.6489105  45.4253654
  16.6743164  35.2436028  44.7840157  15.8305311  35.2242165  46.0404510
  27.3305016  60.9066048  62.2305603  27.4612408  60.0983887  61.7346535
  26.8491650  60.6332512  63.0114746  13.1344280  36.4223862  49.1068611
  13.6553717  35.6515541  48.8817520  13.7491999  37.1534271  49.0447235
  80.7311172  17.1869583  78.9625092  81.2978821  16.4923038  78.6271591
  79.8959885  17.0518055  78.5147018   4.2192569  51.0767784   3.6614990
   4.6471138  50.3418427   4.1008573   3.3006322  50.8155518   3.5973010
  20.3731079   8.3417797  67.6934738  21.0723038   8.9755192  67.8538818
  20.2289619   7.9241271  68.5426025  83.4710083  54.0744133  50.4545135
  84.3329926  54.1432228  50.8649750  82.8744354  53.8893509  51.1798286
  68.8497314  67.3769226  14.1243258  69.0503006  67.2999496  15.0571060
  69.6488800  67.0891953  13.6829624  14.8417816  34.0759735  85.0979614
  14.3256378  34.6104279  85.7014465  14.7151136  34.4891090  84.2438507
  17.9015942  53.1150055  19.4702625  17.5945091  52.6699333  20.2600994
  17.1086140  53.2626305  18.9548798  47.0229263  64.2864685  51.9529152
  46.6142311  65.0664825  52.3281059  46.3376961  63.6188126  51.9834862
  41.0578728   7.8969893  19.6086731  40.6769066   8.7060766  19.2673893
  40.3590469   7.2484903  19.5231037  10.3265810  52.3436394  39.8932419
  11.1493158  52.7162628  39.5762367   9.9843512  53.0001564  40.4999504
  57.5431175  41.4021492  27.5486603  56.5909767  41.4939003  27.5133896
  57.6870193  40.5700226  27.9993095  13.7133350  43.5437851  36.8380699
  13.4441986  42.6951828  37.1897430  13.3802452  44.1813087  37.4696121
  56.0238800  49.4994812  76.9022369  56.8693962  49.1931572  76.5743637
  55.3962669  49.2358398  76.2293091  21.7743931  65.2092896   5.0777521
  20.8855953  64.8682251   5.1774879  21.8027344  65.9752808   5.6510668
  16.2899609   2.3648775  27.3192577  15.8495188   1.7735871  26.7088318
  15.6803837   3.0948946  27.4275284  42.9003105  24.8356361  86.3864975
  42.4294777  24.1822128  86.9037857  42.2117386  25.3360100  85.9486313
  52.0403481  26.6995907  26.3595486  51.3046303  26.1306572  26.1331291
  51.6934853  27.5871277  26.2690277  50.4563217  32.1864128  71.3371964
  51.1429634  32.3272743  70.6853409  49.7787590  32.8242874  71.1130142
  59.4951477  61.8593483  44.2642288  59.9611053  61.3145523  44.8985062
  58.8828354  62.3714714  44.7924690  11.1194143   4.7499142   4.4711642
  12.0624857   4.8023229   4.3159161  10.8973713   3.8364773   4.2907162
  17.8574638   4.9493933  21.2856750  17.3757095   4.2169247  20.9014416
  18.3148937   4.5683503  22.0352039  80.3005676  53.6398506  48.6393013
  80.3019638  53.5460663  49.5918922  80.9736099  53.0297585  48.3375778
   2.3467536  31.4073792  14.9438734   2.2288842  30.6565342  14.3620043
   1.5587124  31.9354744  14.8160582  70.0030136  42.4792900   0.7184340
  69.2256546  41.9376450   0.8547110  70.7207260  41.8514900   0.6348808
   4.1986561   4.3713131  22.8931999   4.5160246   4.1487122  22.0180092
   3.8971233   5.2764578  22.8155899  16.3220444  38.5065498  11.9398518
  16.8474636  38.0607643  11.2754440  15.8908510  37.7987938  12.4187937
   5.3392224  29.7314014   1.9807098   5.4552412  29.2225437   2.7831039
   5.4463091  30.6416531   2.2567627  70.4765396   5.0306506  81.9601898
  69.9635315   5.6726136  81.4693375  69.8449783   4.3528123  82.2008057
  67.1124802   0.9828129  23.5904427  67.4219818   1.8269700  23.2620487
  67.7947617   0.6974985  24.1981659  33.4977837  64.0248642  23.6697140
  33.8587189  64.2913666  24.5152512  33.2464104  63.1097031  23.7943268
  69.8900757  42.5824432  41.6468735  70.0929947  42.1000214  42.4483223
  69.7346497  41.9027634  40.9910431  53.8306351   1.8936877  66.4156952
  53.2753258   1.3362734  65.8705750  53.2181587   2.4774895  66.8632202
  18.1185513  68.3349686  52.1527214  18.7622166  68.2545700  52.8566093
  18.4343872  67.7424469  51.4705200  58.4782143  10.4637671  18.5575829
  59.2728157  10.9787493  18.4174423  58.7506866   9.5580750  18.4102268
  58.9242134  39.7384720  65.1979370  59.4931984  40.4649162  64.9434509
  59.1508484  39.0330658  64.5919113  17.7741032  22.0549946  74.5590134
  17.4243870  22.8260841  74.1125259  18.4510937  21.7232132  73.9692383
  40.9354820  62.0303078  61.9878654  41.8462677  62.2993126  62.1075974
  40.4398727  62.5899811  62.5856705  47.7817535  62.0898170   6.5737762
  47.5021935  62.9933548   6.7210903  47.1229172  61.7289581   5.9805250
  79.2573242  68.0343399  44.2463188  79.1521149  68.4018784  45.1238594
  80.1209564  68.3344345  43.9629173  63.6618347  60.9399986  15.4581280
  63.7835503  61.4753380  16.2422390  62.7121582  60.8694916  15.3613024
  76.5781174  21.6480293  29.7543106  75.7042923  21.8232079  30.1035538
  76.6785660  22.2725773  29.0359211  65.5753860  18.6387501  34.9244118
  66.4397736  18.9904671  35.1373787  65.6824875  17.6892624  34.9812737
  21.1272869   2.0671222  63.4343567  20.2307072   2.1056461  63.7673607
  21.0326939   2.1301262  62.4839287  61.6842270  65.3299789   7.1492863
  62.4603691  65.1609955   7.6834021  61.2026405  66.0015259   7.6323299
  21.7498589   7.8602142   1.9900346  21.5267124   6.9294796   2.0030699
  21.1319866   8.2632160   2.5999975   6.9891081  37.8418999  38.5850716
   6.4152207  38.3157845  37.9831467   6.7378144  36.9239464  38.4828529
  80.5212860  57.6793709  73.9896622  80.6773605  58.6234474  74.0139923
  80.9384079  57.3884659  73.1787262  61.6278801  58.5763550  63.1701355
  60.9011078  58.6840096  63.7836838  61.3827629  59.1080017  62.4128380
  59.4579391  50.2913589  77.8223267  59.1158104  49.9346581  77.0026016
  59.8337288  51.1369019  77.5772247  36.3307724  36.2708092  52.2442169
  37.0793877  36.8164024  52.0030975  36.2700310  35.6234818  51.5417175
  75.7656479  59.4840355  47.8527260  74.8226776  59.4361076  47.6954308
  76.1463547  58.8850899  47.2104225  44.0105286  67.6051865  60.6526642
  43.2683640  67.7536545  61.2386513  44.2985306  68.4834213  60.4036827
  65.8756714  52.8521156  20.7527046  65.9185410  53.0109100  21.6956673
  65.0116043  52.4642715  20.6141701  80.3993225  53.3478622  51.2542381
  79.9516449  53.9836731  51.8124161  81.2214813  53.1663971  51.7096062
  18.4855499  62.6552315  80.7443237  18.3420734  62.7153969  79.7998505
  17.6076431  62.6992569  81.1232300  55.4834175   7.4059014  86.9133682
  54.7398453   7.9604373  86.6771088  56.2048378   8.0193205  87.0530167
  71.2777176  16.1575508  37.5233459  71.6052856  16.5984097  36.7393951
  71.5028610  15.2365341  37.3919220   7.8466959   2.8804624  52.4582939
   7.4727321   2.0041444  52.3663712   7.3338609   3.2876983  53.1564255
   4.7152839  30.2639828  42.7371750   5.2178741  30.0082951  41.9637032
   4.9283285  31.1881676  42.8665047  67.2225876  10.3207884  59.2509613
  67.6497498   9.5453672  59.6149445  67.2619553  10.1932135  58.3031197
  86.1468430  32.5793915  84.6729889  86.2557449  31.6993675  84.3125305
  85.5395432  33.0109253  84.0719833   5.3503637  53.1777916  59.6927490
   5.1528735  53.7940063  60.3980942   5.1700740  53.6668968  58.8899384
  62.3049393  25.2898941  88.1270294  61.7070885  25.6430874  88.7858658
  62.1323090  25.8111324  87.3429794   7.0970750  24.8664246  28.1601295
   7.6652932  25.1895657  28.8593712   6.7258258  24.0558548  28.5085335
   9.0306063  52.4237442   3.3184092   8.3250456  51.7941513   3.1699874
   9.6738462  52.2276154   2.6372280  69.1336060  69.8631210  71.9322433
  68.3940277  69.5983505  72.4791870  69.6660690  69.0719376  71.8500671
  81.3508606  53.7213478  69.6565552  80.4628830  54.0754280  69.7052078
  81.3891373  53.2869415  68.8044586  76.9596252  60.3967056  30.1394367
  76.1000900  60.0472031  29.9043121  77.0809631  60.1394119  31.0533886
   9.4398785  51.5832176  17.8172379   8.9330425  51.7384262  17.0202065
   8.9142094  51.9739647  18.5152493  66.0242004  32.9881287  26.3790627
  65.5442810  32.6297913  27.1257248  65.5946884  33.8239746  26.1970863
  76.5955963  61.3334351  33.4539642  76.7175827  61.3393517  34.4033394
  76.7732239  60.4291267  33.1952934  46.8557396  49.6131287  26.1640472
  46.5424461  50.3727646  25.6730919  46.2146797  48.9269676  25.9784222
  77.2004166  54.1968193  38.5523338  76.5489655  53.4993477  38.4790382
  78.0399246  53.7546844  38.4259720  80.5625153   1.3047365  29.7315426
  80.8131714   2.0864468  30.2238140  79.6184692   1.2273402  29.8694191
  15.9376020  20.0865688  64.9417114  15.9808435  19.1579018  64.7138062
  15.3629951  20.4693794  64.2787476  12.8897543  36.4047470  15.7762232
  13.1046000  36.0894737  16.6541042  12.0164785  36.7863159  15.8658218
  72.8926163   4.6247387   0.7792207  73.7035370   4.3364720   0.3602507
  72.5799866   5.3419952   0.2278237  30.9832325  13.9288406  64.5831299
  30.9048347  14.8765316  64.4737396  31.8847160  13.7952986  64.8759232
  59.1430588  54.4806137  12.9241819  59.9851303  54.1459465  12.6157236
  58.8804626  55.1174736  12.2595882  51.7914810   1.7444186  42.2167587
  51.2901840   1.2371765  41.5782928  52.6908150   1.7189114  41.8899841
  31.9215107  55.6175842  17.1320152  32.8146172  55.8794861  17.3556290
  32.0312500  54.8736572  16.5397663  78.9598389  23.7869148  61.6699448
  79.4900436  24.4898567  62.0454369  79.4528809  22.9883442  61.8581772
  22.0720901  55.6567039  26.1387901  22.7390003  55.7778893  25.4629383
  22.3799992  56.1834946  26.8762970  84.9803238  44.1033592  75.7411499
  85.6289215  43.9510574  75.0538635  84.3076248  44.6393433  75.3211136
   5.3140020  34.3360748  57.6106834   4.9910645  33.6093788  58.1434631
   5.7014174  34.9422913  58.2420616   6.1200385   4.4338355  53.6323471
   5.1939964   4.5050912  53.8638649   6.4313693   5.3386860  53.6088867
  15.0304327  31.1954842  19.8026314  14.6688175  30.3093433  19.8175201
  14.8490334  31.5429001  20.6759167  65.9572906  15.4335194  39.7751999
  66.3060150  14.7093325  39.2554169  65.7813187  16.1240559  39.1361160
  41.9302406  27.5175591   1.7503570  41.4251556  27.0839252   2.4381678
  42.6729126  27.9096718   2.2096167  53.5101891   4.3844051  44.0629730
  53.5382156   4.9510136  44.8339462  53.3138008   3.5149152  44.4117546
  80.2028809  62.8248863  23.7102509  80.0622635  61.8808517  23.7827473
  79.9770737  63.1677742  24.5749283  45.0274010  18.8658810  75.8006973
  45.6382980  18.7040997  76.5196304  45.4781837  18.5342484  75.0241394
  25.6586952   0.1757591  36.2820320  25.1426487   0.5513522  36.9953766
  25.4166527   0.6924661  35.5134888  30.4716606  29.7963696  75.7113266
  30.5310707  30.5189095  76.3363342  30.6220646  29.0112610  76.2378387
  67.3255692  46.6457062  45.5668602  67.1958542  46.8396149  46.4951973
  66.7191849  47.2309265  45.1129341   8.5444546  15.7884312  57.7779922
   8.7636194  15.0628004  57.1934738   8.7415962  15.4579287  58.6544228
  58.3268394  41.4369659  52.9879570  59.1139450  41.9655037  52.8562546
  58.0214195  41.2375183  52.1029892  79.8341370  54.9411888  67.3517914
  79.4391937  54.0746727  67.4487457  79.3127594  55.3672752  66.6714554
  19.3688641  57.8582420  28.6788750  19.7377071  57.0753098  29.0877800
  18.4281216  57.6863708  28.6376896   2.7253246  63.5006790  30.9770622
   2.6022973  64.0239792  31.7690544   3.2649443  62.7621994  31.2593575
  69.6408386  43.6927719  57.9781914  68.8224182  44.1870346  58.0243568
  69.4724579  42.9022293  58.4909554  84.8374557  31.4566441  40.5218430
  84.6437378  31.3867283  39.5870590  83.9814835  31.4113941  40.9478683
  30.6704807  68.3246155  68.4010391  31.3901463  68.3942947  69.0282974
  29.9541664  67.9330978  68.9008789  36.5257607   8.4655952   2.6395719
  35.8632584   8.9636049   2.1607063  36.6606026   8.9612627   3.4472616
  81.6814423  66.0140610  52.1856651  81.1726837  65.2258377  51.9956512
  82.2144394  66.1497498  51.4022560  45.8900528  38.1013870  78.6239243
  45.6369324  38.7493362  79.2814407  46.2407684  38.6196060  77.8995819
  48.5090904  36.9127655   0.1398543  48.9262352  36.4156456  -0.5637745
  49.2300720  37.1583824   0.7195840  37.3824654  50.7382317  11.5241938
  38.2336578  50.5247574  11.9064636  37.1739922  51.6050148  11.8726988
  72.6154861  16.6487904  34.9807930  73.0483856  15.8371019  34.7162323
  71.7971344  16.6565914  34.4843445  70.4835358   7.1700869  29.1037769
  71.1498947   7.3768258  28.4484444  70.6023865   7.8332868  29.7836838
  63.3739357  56.3597565   0.4447332  63.4052582  55.7420235  -0.2857844
  64.2515411  56.7407951   0.4739849  14.1114140  16.2592812  18.6384201
  14.2236290  17.1776409  18.3929482  14.9919806  15.9639254  18.8699360
   2.0398114  41.8535423  58.4864502   1.2998236  42.4506187  58.3762245
   2.8038142  42.3685455  58.2270203  56.0517082  15.3621759  88.6831665
  55.7059708  15.3691444  87.7906113  55.7207069  14.5477762  89.0618820
  31.8332500  64.1215668  74.8462753  31.9471569  65.0492630  75.0527420
  30.9186134  63.9388580  75.0614243  39.6042633   2.0540147  21.7890205
  38.6942635   1.9341944  22.0606403  39.7742920   2.9860158  21.9257507
  43.4278297  21.6167164  35.8487434  43.5148277  20.6846313  36.0484428
  43.6014633  21.6776314  34.9093971  33.9841003  33.5174103  78.7472534
  33.4900284  33.0491714  78.0742950  33.3140297  33.9162636  79.3023682
  67.4676743  37.4477043  -0.1208979  67.5035324  37.6879921   0.8049567
  68.0314560  38.0870857  -0.5562947   3.6321805  35.2854233  55.6842804
   4.1463823  35.3200226  54.8776627   4.2470183  34.9706612  56.3469505
  57.5033531   6.6467309  17.3134537  57.1317062   5.7647829  17.3301067
  57.9336205   6.7414141  18.1632423  44.7365074  71.5676270  64.3044891
  43.8719063  71.7826843  64.6544113  44.6631470  71.7353821  63.3649597
  61.5976524   3.9496551  75.2405930  62.1604195   3.1789300  75.3148041
  62.1264839   4.6669068  75.5900497  10.0061789  55.1242943  13.0462885
   9.1806402  54.8775063  12.6293783  10.3706999  55.7998695  12.4744902
  17.3565922   8.4471426  58.0590858  17.9634380   8.3693600  58.7952385
  17.8745441   8.1963758  57.2941856  62.0154114  54.5912170  30.9762344
  62.1636581  53.8246651  30.4224663  62.0448456  55.3327408  30.3716640
  56.8711586  -0.1449515  43.1931038  56.2426567   0.5762576  43.2258682
  56.9671860  -0.4205663  44.1047211  31.2462654  36.3596039  15.7760162
  30.5937958  36.5282440  16.4557781  31.9982014  36.8958931  16.0274506
  10.7463913  16.2711735  78.3512268  10.3367777  15.4252071  78.1701431
  10.0814600  16.7604294  78.8357086  36.5064583   5.4658537   3.7295136
  37.2424393   5.4613943   4.3415122  36.2916451   6.3921852   3.6199887
  23.1452579  43.5946579  53.4139404  22.1905003  43.6095657  53.3472519
  23.3630085  44.3834343  53.9105759   4.4061155   4.5185161  74.6585770
   3.6570816   5.1102886  74.7291794   4.7941022   4.5177879  75.5336151
  70.7831192  18.7129383  17.5229206  71.5388489  18.6584167  16.9380016
  70.0511475  18.3865185  16.9995708   8.0864792  58.6571007  83.0495682
   7.6884742  58.1634369  83.7665863   7.6609964  58.3196602  82.2613220
  56.5294495  50.0436478  32.1778603  57.4328728  50.3289528  32.0412521
  56.1838417  50.6486969  32.8341408  35.3691711  29.0323715   2.1688886
  35.8972664  29.8264637   2.0866292  35.5980530  28.5116978   1.3989897
  73.9566879  39.6485023  26.5023174  73.1418839  39.5187531  26.9875908
  74.6453323  39.5499001  27.1597958  30.5326958  60.1483727  70.3540344
  30.7814884  60.9472275  70.8189774  30.7022705  59.4442978  70.9799347
  14.6382370  31.4115372  83.3626785  14.0696068  31.8189754  82.7093124
  14.5645790  31.9778709  84.1308365  46.4353523  16.7774448  55.6387367
  45.6578064  16.7512493  56.1963768  46.8959351  15.9607735  55.8314590
  19.1398983   4.0389352  23.3934402  20.0887547   4.0041289  23.2722225
  18.9738655   3.4732361  24.1475296  71.7433548  41.1429329  25.1065540
  71.8408051  40.8428917  24.2028332  71.9762878  40.3817177  25.6380863
   6.4406753  10.0536032  88.6944733   7.3140221   9.7857809  88.4085159
   5.8653278   9.8064194  87.9705200   4.2109599  37.9258385  11.8969297
   4.2122874  38.5007019  12.6622810   4.9076457  38.2697639  11.3378448
  64.3925629  40.7490768  40.3769913  63.6165428  41.0426331  39.8996620
  64.0845261  40.6099777  41.2725372  68.5001755  15.1359682  61.6402245
  68.9734039  15.2596474  62.4630165  68.3108215  14.1981239  61.6114655
  65.5477295  43.2084465  25.5000935  65.4572906  42.2828484  25.2735462
  65.0752029  43.6716042  24.8084049  41.7241020   6.1251926  80.3463364
  41.9654732   5.7539783  81.1949615  41.1186905   6.8354464  80.5590591
   9.2372303  49.3992157  72.9414444   9.2216272  49.3714447  73.8981171
   8.4136868  48.9895821  72.6764832  24.0916939  65.4698105  29.2207355
  24.1657047  65.6309891  28.2801094  24.9690857  65.6411591  29.5628643
  31.7214909  59.3229790  33.4425621  31.3449497  58.8489113  32.7011414
  32.5080643  58.8269501  33.6694756  80.5967407  64.2165833  13.6056299
  80.2640152  64.8594513  14.2319288  81.4770889  64.5248947  13.3907976
  18.6950340  20.3949108  83.9614029  19.3826237  19.7344456  84.0464783
  18.7862873  20.7217331  83.0663605  23.2868176  59.9492683   1.7250342
  22.7100086  60.5166664   2.2364867  23.9887390  60.5276718   1.4267268
  49.6910973  32.5454559  76.7877121  49.5852509  32.4389992  75.8423615
  50.1783600  31.7689514  77.0631104  17.9018040   8.0965700   5.7607136
  18.3919792   8.5241861   6.4629283  17.5275345   8.8185482   5.2558355
  15.4527416  67.2222214  13.7023430  15.5189133  68.0340118  14.2051840
  16.3561993  67.0130844  13.4651461  12.9600554  63.7771988  21.3523903
  13.5981512  63.5402908  20.6793823  12.8054047  64.7121124  21.2173138
   5.8036103   6.5722876  15.1304102   5.5040975   5.9083953  14.5093050
   5.1379871   6.5743661  15.8182859   2.8095214  31.1777058  74.0242004
   3.0300927  32.1090660  74.0362930   2.3691213  31.0467453  73.1844864
  50.3678894  11.9807472  61.5300064  51.0065498  11.5412045  60.9686241
  50.0431366  12.7082005  60.9993668  55.3088913  63.1772270  71.7528458
  55.5974960  63.3546715  72.6480789  54.7276840  63.9072151  71.5394287
  30.6255074  49.4266357  49.9050140  29.7798271  48.9837799  49.9752502
  31.2694416  48.7189217  49.9318695  16.1318760  38.6390533   0.1268045
  15.3344393  38.6296921  -0.4025714  15.9478369  39.2663155   0.8260213
  52.8685303  19.3356094  75.5397415  52.4392891  19.8092270  74.8272324
  52.8554306  18.4200459  75.2608109  62.2912521  46.6339760  47.5370903
  62.2476692  45.6896744  47.3866730  61.4509430  46.8512497  47.9407043
  40.8331223  55.3975754   0.2307285  39.9526672  55.7185669   0.4256562
  41.0246048  55.7390137  -0.6427634  59.1915131   1.9104508  24.4193211
  58.9281769   2.2406712  25.2782993  59.5615005   2.6721356  23.9730301
  10.7733097  59.4541512  41.8774300  10.2718916  59.0154037  42.5646782
  11.5249701  59.8323669  42.3337097   1.3939573  42.9240036  14.9647474
   1.0845308  42.0852966  15.3068886   1.2619314  43.5400352  15.6853762
  57.2953110  57.7635841  71.6775589  56.8913307  58.5900536  71.4130249
  58.0574722  57.6755371  71.1052017  56.0001602   6.4369011  69.8870621
  55.2271042   6.1034241  70.3424835  56.5862389   6.7227411  70.5878067
  34.3401527   3.1633682  19.6939163  35.0615616   3.2379823  20.3186035
  33.5533524   3.3156421  20.2173519   8.0385408  61.9477730   0.6131646
   7.4063463  62.5926361   0.2958123   7.8457508  61.8627548   1.5468863
  80.6065216  62.5336418  59.7361908  80.6152039  61.5877533  59.8826523
  81.2251434  62.8811798  60.3786469  68.5569992  17.4834595  16.7315960
  68.9788895  16.6561642  16.4995918  68.0746536  17.2892303  17.5352440
  16.7157993  64.0222015  58.8591232  15.9176893  64.1463089  58.3454590
  16.4044247  63.8517799  59.7480736  39.3995018  70.6130295  68.4568634
  39.3442726  70.6451416  67.5018005  38.4922028  70.6901779  68.7519760
  53.3678246   8.7656851  79.5922470  54.2231178   9.1174583  79.3453522
  53.1758842   8.1100569  78.9217682  73.0501862  17.9540596  24.4018288
  73.9754105  18.0381336  24.6323013  72.8137741  17.0689068  24.6790409
  61.6479454  65.1911087  19.3976421  61.3017387  65.9920273  19.0040760
  61.7052956  64.5720215  18.6698513  10.5688925  25.2002411  20.5970669
  11.4555378  25.3013115  20.9432983  10.6942797  24.8415394  19.7185211
  81.3704300  56.9114532  41.4225807  82.3129883  56.9213524  41.5890541
  81.2105103  56.0670547  41.0010986  16.0069103  44.1905785  11.8621197
  15.9892807  44.6469383  12.7033424  15.1317835  44.3249474  11.4983501
  51.8974838  49.1073952  85.9367065  51.3725777  48.9597130  85.1500092
  51.3690643  48.7463264  86.6484909  32.3326302  57.7884216  55.4398079
  32.8681526  58.5696754  55.3016396  32.1811562  57.4431953  54.5599709
  26.4412594   3.6939836  53.0235519  26.1036320   3.3948128  53.8677902
  25.7288761   4.2137532  52.6512871  42.0200653   8.3753414  61.9754753
  42.2112083   9.3056688  62.0945892  42.7879410   8.0293875  61.5205956
   7.1424460  70.9621429  61.1857491   6.2678990  71.3225555  61.0391045
   6.9917097  70.1703262  61.7020187   9.1099930  24.2135010  82.7117691
   9.4406347  25.0931206  82.8939209   9.7592802  23.8310223  82.1215439
  51.6201210  18.9187088  28.1504478  51.5534515  18.6601162  27.2312546
  51.6002541  18.0926838  28.6336880  22.3581505  61.1248283  17.1300049
  22.0310364  61.8385239  16.5824089  21.6820774  61.0055122  17.7970276
  67.9442673  18.9245052   3.4708214  68.0690002  19.6784325   4.0472479
  67.0034180  18.7513332   3.5031857  35.1509972   3.5574446  65.8455582
  35.1768799   4.0666604  65.0354614  34.8402443   2.6933203  65.5754623
  14.7727489   1.3604230  66.7239838  14.4917803   2.2142653  67.0529861
  13.9748821   0.9643977  66.3735504  77.4803314   3.2199557  49.7417336
  77.9398499   3.1030436  50.5732422  77.0450516   4.0682998  49.8258476
  51.8988686   8.4194422  16.3499832  52.2531090   9.2856083  16.1487312
  51.5033226   8.5177603  17.2160721  77.0723419  24.6083622  64.5997086
  77.8665848  25.1391182  64.5387192  77.3908615  23.7114544  64.7013626
  83.5348816  28.5005245  30.4364796  83.1664963  29.3826256  30.4856586
  82.7785797  27.9200230  30.5216389  45.8720741   5.1470251  25.2997684
  45.0468559   5.5015616  25.6307487  46.0180244   4.3558812  25.8184414
  53.6543884  64.8993607  38.3849220  54.3434105  64.2834015  38.6340675
  53.6580315  64.8884964  37.4277916  61.0164909  71.8752441  51.3209953
  60.2253494  71.7491989  50.7971306  61.0903854  71.0742111  51.8397675
  18.1846352  55.0068169  84.4879227  17.5683193  54.5637207  83.9047775
  18.4456043  55.7928276  84.0080109  76.9101791  63.0520439  46.0491295
  76.7739563  62.4955406  46.8159256  77.3414307  63.8338470  46.3941460
  79.9541779   6.7331409  85.3110275  79.6549988   5.9800510  84.8015366
  79.1794586   7.2891431  85.3940887  78.1454315  52.7356110  15.8977671
  78.8372726  53.3409920  15.6311121  77.3355713  53.1533928  15.6048269
  61.9333344  51.3377533   2.0127430  61.8470726  52.2059860   1.6190916
  62.8778381  51.1921577   2.0670409  20.1615582  56.3062477  56.4700241
  20.1270752  57.0956268  57.0103264  19.2603130  56.1793633  56.1735649
  61.8972855   5.5483532  63.8231468  61.8012848   4.7176466  64.2889175
  62.0329857   6.1962972  64.5145111  74.4677887  13.3420515  73.4810791
  73.9844360  13.7143040  74.2186661  74.1369553  12.4470577  73.4051514
  70.7943573  50.0930367  44.8529091  71.7035294  50.3329926  45.0319366
  70.3578873  50.9256859  44.6728439  56.2656784  26.7975826  87.6764374
  56.1908722  26.9874268  86.7412415  56.6080322  27.6058083  88.0582733
   7.9743137   4.0948358  83.6824341   7.7498827   4.5000291  82.8447723
   7.4840364   4.5993538  84.3315277  60.4456215  20.5233269   3.1322267
  60.2152061  20.4221478   4.0557547  59.8580818  19.9241657   2.6717536
  41.6943665  42.0967293  35.4426384  41.8981895  42.6120033  36.2231369
  40.8205223  41.7437668  35.6101265  76.0123978  53.0344238  31.9631348
  76.3189011  53.7531052  31.4101562  75.4648285  52.5037498  31.3845310
  76.4832230  22.9871712  54.4420166  76.7275848  23.6706181  55.0660553
  75.5391159  23.0946865  54.3265724  56.9310074  36.2829514  35.0113945
  56.3277512  35.9905777  35.6946449  56.3746719  36.4253922  34.2456055
  34.2454185  46.6057663  47.3962212  34.2267914  46.6824112  46.4422798
  35.0114250  47.1142845  47.6624489   5.2818394  47.7552223  77.9347610
   5.4219317  47.4433975  78.8288345   5.2859516  46.9608994  77.4006577
  15.2204056  10.5949440  83.6773148  15.3668079  10.1375999  82.8492813
  14.9559164  11.4780579  83.4196548  59.8908195   9.9363623  50.4620018
  59.2574615  10.0308552  51.1734505  59.4517441   9.3744202  49.8235130
  35.5058060  35.2032928  77.1117172  35.1373825  34.6149864  77.7708054
  35.8102798  34.6217957  76.4150238  28.6418686  34.3612595  64.2810440
  27.8996964  34.9255486  64.0642700  28.7057304  34.4054794  65.2350845
  40.3221741  28.9912930  67.3161087  40.8194008  28.3914509  66.7600632
  40.9888420  29.4654312  67.8130798  77.0261383  31.8226223  65.7057877
  77.3251953  32.5813751  66.2068787  76.8133850  31.1662102  66.3691788
  74.0384979  63.2179375  13.3116760  74.8174667  62.7886200  13.6654034
  74.0438614  62.9947662  12.3808718  60.8331566  13.0358686  82.9274902
  60.5455017  12.7764349  82.0521774  60.2061768  13.7072754  83.1964569
  62.8777390  19.4167709  10.6009359  62.9437180  20.3177395  10.2844944
  61.9904327  19.3512859  10.9539680  77.4421539  20.7538185  62.3927231
  78.0954285  20.6331310  61.7035942  77.7962265  21.4563236  62.9380226
  41.9572754  66.2924347  31.0935936  42.8648033  66.5954666  31.0653191
  41.9439430  65.6412430  31.7950230  15.2197876  48.4516945  62.6468811
  14.4291296  48.0318298  62.3080482  14.9343300  49.3287697  62.9027786
  83.3959427  13.6116915  27.8929844  83.1458969  12.7155380  28.1179676
  83.8703232  13.9281664  28.6617756  19.9878139  70.2683258  61.1003914
  19.7638836  69.7231140  60.3461800  19.3172646  70.9513397  61.1097183
  27.4976044  65.5223007  47.7869186  27.6255417  65.6926270  46.8537254
  28.0537071  64.7651749  47.9706383  59.4236717  23.6138535  63.8135796
  59.5034142  22.7141991  64.1305923  60.1334572  24.0852737  64.2497025
  84.1389542  40.9379044   5.1076527  84.8440781  40.3115616   4.9441719
  83.3419342  40.4078369   5.1031790  41.9133072  10.9787960  34.7954330
  42.4255333  10.1854343  34.6391106  41.0984459  10.8365679  34.3137665
  60.2825432  64.1185608  84.4671173  59.9191475  63.2398300  84.3575287
  60.4336929  64.4283142  83.5741272  16.6963921  55.7591629  74.6724167
  17.3165054  56.2492790  74.1325302  16.4972458  56.3465118  75.4015198
  49.6516151  40.4334030  56.6434937  48.8342705  40.2372246  57.1014175
  50.1936684  39.6558952  56.7772598  23.9787045  55.6906509  84.6065216
  23.8453579  56.1776810  85.4196930  24.3355713  54.8481483  84.8877029
  14.2466087   0.5713996  62.9271355  13.2919521   0.6254493  62.9711990
  14.5366688   1.4828548  62.8904381  63.5845871  10.2890139  32.9201431
  63.3003578  10.7708073  33.6968803  63.9336662   9.4663267  33.2630196
  62.1235313  10.9975348  44.6519699  62.3325996  11.3584204  43.7904129
  61.1685677  11.0380926  44.7033234  72.9726181  26.1546631  22.5860653
  72.2735672  26.7469940  22.8630180  73.5878906  26.7149200  22.1130028
  59.3782310  50.8660736  56.4931335  58.4766846  51.0551033  56.2329063
  59.5497894  49.9913406  56.1443558  11.1049356  64.7282639  59.3277359
  11.4749317  65.1889572  58.5746803  10.2373829  64.4490509  59.0351181
  32.3281441   3.7805140  32.8009377  31.8874283   4.2648549  33.4990883
  32.5930862   4.4529233  32.1733208  13.7754736   5.1663284   4.1811156
  13.6584740   6.0904908   3.9609640  13.9707603   4.7437406   3.3447456
  78.7689819  61.3222008   6.3608632  78.1855850  61.5673447   7.0790472
  78.2738113  60.6732903   5.8609071  37.9872856  57.9973221  24.0716763
  38.6068077  58.2518387  24.7555218  37.8774414  57.0534897  24.1872139
  18.2548790   2.2246139  18.8767700  17.7457237   2.2792742  19.6854763
  17.9014931   1.4597765  18.4224854  68.9790878  69.2721252   0.4541630
  68.2525024  68.9984512  -0.1056605  68.7161255  70.1309204   0.7851608
  16.0304947  14.7013998  77.0351257  16.5610447  14.1714907  76.4401932
  16.5510159  14.7553558  77.8366089  37.3832779  63.3982544  52.0693855
  36.4673882  63.2511902  52.3055038  37.5052948  64.3432770  52.1603165
  87.0265198  21.3338375  72.5060043  86.4425888  20.9914360  73.1827774
  86.5776596  21.1416168  71.6827164  62.0926857   3.3234503  51.3787651
  61.3383636   3.8046584  51.0386696  62.5811768   3.9715004  51.8863487
   8.0473967  21.7268543  26.0672455   8.1784172  21.7773476  27.0140915
   8.3458052  20.8486710  25.8306522  35.9063263  45.8024788  21.9317837
  36.5524712  45.5258064  22.5815372  36.2493553  45.4773903  21.0993900
  75.3113556  44.0384979  88.4932098  75.5405884  43.7281151  87.6172256
  75.7896500  43.4584045  89.0856247   8.9082193  13.3580551  10.8249788
   8.9758053  14.2764626  11.0861149   9.4649687  12.8904362  11.4475489
  47.9268341  34.2960968   3.4414167  47.3769379  34.3424606   2.6593072
  48.8131676  34.4639702   3.1213226  27.0262375  54.5465088  38.0873413
  26.4758282  55.3144875  38.2406082  26.7945290  54.2581024  37.2045250
  71.5614548  59.9409409  48.9164200  72.0506744  60.6136322  49.3901138
  72.1251602  59.7101135  48.1780548  20.1278210  14.8175154  73.0420227
  19.5420437  15.5739975  73.0708618  19.6017723  14.0941153  73.3828964
   5.0110841   4.5516105  81.4078445   5.9112258   4.8551865  81.2902908
   4.7845087   4.1444640  80.5717087  80.0543518   0.4883059  49.1913795
  80.9397354   0.2650158  49.4785614  79.7677460   1.1660047  49.8036003
  35.9616394  45.2635536  85.5440369  36.6306953  44.6426163  85.2558899
  35.2948570  44.7197075  85.9634018  59.7211914  15.5165510  32.7633591
  58.9869957  15.8855753  32.2724304  59.5017586  15.6791754  33.6807632
  86.0888901   5.5209970  76.6393204  85.6470261   4.7350211  76.9606171
  85.7889481   6.2192268  77.2213364  85.4476242  12.6819773  32.4696388
  85.3678665  11.7356396  32.3499947  84.8609619  12.8814430  33.1992149
   9.5960779  63.3643837  54.5023193  10.0011759  62.9944115  55.2866974
  10.3272848  63.5141411  53.9030342  48.1158066  42.8573532  57.2343025
  47.1724281  42.8369522  57.3950844  48.3331795  41.9633026  56.9703827
  67.6328430  66.3236465   7.4153500  67.1391983  67.1429596   7.3795776
  68.3330994  66.4376831   6.7728043  52.4940224  63.8107414  70.7127609
  51.8678246  63.4630661  70.0777588  52.0166168  64.5075455  71.1630783
  86.2234879  55.5713844  27.7434139  85.8700562  55.1391602  26.9659157
  86.8772888  54.9593468  28.0813198   2.0333982  32.5104675  17.5607376
   2.0215001  32.1060791  16.6932354   1.1125118  32.6819267  17.7577171
  14.1000309  26.1319504  62.6365967  14.1860962  27.0759220  62.7697945
  14.3606415  25.9938126  61.7259750  55.4339523  21.2676029  50.3123474
  56.1390686  21.9112911  50.2437515  55.7943459  20.4743996  49.9158936
   0.3600879   7.1815953  16.1304531   0.7420555   7.2628875  17.0043678
   0.6157930   6.3068647  15.8377209  86.4097748  20.0142689  18.6734295
  85.5003586  20.3096027  18.7177734  86.7572632  20.1763172  19.5504837
  76.7761383  58.1131287  85.5986404  76.8090363  57.5229378  84.8457642
  75.9122086  57.9635506  85.9826660  16.7613888  67.9124832   0.1528919
  16.8040142  68.7799225   0.5553442  16.3310795  68.0600739  -0.6892979
  10.9529743  49.3196335  50.2368736  11.3958788  48.4976196  50.0262566
  10.5513430  49.1631584  51.0915298  72.3467712  44.3856430  43.0251389
  72.0587463  45.2984581  43.0315323  71.9808731  44.0246849  42.2176361
  16.8219967  17.6044827  12.8505354  16.3881664  18.4490376  12.7290859
  17.7505722  17.7898788  12.7105074  75.8993835  18.2787895  73.0601959
  75.5231400  18.3991776  73.9320755  75.2027512  17.8603191  72.5544052
  64.5157928   3.1204917  20.8105068  65.0937119   3.5422120  21.4464245
  64.8923645   2.2494111  20.6854324  74.9892273  67.6767654  86.7207031
  75.4316788  68.3514175  87.2357864  74.6285019  67.0758057  87.3725891
  10.3980093  66.4845505  41.3974495   9.9983387  66.7129669  42.2366905
  10.7210331  65.5920181  41.5210304  10.3955669  68.6113815  78.3892746
  11.2511292  68.1867065  78.4516525  10.5894985  69.5478592  78.4297104
  13.1141777  57.4628601  38.4854507  13.0020857  57.0062332  37.6516876
  12.2250099  57.5617905  38.8257828  50.1210899  65.4629440  39.4628181
  49.8797913  65.2107468  40.3541107  49.9835243  64.6703415  38.9440765
  33.7992897  36.2681847  74.9601822  34.3081512  36.1314354  75.7593002
  34.3914795  36.7436943  74.3775711  31.2136497  50.4217262  78.1334152
  31.2579155  49.5559349  78.5392151  30.3017464  50.5099449  77.8561401
  75.9252548   6.2443938   3.0205441  75.8372574   5.8690300   2.1444216
  75.1822510   6.8425355   3.1005797   1.4059169  11.2069063  57.8351173
   1.4811331  10.9812698  56.9079361   0.8223791  11.9655104  57.8504333
  32.1419106  66.3000946  47.8764877  32.8771057  66.0128860  47.3349800
  31.3645840  66.0531082  47.3754921   5.7812209  12.5364914  55.6725922
   5.5357180  13.4483681  55.8289299   6.7284431  12.5167055  55.8090134
  58.0524406  48.5959892  10.0769234  58.3704300  48.9498978   9.2463436
  58.1751328  49.3089523  10.7037134  51.0423470  48.2127457  15.2741003
  51.5855980  48.0194054  14.5100784  51.6275940  48.6765480  15.8729382
  52.2651978  67.0601349  84.0009842  52.3718643  67.9315872  83.6196289
  51.4367447  67.1072617  84.4781342   2.8837936  11.2335768  74.4208298
   2.6988640  11.2508469  73.4818268   2.1825979  10.6989136  74.7932434
  13.3730993  60.7833061  54.6334915  13.4143314  60.4779053  55.5397263
  12.4957323  61.1558647  54.5459785  23.6765327  54.1483269   4.1952519
  22.7304420  54.2934036   4.1854753  23.8028183  53.3563766   3.6726620
  39.9418602  14.6064138  65.8187637  39.1717567  15.0859728  66.1240463
  39.9973450  13.8476610  66.3996658  39.1491737   5.2729311  34.8035393
  39.6722641   5.2154841  35.6031113  39.0021935   4.3623843  34.5475464
  83.6298904  66.2657471  36.5824089  83.7147598  65.8847885  37.4564209
  83.1063156  67.0559540  36.7153740   6.2838330   0.5126091  72.1997452
   6.9555154   0.8135019  72.8117371   6.6102529  -0.3286800  71.8805008
  37.8385239  37.6833153  58.7143898  38.6381264  37.8973694  59.1950684
  38.1454506  37.3991547  57.8534126  14.3946419   7.5396805  78.2376785
  15.2976580   7.8022294  78.4161758  13.8653584   8.2717943  78.5540619
  43.1819382   9.8066435  13.6855211  42.9634552   9.9846592  14.6002932
  43.8425331  10.4632797  13.4648933  86.7038956  40.1662216  60.7481308
  87.3874588  39.6377792  60.3361588  86.3876114  39.6262665  61.4724541
  65.8662186  21.8605919  87.1560440  65.0235367  21.7037983  86.7299728
  65.7805405  22.7319164  87.5429382   0.6152073  46.4688416  74.2820282
   1.5286593  46.5012398  73.9978027   0.1175544  46.3399124  73.4745941
  48.7633171  50.6749611  87.8925858  49.0961418  49.7790909  87.9462051
  49.4973030  51.1828613  87.5468521  73.4496384  42.5312653  14.2009649
  74.3873825  42.5699310  14.3890371  73.3906326  42.6462708  13.2525330
  48.5218391  53.1099892  36.3953209  49.2033844  52.5007629  36.1114769
  47.7939873  52.9522057  35.7940140  76.7363892  33.4904442  41.5626373
  77.1017914  32.7773438  42.0862770  76.0202637  33.0856171  41.0732422
  38.5733566  65.8293762  44.9440155  38.3945351  65.1015549  45.5394440
  37.9243202  66.4935913  45.1759644  59.6702080  46.9105606  59.6997490
  59.1915169  47.4081841  60.3626671  60.5902672  47.1190567  59.8617783
  67.3865585  54.3148575  43.2169151  66.7313309  53.7459068  43.6209030
  67.3507156  54.0976372  42.2853775  85.3979721  39.2571869  81.6380844
  86.0005569  39.6970901  82.2377548  84.7811127  39.9400787  81.3746796
   7.2360702   8.5494471  72.0552292   6.7742724   8.0533905  71.3792801
   6.9422393   9.4521523  71.9326706  55.0495453  44.8976555  58.2249031
  55.4806557  44.8593216  57.3711433  54.7062798  45.7894859  58.2800560
  53.7275505   6.5373054  19.2828999  53.9720421   6.6704926  18.3670864
  52.8357468   6.8794694  19.3449116  66.1025772  19.8129807  20.2768688
  65.2266388  19.6964874  20.6448288  65.9652328  20.3509884  19.4971790
  66.7326279  49.4865799  63.4359360  66.6691208  49.3205566  64.3764877
  65.8435211  49.7260208  63.1744194  32.6199341  68.1745758  43.0413857
  33.4267616  68.6132355  43.3112717  32.6093178  68.2580948  42.0878983
   2.3265915  50.1273804  27.4727764   1.4052329  50.0065041  27.7023830
   2.3757837  51.0251045  27.1442909  52.9041214  53.2915268  66.6792603
  52.1293526  52.9003372  66.2756042  53.0114937  54.1294250  66.2291107
  35.4522171  63.3300591  47.9276123  34.5498810  63.0717659  48.1155090
  35.9866638  62.6560974  48.3475838  68.4479218  58.3011055  75.0044937
  68.9689713  58.7953911  75.6372833  67.5515137  58.3589249  75.3351440
  62.7442245  30.1057930  64.1108322  63.1623001  29.4273872  64.6411285
  62.1166000  30.5199299  64.7031250  82.9734268  38.2360306  34.2420082
  82.5312729  37.4805832  34.6293488  82.6890717  38.2373009  33.3280182
  23.9950905  46.9521561  71.0809555  23.6293087  46.2407074  71.6065750
  23.8498135  46.6797180  70.1749191  74.8433380  34.1796074  55.9257355
  75.2329559  34.4208717  56.7661057  74.3959351  34.9733696  55.6324768
  69.4527130   1.5290586  28.8875790  69.7577057   2.2469511  28.3327465
  69.0724182   1.9619868  29.6518955  80.5047913  26.1739445  63.3372307
  80.1627502  26.0159931  64.2171707  81.4552917  26.1903267  63.4491005
  10.7161417  47.8651466  16.5117931  11.2020693  48.6668320  16.3183899
   9.9668407  48.1584167  17.0302238  43.1430588  57.4119606  69.0999298
  43.5999413  56.5728569  69.0416946  43.6899261  58.0176659  68.5996399
  24.3757744   3.5005312  24.6557121  23.9081402   3.7254903  25.4600410
  23.9722729   2.6827328  24.3648109  25.7780018  45.4237976  44.1170425
  26.1678829  45.5999298  44.9733124  26.3602715  44.7778931  43.7170410
  84.1008682  37.1169205  63.7282791  83.5217972  37.8351974  63.4733620
  83.9280243  36.9894371  64.6610718  83.9717865  15.3994675  88.5482864
  84.2058716  14.8788414  87.7799225  83.9542618  16.3019638  88.2298126
  49.1743050  59.3359947  72.4182739  49.0449104  58.4032249  72.2467194
  49.1802711  59.7405052  71.5507660  19.5918140  55.0495834  12.4103842
  19.2766533  54.5295715  13.1496363  20.1897373  54.4653130  11.9441757
   3.3826740  51.7000961  40.1263847   3.8990135  50.8942375  40.1116905
   2.6234498  51.4882278  40.6694489  43.2119370  43.0041962  67.0063095
  43.9158707  43.3870544  66.4827347  42.6888504  42.5070992  66.3774185
   1.5111454  64.3581543  81.1137466   1.4439487  65.1028366  81.7113800
   2.1200390  64.6497955  80.4351959  60.2671585  62.6503372  47.7201958
  59.6286163  63.3260155  47.4922523  61.1162262  63.0492706  47.5300102
   5.5015845  20.4441032  80.4934235   6.3424196  20.8882332  80.3839874
   5.6522150  19.8170166  81.2007446  82.7707214   9.9300690  40.4441147
  82.2870636   9.1077509  40.3660126  82.1241379  10.5586853  40.7650490
  47.7338371  28.9242878  69.2496948  47.8670845  29.7898655  68.8633652
  46.8430405  28.6831436  68.9955978  16.9863091  59.7587585  50.9139252
  17.7425766  60.3435593  50.8659782  16.4166451  60.1573563  51.5718231
  64.8303604  38.9214211  49.5503769  65.7514954  38.7084541  49.7000046
  64.3480530  38.2651367  50.0532722   0.4031234  37.1749153  82.0131454
   0.8132929  37.8426476  82.5628052  -0.4223514  37.5698204  81.7323074
  70.0716019  64.5346222  41.5096817  69.5339355  64.2226639  40.7817917
  70.6162949  63.7832909  41.7443008  72.2251129  57.6414070   8.2254963
  71.3128281  57.5060806   8.4817142  72.6002197  56.7610931   8.2013540
   9.6966743  25.1470356  60.8605804   9.1153440  25.8371010  60.5410538
  10.3301029  25.6044636  61.4135323  78.5626297  13.1530571  37.3978386
  77.7881317  13.6296034  37.6966553  78.7819595  13.5553894  36.5574455
  56.2312317  29.1390877  47.2539024  55.8356819  28.6413155  46.5383644
  55.9325752  30.0377178  47.1142616  31.5727596  12.8949375  79.3320160
  31.5023327  13.1129732  78.4026413  31.7598743  13.7301874  79.7604675
  11.7808199  42.0109978  71.6036682  12.4170914  42.7184715  71.4994125
  11.0739336  42.3987122  72.1196289  71.0870895  27.1480064  19.7398643
  70.1821747  27.3909245  19.9357033  71.0145111  26.3290253  19.2497234
  83.5313644  55.1483231  70.7251663  84.2648010  54.6848946  70.3207703
  82.7527084  54.7506599  70.3355713  84.7915955  18.4601288   2.1265860
  84.3560944  19.2599030   1.8317455  84.1288757  18.0036888   2.6449392
  70.3347321   4.3692632   4.9201260  70.0548325   3.8891270   4.1407952
  71.2693558   4.5240970   4.7832360  86.6080093  52.3304253  51.5043945
  85.8255615  51.8543282  51.7824974  87.2315674  51.6457443  51.2622871
  58.3398094  15.8313856  62.3511734  58.9091797  16.4207973  62.8457870
  57.9321671  16.3909245  61.6901321   5.0536146  66.9512711   8.9274969
   5.2742438  67.4793930   9.6947269   4.1438441  66.6900864   9.0700855
   9.1696377  13.0854778   2.0257766   9.8499155  13.4440136   1.4557718
   8.3480902  13.3808823   1.6333120  37.7946930  27.6090565  60.4935150
  37.1465302  26.9189415  60.3526077  37.3225250  28.2856350  60.9788322
  56.3027496  46.7444534  46.9326019  56.0060768  46.8452454  46.0281334
  56.5624542  47.6263428  47.1991692  84.6869049  51.9404945   8.6953449
  85.3874664  51.5416718   8.1792126  84.3000336  52.5922890   8.1107702
  35.2396698  45.8883324  14.6865749  35.9072227  45.3067398  14.3227673
  35.5028572  46.0143471  15.5982122  61.1757507  20.9923267  84.3174896
  61.8854523  21.2363663  84.9116287  61.2485352  21.6108685  83.5906143
  62.8147621  14.2870493  22.0170746  63.5625687  14.7558947  21.6466694
  63.1817436  13.4604893  22.3306904  17.6683884  13.0260677  72.8434525
  18.3097076  12.4747849  72.3950882  17.4356747  13.6949472  72.1995010
   9.4334040  45.7293053  18.6225052   9.2505283  46.6583710  18.4824009
   9.8675613  45.4466248  17.8176270  68.1766510   7.7731466  59.5754890
  68.9894714   8.2555733  59.4244308  68.4257202   7.0637851  60.1679459
   4.5210609  28.4817505  68.2912903   5.3005772  27.9425583  68.4249191
   3.8153477  27.8511562  68.1479340  78.4486389  38.3568611  76.4815445
  78.5077820  37.8375893  75.6796188  77.7160416  38.9532776  76.3272095
  81.4023819  38.8139648  18.7332382  82.0444107  38.2129631  18.3553085
  81.8372421  39.6666222  18.7226582   8.2031460  23.4212494   0.5601471
   8.4306803  23.1802101  -0.3378285   7.5768228  24.1387024   0.4641716
  25.3096333  20.0840092  72.5518341  25.4450779  20.8269577  71.9636841
  24.8049126  20.4445705  73.2808609  24.5866108  14.9580669  70.5776138
  23.7311764  14.8880320  70.1538696  24.4470844  14.6091757  71.4579773
   7.6601276  31.8841686  48.4274750   7.2006922  31.0574970  48.2799530
   7.9633608  32.1479988  47.5587540  57.8210373  49.9050674  82.9929581
  56.9193954  49.7812729  83.2895203  57.7568855  49.9376144  82.0384598
  16.4917984  43.3388214  57.9085274  16.2141895  43.9700508  57.2446671
  16.4024792  42.4869576  57.4812279  29.0552673  59.5944023  51.6816635
  29.3304977  60.5104141  51.7191086  28.1319714  59.6112404  51.9335976
  65.3107224  38.4004402  57.1461372  64.3691254  38.2389412  57.0865364
  65.4137421  38.9268074  57.9389534  50.2988739  64.3289337  16.8247910
  50.7477074  63.8106537  16.1568298  50.1141281  63.7057152  17.5274315
  72.7657089  10.8728018  16.1012974  72.8701782  11.8133278  15.9573269
  73.0978317  10.7277679  16.9872398  49.0362663  20.8472366  77.4767456
  48.2264442  21.2362347  77.8070526  49.5150223  21.5813427  77.0918961
  63.1524353   3.2140367   1.4181939  62.3701363   3.3628073   0.8870521
  63.3347092   2.2795372   1.3196151   2.7581086  66.7587585  62.9927254
   2.9252212  67.4230347  63.6613388   3.3333344  66.0310822  63.2290192
  70.7110367   8.2945499  77.6580124  70.0738831   8.5273819  76.9826889
  70.6361313   8.9924784  78.3087921  67.8560867  26.0825157  63.2371635
  68.0428238  26.6301632  62.4746361  66.9873276  26.3620644  63.5258408
  62.5727463  56.6741562  58.0473366  62.7423401  57.5774841  57.7800064
  61.9860649  56.3310356  57.3733139  79.2917023  23.2290344  25.3797932
  78.4154053  22.8818302  25.2131157  79.1947174  24.1770916  25.2902584
  41.5637054  40.0794601  58.1633263  41.4875488  40.9967842  58.4259109
  41.7666588  40.1139793  57.2285233  51.3560104  47.4749260  61.0722351
  50.7752647  46.7909737  61.4056664  51.4253769  47.2942238  60.1348076
  82.0642014  26.5255566  19.8376007  82.2942505  25.6741390  20.2096195
  82.8989487  26.9881554  19.7638855  69.9863510  14.3305330  88.3771820
  69.4850616  14.7637358  87.6863327  69.6833267  13.4227333  88.3596725
  58.7082977  33.5762177  17.3437748  58.5151100  33.6752129  16.4115143
  58.2299538  34.2905426  17.7646732  40.6604424  24.1717911  59.7971611
  39.8902130  23.6099701  59.7114830  40.3887329  25.0095348  59.4222031
  31.2032413  51.7238464  51.1489754  31.8063946  51.2835274  51.7477722
  30.8558083  51.0213089  50.5994644  52.0208168  58.4255753  18.0913830
  51.3528862  58.8762665  18.6080818  52.0852814  58.9370575  17.2848701
  82.3157349  45.0181656  56.0232620  82.1444473  44.6382179  56.8849678
  81.4840851  44.9373970  55.5562859  34.0733223  55.3670616  59.8324661
  33.5057449  55.5233345  60.5872307  33.9647942  56.1453781  59.2859535
  23.4298744  68.0371780  61.8732452  24.0429840  68.3158646  61.1930504
  23.2969589  68.8181763  62.4104729  56.8524132  64.7936859  23.1481285
  56.3281136  64.8710709  22.3510399  57.5895462  64.2371521  22.8968544
  62.3811226  28.8902664  46.0057106  62.8443680  28.2008514  46.4814644
  62.1144257  28.4769497  45.1845703  47.3264999  20.7393646   5.3319340
  48.1454315  21.0576878   4.9521265  46.8455048  20.3718586   4.5904379
  62.1666870  51.7493935  47.2307014  62.2194481  51.6692352  48.1830788
  61.3805771  51.2580948  46.9921761  34.8592720  44.1316833  68.3473969
  35.1605377  44.0991020  67.4394302  34.5648422  45.0342102  68.4698181
  62.3346748  59.1699295  40.7120399  61.7885818  59.1479034  41.4978714
  62.4188538  60.1006432  40.5048828  81.9489594  34.5171356  59.5783730
  82.4853897  33.7979050  59.2449341  82.5251389  34.9856415  60.1823158
  72.9587021  15.0518980  10.0667372  72.7358932  15.0275650   9.1361485
  73.8108063  15.4868650  10.0977077  69.9584427  17.8757877  78.0984268
  70.6508865  18.1797848  77.5116272  69.7492828  16.9954357  77.7862320
  75.5798721  37.6849823  46.3579826  74.9962234  37.7791786  45.6051788
  75.0648041  37.1974983  47.0008621  42.3421669  49.8283806  78.5982590
  42.7346001  50.2195320  79.3787918  42.6354370  50.3859940  77.8776398
   7.7729540   4.2626801  58.8539391   7.3540978   3.8170900  58.1175690
   7.6633191   3.6620200  59.5911102  65.5915298  17.0569191  37.3482018
  65.3331528  16.2349243  36.9313087  66.5481491  17.0517693  37.3153992
  65.3045044  13.2418346  60.5483246  66.2068405  13.0903835  60.8295364
  64.8304596  12.4606600  60.8334274  72.3412628  12.2705135  56.9903412
  72.2378693  12.5567961  56.0828285  73.2365723  11.9348698  57.0350761
  72.0787354  43.1428223  34.2471581  72.7090683  42.7239838  34.8332329
  71.2854843  42.6137123  34.3309975  56.2116661  46.6525345  44.2236252
  55.8151131  46.8259735  43.3698692  57.0744743  47.0641518  44.1750183
   8.9469357  29.5143890  62.1324959   9.0649605  30.4021053  61.7944641
   9.7852421  29.3006535  62.5421181  10.5755072   6.9916000  84.8453827
   9.8623095   7.1787958  84.2350235  11.0283337   7.8285775  84.9485779
  68.6763687  59.5365105  41.5329094  68.4619598  59.8427658  42.4140854
  67.8753967  59.6786118  41.0284538  16.6184788   9.3526602  85.7625580
  16.3788452   9.7714643  84.9358749  15.9296293   8.7049265  85.9114151
  72.8735046  25.3355713  85.1452637  72.0917206  24.8777409  84.8363495
  73.5308685  25.1697731  84.4695206  56.4372978  45.9387207  24.6993866
  55.8152199  45.2691078  24.9837608  56.4195251  46.5938835  25.3970108
  27.3153687  56.7256889  48.9512634  27.2975636  55.8576469  48.5482483
  27.0081940  56.5806236  49.8461533  59.2373123  28.3497314  43.2362022
  58.9769783  28.7817726  42.4226952  58.5127144  28.5171719  43.8388252
  82.4374924  30.6658230  20.9954967  81.5647812  30.4853973  20.6461411
  82.9865494  29.9662304  20.6414661  37.2478256  59.1939507  51.8475189
  36.5583382  59.8568764  51.8106003  37.3877144  59.0456963  52.7827682
  52.0566673   3.8884461  87.8862991  51.5616760   3.0692914  87.8721390
  51.4369392   4.5481882  87.5749969  57.8657074  67.5841751  61.1725883
  57.1363716  67.3284149  60.6078835  58.3250160  68.2628632  60.6779747
  28.8884106  70.0243225  10.1570644  29.3287582  70.8712845  10.2276402
  28.0159473  70.2349625   9.8243971   0.0438431  32.9634209  62.9059448
   0.0934080  32.4110680  63.6861267   0.9221705  33.3337135  62.8184509
  48.9549866  71.0642548  50.2135086  49.3094788  70.8696823  51.0810966
  48.9709778  72.0196533  50.1569862  72.4284821  16.8522549   5.1579471
  72.9472961  17.6535473   5.2286239  71.8921585  16.9823780   4.3758602
  68.9431076  33.7822342  27.2237549  68.0677261  33.5821075  26.8922615
  69.0405121  33.2239647  27.9951687  64.4093628  61.1821709  46.6236076
  64.8741302  60.9474182  47.4267998  64.2018738  62.1105804  46.7295799
  29.7461224  43.1879387  62.9811211  29.3513737  43.0194778  62.1255379
  29.8333969  44.1403046  63.0212936  35.5198212  62.0285797  13.7928934
  36.4362679  61.9666214  14.0621738  35.0753746  62.4209671  14.5443830
  23.4334583   5.9976187   8.4554501  23.8790932   6.7983150   8.1788139
  24.1392269   5.4164009   8.7388391  55.6619263  55.8412628  44.7285347
  55.6278458  56.6676483  45.2103615  56.2320976  56.0229416  43.9814529
  48.7314453   2.6640322  68.5185394  47.9290695   2.1585381  68.6485443
  49.2767525   2.4464269  69.2745209   1.2501765  63.7287369  28.7927265
   1.9462144  63.6236839  29.4413605   0.4849851  63.9934425  29.3032608
  26.7993813  59.0934563  30.0679760  27.2681866  58.2593727  30.0405064
  27.4697609  59.7512054  29.8830719  82.2411880  46.3862381  59.7276001
  82.5289078  45.6152763  60.2165451  82.9005890  46.4951134  59.0423546
  28.8093872   5.5838389  18.7170734  29.3793907   5.9940777  19.3674831
  27.9788952   5.4532847  19.1747551  61.9600792  58.1504669   9.2027283
  61.3889732  57.6162262   8.6507740  62.5374680  58.5999451   8.5856152
  59.7529564  19.9264851   5.9086103  59.2214088  20.4170380   6.5355453
  59.2820778  19.1017418   5.7890182  34.0230179  70.8300629  56.7283478
  33.7601204  70.6439438  57.6297264  34.5018501  71.6569901  56.7844048
  63.1732864  28.3691406  57.9290276  62.6590958  29.0491066  57.4937325
  62.8891258  27.5532684  57.5169144  60.6028366  11.9500952  13.2929459
  59.8858643  12.0303812  13.9220247  60.1853905  12.0604115  12.4386606
   2.4703226  14.1566353  66.6932144   2.6230614  13.5654526  67.4303741
   1.9442055  13.6436377  66.0798111  36.8679008  35.5054474  54.9350700
  36.8743477  35.8615532  54.0466003  36.2479706  34.7771339  54.8966980
  77.7857437  12.9468594  18.9405251  78.3520432  12.5552635  19.6055012
  76.9089279  12.6283092  19.1548729  63.9886589   6.0408602  75.8142319
  64.7421570   6.0405440  76.4045486  64.0412598   6.8813276  75.3591690
  63.9204712  27.3844147  30.5020103  64.1402512  26.6655922  31.0946522
  62.9643288  27.4257431  30.5198803  42.0102234   9.2009745   8.9748640
  41.5347672   8.3943605   9.1737299  41.7142296   9.8234291   9.6390705
  22.1327248   8.1330099  56.1702957  21.6537704   8.6036863  56.8524246
  22.6983376   8.7957888  55.7740173  76.7103348  14.6506004   7.7356286
  77.5660248  14.8064404   7.3359561  76.0811996  14.8790102   7.0513411
  66.6481171  49.9605484   8.4840193  66.9129639  49.5764313   7.6482310
  67.3731613  49.7654800   9.0777283  31.6287289  39.8036537  62.0109406
  32.5240173  39.4917564  62.1429138  31.5147877  40.4898643  62.6684837
  68.2726746   4.3011432  84.5690460  67.8413239   4.7329125  83.8316574
  68.8016510   4.9889255  84.9732437  75.9929352  53.2570381  80.0330353
  76.7870178  53.2784042  79.4989929  76.2631302  52.8321190  80.8470840
  35.8231087   3.8753161  11.6259871  36.6099625   4.3245335  11.9346828
  35.3044968   4.5617385  11.2063456  54.5224991  38.7127304  21.2306080
  55.4141426  38.3806458  21.1261005  54.6339188  39.6471748  21.4056339
  74.8348236  52.0660782  25.8588428  74.0991974  51.4717712  26.0067863
  74.7867584  52.6913528  26.5819988  31.0156116  37.1912956  82.1396713
  31.8676548  37.3983612  81.7557755  30.3903770  37.3427963  81.4308929
  62.3840408  16.5113621  11.1362104  63.1276054  15.9635916  10.8846302
  62.5228119  17.3338947  10.6667271  46.6852837  24.1584530  33.7362976
  47.3143120  24.6279087  34.2841721  46.7012024  24.6243973  32.9003105
  82.7405548  71.1038895  17.0287895  82.2100220  71.8820724  16.8579082
  82.7879639  70.6561203  16.1841106  74.0643463  25.8462200  13.1505489
  73.9768829  26.1611423  14.0502195  73.2376709  26.0855732  12.7315683
  71.5535278  70.8398819  19.6361351  71.4976807  70.3805466  20.4740639
  71.2432632  71.7250443  19.8270741  32.9195595  64.3023911  17.4481964
  33.0537796  64.3747559  18.3931732  33.6656456  63.7886200  17.1389599
  10.6704350  59.1726608   8.0146303  11.3776398  58.9982185   8.6356478
  10.0029001  59.6230087   8.5321417  67.3998032  41.6832619  78.4635391
  67.3976822  42.2784729  77.7139053  67.3862686  42.2600136  79.2273483
  64.4429092   4.9586649  35.9830933  64.2266312   4.1034451  36.3546448
  63.8091621   5.5581632  36.3770409  73.2635727   4.3137078   3.5232494
  73.2785416   4.5413356   2.5936291  73.4728546   3.3799095   3.5445855
  53.7772293  40.4256325  63.4858665  54.4159393  39.7896423  63.1636925
  53.0814781  39.8925285  63.8705254   2.0975869  16.7343025  43.1980515
   2.2374191  15.7900362  43.2690468   1.9725573  16.8881741  42.2616081
  51.0466118  67.3022995  60.2297249  50.7076378  68.0888290  60.6571693
  50.7107010  66.5786285  60.7585869  12.8617306  43.5658798  13.6090956
  11.9727526  43.4731560  13.9516621  13.2130260  42.6754761  13.6104717
  84.1679459  28.5600300   5.8489509  84.2041626  29.4149418   5.4199433
  83.4184570  28.1215057   5.4462132  49.5146637  39.1460838  73.4925919
  48.8106270  38.8453979  74.0671768  49.1677208  39.9387589  73.0832901
  48.6776123  29.0280476  21.8772030  48.2297287  28.1873913  21.7826958
  47.9708023  29.6712914  21.9309692  52.7467461  57.1688919  43.4435043
  52.0776596  56.6876259  42.9567413  53.4260178  56.5189285  43.6234131
  20.6562233   2.3454006  76.6891174  20.4278622   2.7504046  75.8524246
  19.8142662   2.1849260  77.1152420  59.7026405  54.5196648  44.1071930
  60.1583710  54.7185669  44.9251060  59.7488747  55.3323097  43.6035118
  25.8424301   2.4695368  78.5385056  25.2475605   3.1007411  78.9434052
  26.0375099   2.8418300  77.6785202  72.2065201   6.6556907  10.2433281
  72.2747955   7.0875540  11.0948353  72.0710297   7.3711758   9.6220751
  80.3418427  20.9020004   5.2994285  79.9124451  20.4979115   4.5453973
  81.2447357  21.0421791   5.0141840  36.8855972  13.0306845  77.0706558
  37.1491051  12.4345083  76.3696747  37.2934265  12.6698799  77.8578796
  85.7485962  34.0462570  33.3862190  85.2617264  33.8703766  32.5810776
  85.6008377  34.9764137  33.5571251  31.4727573  63.6029053  64.2650528
  31.4222336  62.7040977  63.9397430  30.8409061  64.0861816  63.7326584
  57.2302856  27.5447044  11.2073584  56.8453827  27.1608372  10.4194956
  57.9514084  26.9568768  11.4324551  71.2396774  25.6089668  68.2448349
  70.5916214  25.8268776  67.5749359  71.8826828  26.3162899  68.1951141
  54.6443176  67.4378738  21.5263901  53.8753510  67.3107071  22.0820408
  54.4317436  66.9778595  20.7143345  62.6246681   6.9602361  37.0118446
  63.1096535   7.7851005  37.0367355  62.6875572   6.6184144  37.9037170
  69.1397934  68.6752777  52.7208939  68.5943756  68.3563080  52.0018578
  69.1023560  69.6287460  52.6451721  15.7973156   3.6204555  18.1547337
  15.6243687   4.5487242  17.9977665  16.7480450   3.5380127  18.0802307
  80.9301682   9.3809147  48.2116356  81.7729721   9.6123848  47.8213272
  80.8997421   9.8788071  49.0285873  37.5328522  59.1870461  54.5560226
  37.9668770  58.5891304  55.1645851  37.4468689  60.0055428  55.0447960
  21.6015034  48.2924805  14.7935753  20.7890644  48.5669403  14.3683167
  21.4093037  48.3393288  15.7301092  12.7430201  58.9121132   9.7434969
  13.0917873  59.6266365  10.2764597  13.5181026  58.4407005   9.4381323
  80.7051468  64.4141464  49.3543396  81.1616058  64.6171417  48.5378418
  80.9617386  63.5140266  49.5547905  45.9457054  63.4269218  21.7585297
  45.3672714  63.1182938  22.4559498  46.0486946  64.3630829  21.9295006
  35.4021835  47.8996658  51.0425491  35.5360985  47.5903969  50.1466408
  35.8436813  48.7484741  51.0714302  85.5688095  71.3771744  18.0862579
  85.7823029  72.0573883  17.4475403  84.7447052  71.0045242  17.7728748
  77.0776749  45.4943771  54.1917610  76.5502243  46.2918243  54.1458511
  76.9847565  45.0956154  53.3265495   8.4287539  66.6282730  24.2125607
   7.6520681  67.0179138  23.8110943   8.3158245  65.6860123  24.0875950
  13.1071672  43.2007751  32.0164604  12.6425610  42.4795494  31.5919514
  13.4005852  42.8377609  32.8521385  67.4425659   3.5353761  55.1473160
  68.0130005   3.2274575  54.4430237  67.9874344   4.1416817  55.6490593
  84.4087296  44.1157646  86.6600952  84.6812210  44.9617310  86.3046722
  85.2288437  43.6551514  86.8375397  37.5762787  61.0653954  80.0727081
  37.8411446  60.2580948  79.6318665  36.7099762  61.2603340  79.7152939
  76.3769684  48.6074295  42.5862999  77.1884613  48.7225914  42.0918808
  76.0068588  47.7903366  42.2522125   1.9766761  14.6522617  49.3672714
   2.4155135  13.8372221  49.1236267   2.6045635  15.3388519  49.1423645
  55.1561470  24.8950806  44.0383606  54.3159370  24.5280228  44.3132248
  55.1414604  25.7957401  44.3621330  24.5178013  43.5428429  60.5510216
  24.3666725  43.9709473  59.7083359  23.6715794  43.1581726  60.7794228
  86.6925812  69.3063736  67.3429108  86.7805557  68.3536606  67.3141632
  86.1632385  69.4746094  68.1224823   8.2077036  52.5996666  25.8554897
   9.0322256  52.4424973  25.3953876   7.7590833  51.7542763  25.8386097
  37.7853241  26.3680840  86.4104156  38.3366966  26.3371716  85.6285858
  37.0532684  26.9338646  86.1650162  86.5848541  53.1503067  86.3059082
  85.8181839  53.1495667  86.8790131  86.8031921  52.2247543  86.1967621
  77.0954971   5.8074560  62.4291611  76.3723984   5.5988793  63.0206451
  77.6554260   6.3972082  62.9340439  85.2995911  70.1337814  11.2733412
  85.5159607  69.2281799  11.0512857  85.2725601  70.1458817  12.2300825
  65.3641968  58.5211830  72.7463150  65.3899460  57.6137543  73.0498581
  66.1279755  58.6045456  72.1754150  55.2324982  23.3204613   8.4568825
  55.8403015  23.5536728   9.1586084  54.7895584  22.5338936   8.7752342
  20.9004517  51.5153961  83.8869629  21.6408958  51.0015678  83.5645447
  20.9070911  52.3079300  83.3502350  67.9937286  65.5601425  26.6081200
  67.8706360  64.8513031  27.2394848  68.4037476  65.1393051  25.8524628
  52.2623672  54.3694458  59.6191750  51.8685570  53.4973869  59.6448479
  51.6087646  54.9146080  59.1811867  74.1564102  16.0467072  54.8663940
  74.4858246  16.7756310  55.3921165  73.4398651  15.6815987  55.3855209
  23.3187771   4.7397742  84.5598221  22.5881214   4.5258045  85.1399918
  23.6385651   3.8908732  84.2543182  49.2661667  68.0877228  54.5327950
  50.1389313  68.4305954  54.7250328  49.1593628  67.3525314  55.1363831
  17.1822948   3.0997646  65.4277267  16.3872051   2.6859088  65.7635651
  17.3653507   3.8054128  66.0480347  39.2631836  63.3548546  13.6967707
  38.9706917  62.5117073  13.3506832  40.0847206  63.1571808  14.1464748
  56.9261360  25.1842651  32.8837967  56.5212746  25.2944069  32.0234528
  56.2083473  25.3109093  33.5042610  80.2338257  11.3878145  73.3608398
  80.4836349  11.1595602  74.2562332  79.8688660  12.2698841  73.4314728
  52.0909882  44.6139488  49.5533218  52.8966255  44.2549324  49.1814499
  51.4885139  44.6689072  48.8115425  30.3856049   2.5257242  36.3101921
  30.6244717   1.7020302  36.7352867  29.6379776   2.3013330  35.7561760
  73.9933853  36.0281601  48.0647964  73.2699432  35.8687172  47.4586258
  74.0031815  35.2584801  48.6337662  63.5425644  15.5383892  75.2883148
  64.3309937  15.2422018  75.7431564  63.6773949  15.2738867  74.3783188
  26.1741371  22.8828125  10.4203482  27.0603333  22.5854359  10.6263924
  25.9705887  23.5209560  11.1041412   7.4130540   1.1915216  20.7221203
   8.3393097   1.0194936  20.5527420   7.3690357   2.1351557  20.8765507
  26.0667973  44.0510712  80.7556458  26.7374039  44.6953087  80.5287628
  25.2379417  44.5103455  80.6203690  11.8550787   2.3776650  32.1330261
  11.1588917   2.4122987  31.4770088  12.6481256   2.6172531  31.6535397
  54.3154907  24.8053780  73.7303314  53.4530258  24.7031231  74.1327362
  54.2336578  25.5869541  73.1838226  56.9018135  43.7080116  80.7794189
  56.7094383  44.1499176  79.9524078  57.5975533  43.0872231  80.5630798
  51.8016357  41.3092384   0.6332782  52.6251106  40.8294449   0.7222871
  51.2714615  40.7685165   0.0478145  46.2967949  28.7466488   1.5038424
  45.7971649  29.5544605   1.6223360  46.9350624  28.7529831   2.2171478
  17.0537071  44.2521400   8.0641975  17.2630005  45.0881119   8.4808264
  17.2511711  44.3901520   7.1378102  22.5426197  67.8452988  59.1864891
  22.9385395  67.4170227  59.9454765  23.2872219  68.1290665  58.6561356
   7.1581426  48.7387276  83.4481506   6.8392467  47.9065018  83.0989532
   7.2248697  49.3097572  82.6828308  47.1834908   2.0190575  20.9181995
  46.6111069   2.3358610  21.6169434  47.4141808   2.8049099  20.4227676
  84.5197220  55.4448395  77.3381577  84.2914200  54.8868904  76.5946503
  84.1868439  54.9739037  78.1021194  10.2368031   0.2281977  20.9302235
  10.5531530   1.1168463  21.0928822  10.5774555  -0.2851495  21.6627960
  70.5746307   9.3542671  73.7444534  70.5020370   8.4378300  73.4777985
  69.9074326   9.4599552  74.4226151  44.3128242  44.7105179  34.7917671
  44.4001274  43.9992828  35.4263992  45.0804939  44.6229286  34.2267532
   1.9492929  60.2448387  74.1196976   1.4506271  60.8069839  74.7126236
   2.8396709  60.2564354  74.4708786  65.8932571  47.0719032  80.9455872
  66.6887207  46.6268501  80.6533737  66.0174179  47.1906929  81.8872375
  67.5344696  61.5823631  73.5941315  68.3870163  61.7741432  73.9847946
  67.7142563  61.4944878  72.6580887  70.4240417  45.9113274  41.4351654
  69.7926178  45.6262627  42.0956764  70.5653305  46.8391075  41.6235504
   6.0799937  57.5480576   2.7920094   5.5742812  57.9277534   2.0734568
   6.7588649  57.0300331   2.3595517   1.1451868  10.2900829  39.4977112
   2.0952678  10.1894102  39.4390373   0.8329030   9.4398451  39.8072395
  37.2011833  37.0231094   8.7434578  37.6837349  36.4088020   8.1902819
  37.4716759  37.8875427   8.4339018  47.7795525  48.9975166  76.4225769
  47.2084541  49.3024139  75.7175140  47.6453552  48.0500793  76.4467316
  86.4731598  52.3442192  20.3528385  86.9816818  51.8124352  19.7405949
  86.8906860  52.1974525  21.2015762  82.3140488  67.2635651  68.6173019
  82.6368256  66.9040375  69.4436111  83.0916061  67.3237534  68.0623093
  66.6597977   3.8678353  44.3153152  67.3651581   4.2402153  43.7861366
  67.0819855   3.6223493  45.1385536  64.7172699  35.3167763   6.4893546
  64.4913635  36.2458801   6.4451022  64.8068466  35.1363716   7.4251232
  75.9345016  16.5923004  31.6114960  76.6517334  17.1864243  31.3905334
  75.9665146  16.5226288  32.5656204  65.4636459  69.0052338  10.1959581
  66.0772171  68.4816360  10.7113323  64.6427917  68.5139923  10.2292843
  85.1344452   8.0856171  51.9306412  84.6947556   8.5695610  51.2315674
  86.0568771   8.3265572  51.8452110   6.1719632  23.1962795  19.7920284
   7.0630393  22.8671417  19.9098549   6.2587442  23.8960342  19.1446934
  76.7473526  38.6872482  27.5204391  76.2843704  37.8518372  27.4574165
  77.0114136  38.7460709  28.4386120  71.4398804  70.2640839   2.1030102
  71.4732285  70.0265350   3.0296650  71.5318375  71.2168350   2.0965354
  72.3386154  62.5097771  23.6320038  73.2239075  62.8724022  23.6634254
  71.8886871  63.0334244  22.9689884  46.7285347  61.9150314  73.3304443
  46.0355072  61.6475105  73.9340820  47.0040054  61.1021652  72.9066620
  33.5701523  67.6500244  59.5138397  32.9627457  66.9282532  59.3515549
  34.3402557  67.2327728  59.8999443  24.9515800  33.9289818  79.2587891
  25.2128620  33.0780716  78.9067764  25.0673790  34.5362816  78.5280304
   8.5561018  28.3856697  11.8301229   8.3823357  27.5127888  12.1824217
   9.3479204  28.6739426  12.2841654  61.2559052  50.0915260  67.8929596
  61.9958267  50.5901108  67.5463104  61.6540375  49.3168182  68.2898788
  79.1034622  23.8550682  85.9395065  79.4647446  23.7310600  86.8171844
  79.7906647  23.5421829  85.3512115  25.2840939   4.8230433  76.0615158
  24.5516529   4.5307088  76.6040192  26.0415440   4.3506899  76.4070358
   5.0160484  35.6787186  50.2191887   5.0658369  35.0741882  49.4787178
   5.8885393  35.6489754  50.6117516  81.1684875  33.8820114  20.0555592
  80.6328430  34.2590446  20.7535324  80.5545807  33.7330856  19.3364124
  14.6165791  24.6653652  89.0735016  14.0380077  23.9844456  89.4167709
  14.3671169  24.7501106  88.1532745  39.0488815  43.5115089  20.5226345
  38.5624580  42.7319641  20.7908440  39.9646149  43.2328529  20.5187016
  76.6594925  47.0230522  29.5581303  76.0184402  46.3783455  29.8575211
  76.1516724  47.6375504  29.0282822   9.9924946  17.4330864  65.1442719
  10.8148251  16.9484596  65.2159729   9.6295223  17.4212761  66.0299072
   6.3111262  32.7997780  43.2125626   7.2211289  32.5900536  43.0024605
   6.0463886  33.4224777  42.5355186   7.2198992  57.6645966  15.5419884
   6.3923440  57.1836090  15.5478516   7.3472266  57.9332619  16.4518452
  62.6444016  59.7579155   4.5847807  63.2008858  60.3706169   4.1039972
  61.7911491  60.1898994   4.6245465  18.0038128  44.5760765  37.3979378
  17.9478798  45.2813950  36.7532425  17.5513077  44.9193802  38.1683960
   1.7382315  27.2347145  51.8184357   1.1979263  27.0919628  52.5955582
   2.4458668  27.8043709  52.1200562   5.4238033  69.8342667  74.1029816
   5.0362134  69.2797470  74.7801208   5.6746249  69.2247620  73.4088440
  31.7507572  21.4148998  75.7932892  31.3239117  20.8720932  76.4561539
  32.6552658  21.4955673  76.0959244  79.9923477  59.0090256  46.2603226
  79.8691940  59.9424400  46.0876846  80.1201553  58.6202354  45.3950233
  13.7912016  12.1640291  64.8749924  14.0622473  12.9817762  65.2921906
  13.0159054  12.4004230  64.3658142  86.7891693  31.7882328  72.5932999
  87.0826111  32.0546379  71.7220078  85.9661942  32.2594299  72.7233353
  39.9182358  17.8437290   7.0946536  39.0400162  17.6855812   6.7483149
  40.2955360  18.4944897   6.5027199  14.6118088  54.9091721  64.0391693
  13.7147541  55.2405739  63.9979515  15.1593409  55.6828346  63.9054413
  74.3796768  31.3538837  21.3768349  74.0903244  32.2521400  21.2166977
  73.5700684  30.8628597  21.5170517  60.0688820  32.8363571  64.2483292
  60.3162346  33.6668701  63.8417549  60.0144081  32.2192993  63.5185966
  30.0215092  37.4388123   1.0614785  30.9597855  37.2508850   1.0849236
  29.7911816  37.6224098   1.9722332   1.6922513  42.7677078  53.0205078
   1.1230206  42.9970665  52.2859306   1.6887603  41.8106499  53.0364914
  22.6196499  48.7426338  38.4576454  23.2443504  48.1625137  38.0223961
  23.1238804  49.1542511  39.1594658   2.0446396  68.7758255  12.2512951
   1.6392313  69.0918884  13.0587482   2.8909893  68.4256821  12.5293598
  57.8459358  59.3974838  18.4967270  56.9705048  59.1175232  18.7640705
  57.7742081  60.3469315  18.3985577   2.5114799   4.1948299  29.6813545
   1.6175655   4.5003824  29.5271263   2.5649204   3.3631785  29.2104702
  68.5855103  35.9095535  20.6602993  68.5317230  36.7789192  20.2633762
  67.7494965  35.4959488  20.4452763  47.9773827  38.4013443  38.3733788
  47.0753212  38.1351547  38.5513039  48.4883804  37.5982361  38.4740334
  75.4640732  27.3536015  41.0136833  75.9295578  26.9502125  40.2809982
  76.1060410  27.9425926  41.4101639  49.7134743  36.9574661   5.9175653
  49.3463974  36.0890999   6.0831690  49.1090202  37.3578110   5.2925916
  12.5049696  67.9450760  45.2156982  12.0753765  67.1584167  45.5516434
  12.2516623  68.6361694  45.8276291  81.5156403  35.5457420  41.3616257
  80.6427231  35.7683220  41.6852036  81.4972916  34.5943413  41.2580452
  59.2818146  29.3882618  73.8243790  60.0605125  28.8328304  73.8612595
  59.5527420  30.2082710  74.2371902  68.2037506  31.8380604  21.0787106
  67.3520889  31.7400475  21.5045071  68.6498413  32.5145340  21.5882416
  10.4285603  68.0068207  59.7775879  11.0902309  68.1200256  60.4599419
  10.9212332  67.7071533  59.0135765  53.5847969  61.2448082  76.5789337
  53.6203270  60.7555313  75.7570038  54.4048996  61.7379951  76.5997314
  61.7795525  47.5144196  37.3453522  61.7237473  47.1169853  38.2143555
  62.2718277  48.3236694  37.4832497  45.6956329  62.9724464  81.7450256
  45.4908943  62.2970161  82.3916397  46.0374184  62.4885292  80.9932098
  40.7167587  66.6101074  74.5230026  41.3821144  66.1983261  73.9716721
  40.0603676  65.9264755  74.6572876  38.6672401  43.4415436  40.6202660
  38.3119888  42.5755424  40.4200745  38.4908791  43.9600945  39.8352623
  65.8051758  57.8481674   6.6113811  66.6290894  58.3021393   6.7883329
  65.1335068  58.5225105   6.7131181  80.9099655  26.8000507  17.3581543
  81.5684433  26.5300350  17.9982548  80.1684723  27.0945606  17.8870049
  62.3785057  48.1110802  68.9148560  63.2601242  48.3551254  68.6330338
  62.4991493  47.2934647  69.3977432   8.1388559  25.0908394  53.0656776
   7.9185057  25.0901432  52.1341858   8.9295855  25.6270657  53.1243439
  78.1509857  55.3541794  45.1960030  78.8498611  55.1766548  44.5664825
  78.2574997  54.6811409  45.8682404  78.5802231  23.6291103   9.1528893
  78.5654526  23.7059975   8.1988964  78.1413116  24.4208889   9.4638128
  58.2798309  34.3303490  84.9440536  58.6209831  34.6321106  84.1021576
  58.4207802  33.3836365  84.9341507   1.7897395  24.7130547  15.6712570
   1.4647925  24.5451241  14.7867002   1.5626378  25.6274357  15.8402729
  44.1444778  51.2815437  60.7064667  44.0696449  51.4135628  61.6515617
  43.5242081  50.5786552  60.5129585  30.1586266  40.9299126  10.3493214
  29.4559917  40.4146042   9.9530954  30.7655640  40.2778854  10.6996307
  60.1600151  55.9056854  24.2246037  60.4621811  55.1048508  23.7961311
  59.6088638  55.5988235  24.9445343  19.9520035   6.4638462  78.0942612
  19.9603271   7.1389098  77.4156952  19.5349960   5.7100053  77.6770554
  81.8648758   7.3284116  69.9143143  82.3748093   6.5795059  70.2230759
  81.6926422   7.8424969  70.7031631  27.8594818  56.2623215  15.3802271
  27.1415615  56.7921600  15.7267733  27.9290829  55.5262794  15.9881973
  54.0846252  10.1481562  11.6030235  53.2058029  10.4322567  11.3516407
  54.1884766  10.4583921  12.5025787  85.4283829  63.4903107  31.2866898
  85.8663712  63.9567986  31.9985790  84.5284958  63.3769264  31.5925941
  74.0053101  58.8631668  53.3359795  74.1565475  58.3967361  52.5139084
  74.5397034  58.3960457  53.9782104  79.1854019  60.3128014  42.2900734
  79.2085342  59.5377159  42.8512688  79.8692322  60.8831978  42.6411552
  47.8811378  56.4014244  35.9061356  48.4252930  55.6431465  35.6936646
  47.9391136  56.9621391  35.1325226  26.5168648   3.2225363  71.8277130
  26.7033615   2.9586437  70.9267120  25.6049595   3.5128541  71.8083801
  67.1897812  70.2950974   5.8023000  66.3573074  70.7495880   5.9313717
  67.8451462  70.9927368   5.7964454  63.7689514  17.3640213  85.1382217
  63.3716202  17.9453259  84.4897995  63.7355690  16.4966850  84.7346802
  62.5284119  25.8502007  25.3725224  62.1442986  26.6939964  25.6106377
  63.3629036  26.0745640  24.9608021  83.8312607  52.1837769  21.3372593
  84.2074432  52.2947769  22.2104111  84.5110855  52.4990654  20.7417202
  73.6676178  21.9632092  72.5847855  74.5108795  22.2970657  72.8908615
  73.8690186  21.5266266  71.7570953   4.9259791  65.0685654  64.3848038
   5.6817346  64.5740433  64.0677643   4.4938030  64.4768295  65.0006866
  21.4943943  39.7141914   8.6655836  20.5850868  39.5158539   8.4418507
  22.0113640  39.1693077   8.0722237  28.6538582   3.0660899  10.1391954
  29.3830032   2.6170323   9.7114954  27.9305935   2.9956346   9.5161753
  56.4870834  47.1711998  41.3845444  56.9631500  48.0016098  41.3875771
  56.3628540  46.9697227  40.4570694  81.4798584  51.2074242  57.4064407
  81.0879440  50.3354568  57.3584557  82.3818665  51.0495872  57.6851959
  52.1891403   0.3276066   9.0577660  51.7544670   0.2761020   8.2065086
  51.5258446   0.6921974   9.6437216  20.8458290  16.2478485   7.0386472
  21.7942295  16.1695709   7.1418061  20.6938477  17.1861038   6.9254589
  57.7889938  53.7391891  71.7467422  57.6689796  54.6370087  72.0561752
  58.6858978  53.5174751  71.9970093  12.7086306   3.4780557  59.9836121
  12.8751793   3.1324580  59.1066551  12.7907505   4.4267945  59.8867493
  30.7500629  13.6801233  76.7324677  30.1592426  14.1706486  76.1610184
  31.2176762  13.0888138  76.1426163   2.0812187   9.5524769  26.2899094
   2.7402103  10.2411995  26.3772221   2.1147895   9.0818939  27.1227703
  54.7665901  67.1025696  76.1567459  55.1581917  67.6055145  75.4426651
  53.8857498  67.4653473  76.2502670  48.1630516  53.3991776  76.6194458
  47.6010094  52.6248245  76.6462173  47.8248215  53.9154472  75.8878098
  76.6309357  57.5612144  16.4769268  75.9802246  58.2573318  16.3862400
  76.1495514  56.7567253  16.2838135  57.1495667  17.4860897  51.0803070
  57.0336838  17.9994450  50.2807617  57.9870377  17.7829838  51.4362907
  43.6291885  55.5744209  57.7522049  43.0985641  55.5570526  58.5486794
  44.1489830  54.7716942  57.7931519  23.9671078   4.4815688  71.8403015
  23.3529015   4.1358624  72.4879684  24.1213150   5.3854375  72.1150284
  74.1430740  18.9503727   4.7336802  75.0457306  18.7396011   4.9724503
  74.1721420  19.0904179   3.7872267  49.9680290  34.5664406  53.7061234
  50.2459221  34.8311043  52.8292198  49.1607246  34.0725708  53.5626717
  12.5641804  68.7450027  21.8020401  12.0345745  69.4830170  22.1038380
  12.3724318  68.0426407  22.4234505  69.4248505  43.4146156  14.4645967
  68.8362579  42.6843681  14.6557388  70.2669067  43.1460381  14.8320742
   2.9294415  26.9108715   4.5659862   2.2078211  26.2966595   4.7010407
   3.2038209  27.1560688   5.4496298  28.7389908  67.0291748  69.8143387
  28.1093025  66.7867126  69.1354141  29.3625698  66.3031998  69.8329315
   8.5844975  65.0628128   7.3258252   8.9177361  65.5269699   6.5578804
   9.3505630  64.6171265   7.6874061  48.6843910  35.2350426  73.6043320
  48.5055923  36.1182022  73.9272766  48.0175018  34.6884575  74.0199509
  65.6356583  58.0314369  89.0261841  66.2339630  58.6743469  88.6454849
  64.8880081  58.5483322  89.3263092  39.2820930  14.8355885   4.2796564
  39.3161621  15.4720821   3.5655501  40.1153679  14.9448605   4.7378502
  24.5792408   5.3922462  52.0478096  23.7578526   5.2156882  51.5891380
  24.8390980   6.2630372  51.7470970  62.7963104  11.4492121  84.0177994
  62.2838211  11.9297781  83.3676910  62.5162354  11.8109179  84.8586044
  38.9789658  58.1366920   4.9705524  39.4401970  57.5922699   5.6085958
  38.6111603  57.5127563   4.3447280  84.0086823   1.1136936  13.4296446
  84.4162140   0.2480336  13.4575500  84.3501587   1.5641941  14.2020922
  50.5089684  19.4458466  24.8390751  50.5272408  18.6242123  25.3298054
  50.5158195  19.1764545  23.9205914  31.6802006  34.6259880   8.8061857
  31.8175526  35.5722046   8.7610884  32.2391319  34.3369408   9.5274878
  72.3491135  21.6721458   9.8439817  72.1879730  21.6751003  10.7875166
  72.7622757  20.8255634   9.6742115  44.8525887  69.2556000  53.1271286
  44.9948349  68.3854446  52.7545280  43.9186859  69.4214706  52.9985161
  86.7341232  16.1408005  52.1949158  85.9989471  16.3284378  52.7784729
  87.4024506  16.7814903  52.4380112  29.4732685  52.4400063  22.6856441
  29.7233505  53.0519829  21.9934196  29.6264267  52.9220276  23.4983120
  13.3197346   4.0411515  49.4399185  14.0599442   4.0781713  48.8341560
  13.6936035   4.2749052  50.2895164  10.3060074  23.6392326  63.4738655
  10.1466265  24.4558659  63.0006409  10.7795153  23.9072590  64.2613831
  71.0131760  69.5304718  59.0705872  70.6302948  70.3779068  59.2975311
  70.5030136  69.2309723  58.3180809  26.7169037   7.1241479  63.5530891
  27.3559341   6.4114976  63.5540848  26.0576172   6.8555632  64.1929626
  64.7096939  48.9992447  74.1485291  64.6410599  49.2361794  73.2236633
  65.6511459  48.9685707  74.3186951  30.5221100   7.8503442  72.9995728
  30.6179047   7.2487741  72.2612228  29.9794521   7.3738885  73.6278610
   9.6312132  35.7799416   0.4639252   8.8743372  36.2864609   0.1692910
   9.3125315  34.8785858   0.5111375  14.5340672   5.6210208  56.5694809
  14.5637302   5.7059832  57.5224380  15.4520521   5.6378307  56.2988281
  45.6817131  19.1074257   0.3311311  46.6199074  18.9895382   0.1823894
  45.4646378  18.4682884   1.0098162  54.2258606  59.3800087  38.1800728
  54.5997620  60.0276031  38.7776108  53.9994240  58.6386185  38.7415886
  42.9737587  37.7611580  28.0704117  42.6332893  37.1259766  27.4404449
  42.4398499  38.5437851  27.9337826   1.9466670  59.1212730  84.7112274
   1.7335615  59.9013062  85.2234421   2.4901547  58.5923424  85.2952499
  29.9178238  44.6845207  50.6330261  30.4190769  43.9560661  50.9995308
  29.3508053  44.2790375  49.9770508  41.9047432  63.9947205  21.5360718
  42.0295830  64.9327621  21.6800270  41.9596367  63.8887596  20.5863380
  41.0854836  57.5014343  64.8858185  41.1615067  58.4337540  64.6827545
  40.1943779  57.2709618  64.6230545  63.7418594   7.5340815  58.8686142
  64.5697784   7.2421975  58.4870529  63.5957108   6.9412889  59.6058197
  68.4076385  59.1538620  66.0046768  69.3205948  59.0906944  65.7240448
  67.9053116  58.8148994  65.2637253   5.8592777  66.2735062  49.7469215
   6.2162466  67.1088257  49.4451828   5.9875093  66.2868652  50.6954002
  52.4923286  61.8465843  20.1329174  52.6158333  61.5139427  19.2439137
  52.5081291  62.7988052  20.0367012  59.9238586   2.7705452  66.1133118
  59.8991318   2.4383523  67.0106812  59.7579193   3.7091899  66.2007294
   1.8202925  65.8397141  12.5482044   2.4378250  65.3467484  13.0884552
   1.0901328  66.0341110  13.1358347  72.4824600  57.1214523  78.8352509
  72.9095459  56.9232635  79.6686478  72.1419601  56.2789993  78.5343094
  34.7265701  58.3881912  76.6910400  34.6941299  58.3288345  77.6458511
  34.4475594  59.2830429  76.4970779  59.7205124  26.7882404  54.1160851
  59.3452187  27.0007057  54.9706306  60.0036850  27.6314678  53.7625122
  69.1260529   2.4402280   3.0114067  68.3918304   1.9993283   2.5839016
  69.9043579   2.0383170   2.6254821  78.2749710  34.5931702   0.0434213
  78.2028198  33.8299713   0.6166201  77.3767471  34.7671967  -0.2378994
  22.3300629  63.2644196  34.8527565  22.0122566  62.8828354  34.0344505
  21.5631561  63.2758713  35.4254303  20.7389393  51.9719315  26.7452221
  21.6386337  52.0035820  26.4199848  20.7694416  52.4393272  27.5799923
  74.5706635  57.1109543  65.2559204  73.9736786  56.8226929  65.9463882
  74.5918579  56.3807716  64.6373596  49.9930344  59.5938110  19.8934841
  50.1915970  59.1409378  20.7130623  49.8051300  60.4946251  20.1570396
  81.7451706  42.4979286  73.6995926  81.4041595  41.7897377  74.2458572
  81.9921417  42.0702553  72.8796310  82.8799057  11.7802944  65.3158798
  82.4911041  11.4944515  66.1425323  82.8199539  11.0140209  64.7453842
  15.3033867  55.9224701  16.8100471  14.6306324  56.5998306  16.8794441
  15.9394836  56.1461716  17.4894352  46.9901237  10.3035803  85.9025345
  46.5962486  10.2903795  85.0302277  47.8047829  10.7933941  85.7901001
  11.7649956  31.5405636  61.8469925  11.8480272  30.7833157  62.4265709
  12.6157188  31.6043625  61.4129066  67.6612396  35.0459976  14.4846163
  68.1633453  35.0100784  13.6704750  68.3130798  34.9184456  15.1738596
  60.7122498  67.3584518  69.9117432  60.7114677  68.3147125  69.8693314
  60.8240318  67.1600266  70.8414536  54.1905823  44.0890427  47.7002411
  54.5551414  44.9683075  47.5991516  54.6615868  43.5590858  47.0571747
  11.4839935  60.3704185  81.5366898  11.6880827  61.1462059  82.0589294
  12.2932682  59.8592529  81.5407715   1.8749555  32.3925552  45.6329536
   2.2847641  32.6350098  44.8025894   2.6053956  32.3137474  46.2465324
  13.4986258  16.4987049  79.7589874  12.6334505  16.2780151  79.4140244
  14.0897655  16.3828621  79.0151062   2.2013040  27.1019211  34.1647758
   2.7496321  27.8445587  33.9116783   1.5895174  26.9966106  33.4361763
  59.4965820  28.3932667  20.8512669  58.6432190  28.4133720  20.4181423
  59.3339577  27.9428902  21.6800900   5.6793647  16.4680843   4.0440021
   6.0116100  15.7374096   4.5654998   5.3810282  17.1077003   4.6906228
   2.7083449  45.7493858  28.5787277   2.9019952  45.7406998  27.6413612
   2.0071130  46.3941460  28.6724644  22.6571274   8.4304619  88.7207565
  22.8717079   7.6105208  88.2759171  22.0909748   8.1681061  89.4466171
  61.5480728  56.8462639  20.9385204  60.6669998  56.8742294  20.5654736
  61.6242256  55.9662247  21.3072491  17.3453674  42.2995491  19.9987736
  17.4184990  41.4180489  19.6329231  18.2059212  42.6920509  19.8517361
   9.4056721  25.0763359   3.9162903   9.3182211  24.1237679   3.8816969
  10.2910242  25.2473946   3.5951626  21.7724781  28.1102886   6.0221224
  21.1190205  28.2404175   6.7093582  22.4928932  27.6564541   6.4594631
  21.4748287   2.5591838   0.7779382  21.4303513   1.8158135   0.1765615
  22.4115200   2.7234690   0.8868106  62.7839012   8.1414585  43.2344856
  63.5146484   8.0586920  42.6217957  63.1994057   8.2824430  44.0851974
  10.1466045  13.4207592  59.4511261  10.2793264  14.3202124  59.1517944
   9.6647062  13.5105867  60.2732811  35.8442574  16.8694630  68.4120255
  35.1930389  17.3229980  68.9472427  35.7969093  15.9574804  68.6988754
   6.3287439  61.1381493  86.3878403   6.6183724  62.0379601  86.5384674
   6.8095183  60.6204987  87.0336990   3.6135268  20.6275806  65.6472473
   4.1212888  20.6529942  64.8362274   3.9940648  21.3182659  66.1898193
   1.4017664  19.6303940  11.7739258   1.9219949  19.8906593  11.0137568
   0.5031331  19.8628101  11.5401030  72.8680344  43.0253563   5.0916133
  72.5096512  43.2839279   4.2425323  72.3614960  42.2520561   5.3399262
  86.4318542   7.3426557  57.1388130  85.7149734   7.5984325  57.7192383
  86.4816589   8.0485640  56.4942627  32.4840698  50.5591736  53.0647125
  33.1430283  50.6526299  53.7526588  32.0531235  49.7264671  53.2573700
  55.0551071  11.2591906  86.7116852  55.7878609  10.6817961  86.9259796
  54.5897865  10.8050146  86.0092392  65.3684311  70.8223190  51.2008705
  65.6582260  70.4931641  52.0516968  64.6321182  71.3987961  51.4052200
  58.8260765  67.2125397  27.1812019  58.3034935  66.5649261  27.6542091
  59.1492691  67.8028793  27.8618431  69.3146133   0.7714495  25.0552845
  69.1391373   1.6887910  25.2648735  70.2056427   0.6199561  25.3704700
  77.9179001  30.5617352  45.7246780  77.6228027  31.0066643  46.5191536
  78.0306549  29.6487694  45.9892769  67.0735321  69.1047440   3.4452465
  67.2502975  69.8225403   4.0533242  66.9412079  69.5339966   2.5999856
  62.3582802   4.5111346  21.0883274  63.1364517   3.9971287  20.8727341
  61.7188301   4.2702293  20.4180279  67.8846970  48.9692154  13.0803452
  68.3893356  49.2071075  13.8581524  68.2633972  48.1380157  12.7941198
   5.6746635  12.2508850  87.2217865   6.3677297  12.2673798  86.5617752
   6.1331658  12.3697624  88.0535812  29.5563869   9.8591442  64.0116196
  29.0383549   9.4661484  63.3091774  30.1130333  10.4998417  63.5690384
  11.9758577  35.5812683  19.0134525  11.1433249  35.3491020  18.6020889
  11.8124647  36.4315491  19.4215679  84.4256897  23.0514698  73.9408188
  84.8718338  22.4629822  74.5498123  84.1418762  22.4841175  73.2240295
  23.5345325  14.8955803  79.7885818  23.4596920  14.3920870  80.5992126
  24.4489727  14.7914858  79.5255356  65.4260559   7.6518855  21.6306858
  66.0448532   8.2022543  22.1107063  64.5646133   7.9871025  21.8792267
  71.0814819  69.4200363  17.4623280  71.2271805  70.0507507  18.1674538
  71.2972183  69.9003754  16.6629715  67.0582886  23.5039539  83.3584366
  66.2113342  23.2811871  82.9720688  66.8396683  23.9068012  84.1987686
  79.0054932  26.2866154  66.4916687  79.1005554  27.1864586  66.8038864
  79.7453003  25.8191357  66.8794708  15.4661913  57.8170776  77.2513733
  14.9548092  57.0092621  77.2977295  16.1929398  57.6756363  77.8580551
  65.5845642  42.7431488  62.9146843  64.8377914  43.3112640  62.7254601
  65.2973022  42.2085495  63.6548996  49.9999695  53.6804657  17.8623562
  50.6572113  53.6867828  17.1664925  49.8268433  52.7523232  18.0198727
  79.0668716  38.0532112  79.0125275  79.0728455  37.0991745  78.9349823
  78.7761383  38.3614616  78.1542206  74.8694229  32.3978348  44.8261108
  74.3801804  32.0403633  45.5671158  75.7849731  32.2050591  45.0282097
  73.1051559  41.1379585   8.2537022  73.0233536  42.0430603   8.5542536
  73.6375122  41.1962204   7.4603338  61.3962059  70.0099945  53.5170631
  61.5041580  69.5290985  52.6965027  62.2807693  70.2957611  53.7453537
   6.4572601  18.2612286  82.0875015   7.3969522  18.4058800  81.9766617
   6.3473654  17.3153839  81.9898605  10.8003378  38.0160789  77.6727676
  10.8939095  37.4634666  76.8968201  11.5981846  38.5447006  77.6879654
  52.5523529  61.9658546  86.9490204  52.4545288  62.0237846  87.8994446
  53.4448242  61.6451149  86.8192062  29.9976292  11.6458139  10.4654856
  30.6884632  11.4777927  11.1063843  29.9070892  12.5986662  10.4551678
  55.0584412  54.3382683   6.2269964  54.7809372  53.8558655   5.4482074
  55.0995979  55.2509346   5.9413819   3.7249944  49.1259995  74.9867706
   3.9805837  49.2351418  74.0708008   4.2420015  48.3807144  75.2925262
  41.5723763  43.1898804  17.5142460  42.0724449  43.9932442  17.6583710
  41.3768539  43.1943092  16.5772400  48.5328369  14.1800117  10.9851551
  48.9181137  13.4188728  11.4192781  47.9220085  14.5390911  11.6287222
  74.2451630  44.7492485  81.2859573  73.5614243  44.3807793  80.7265320
  74.1545868  44.2801857  82.1154251  35.8922157  67.2069702  18.6640720
  35.8414078  67.5357590  17.7665501  36.1903801  66.3021469  18.5711670
   6.5162868  14.5778933  46.9214439   6.8826604  13.7137508  46.7336655
   5.6641717  14.5766745  46.4854050  46.6154060  64.6402740  77.4053802
  45.9262810  63.9774399  77.4499969  47.4267044  64.1377106  77.3315125
  84.1096725  25.7611198  47.1623230  84.5832062  26.5922356  47.1975555
  83.7827988  25.7095890  46.2641411  44.6493912  42.8624878  49.2905617
  44.4013977  41.9535484  49.1215668  44.6925392  42.9255486  50.2447052
   9.3740978  60.6055603  65.2921829   9.4302540  61.5611038  65.2956314
   9.6770144  60.3446884  66.1619034  63.0390587  44.4542274  17.5487766
  62.7676201  45.3534889  17.7328548  63.4325943  44.4964752  16.6772385
  68.7160568   9.7586613  76.1182327  67.9601593   9.3658695  76.5547714
  68.5516052  10.7008696  76.1560898  50.7443657  71.6516190  39.8642502
  50.9194717  70.7229843  40.0166092  51.4654045  71.9428940  39.3061333
  75.1428146  23.0576668  88.5747986  75.9616699  23.0038300  89.0675659
  75.2639618  23.8056812  87.9899673  73.9811783  49.5998192  43.4381676
  73.3991089  49.8889542  42.7354393  74.8164444  49.4298744  43.0026398
  68.3251953  50.6426010  35.4502831  67.6978455  50.6233940  36.1729774
  68.6185303  51.5529366  35.4118843   1.4470139  39.9749489   3.0216734
   2.2879713  39.9323463   3.4768739   1.5340316  40.7199402   2.4269907
  84.9639969   7.1952376   8.9563665  84.8538055   7.7524662   9.7268114
  85.7421112   6.6719456   9.1485605  12.3657341  19.6129322  68.3959961
  12.4288120  19.9829063  69.2765427  12.8730125  18.8023911  68.4398575
  79.9077377  57.4908676  28.3516560  80.6314621  56.9025993  28.5670357
  79.1334763  56.9280586  28.3517132  51.2826653  71.7247467  73.2291031
  51.8910370  70.9928360  73.1270447  50.8911247  71.5921478  74.0924377
  44.4879646  43.4419250  41.5067711  43.7234764  43.9993858  41.6517906
  44.6778946  43.5340118  40.5731354  53.1228867  68.8574066  88.8129349
  52.9671593  68.0950851  88.2554016  54.0657272  69.0106506  88.7512589
  67.8706589  33.3412018  45.7005844  67.5294495  33.7034416  44.8829079
  68.5985718  33.9178429  45.9326706  21.9694481  61.1454544  71.7087326
  21.4684715  61.9356728  71.9107590  21.7360153  60.9387054  70.8037491
  50.6014137  51.5353813  26.6522751  50.0793495  51.8487434  27.3908443
  50.3009262  50.6377258  26.5103207  15.4814777  56.4235268  36.7546501
  15.4141865  55.7780418  36.0510521  14.5787745  56.5585136  37.0429840
  28.1195183  15.7704830   5.9878011  28.0953140  15.2927961   5.1586685
  27.9696922  16.6835442   5.7426405  42.1150703   0.8108742  32.7809105
  41.3050575   0.3036092  32.7280807  42.5885544   0.4297430  33.5203590
  67.8846436  20.2626324  86.0703354  67.1665344  20.7770977  86.4389648
  68.6233215  20.8705769  86.0389328  73.6653824  21.1891804  50.6990662
  73.4969177  22.0834465  50.9959488  73.2169495  21.1283569  49.8555946
   2.4671352   1.7460911  47.3202019   3.0118606   1.1885669  47.8757858
   3.0814850   2.3662992  46.9275818  60.9771843   4.9563041  83.6395493
  60.6114426   5.4210472  84.3921890  60.7956963   5.5281100  82.8936691
  41.3055038  28.5286560  16.9892273  40.5943375  28.8779182  17.5263386
  41.5441780  29.2512131  16.4085541  30.1738815  57.3963509  83.5613785
  30.5825233  57.1041985  82.7465820  30.4127731  58.3206291  83.6311493
  33.7973900  63.8193474   2.0924828  33.0315247  64.1156769   1.6006832
  33.6673965  62.8763466   2.1928842  54.3278351  57.5111160   0.9396292
  54.8267212  57.4476776   0.1251849  54.2069397  56.6032372   1.2177857
  35.1626663  46.1590767  88.3481598  34.5002899  45.8738632  88.9775620
  35.8720474  45.5233612  88.4423752  48.3190880  66.0665207  56.3405380
  48.9482346  65.4157181  56.6517601  47.5233040  65.5648727  56.1635857
  17.9829216  66.3550720  13.0376015  18.8062973  65.9591904  13.3231916
  18.0599670  66.4071732  12.0849304  27.6290054  21.3382645   1.2135322
  27.9389820  22.2059155   0.9540539  28.2335091  20.7306309   0.7874025
  82.0621414  22.8441067  55.2163086  82.8399658  22.2961445  55.1116486
  81.4525375  22.3016109  55.7166214  66.4864197  53.0455551  59.2039490
  66.6061554  53.0066261  58.2550659  65.7924805  53.6924133  59.3314590
  40.2641182  40.8351631  14.2508678  39.7393379  40.1913643  14.7266388
  41.0597839  40.3623238  14.0067902  41.5794029  39.0983810  17.2502499
  40.7066727  38.9421654  16.8894501  41.4171181  39.4759598  18.1147327
  31.6791725  36.7048531  64.8252258  31.4527855  36.3439102  65.6823730
  31.0079994  37.3668289  64.6592484  68.2026367  64.8054810  52.0510139
  67.9860916  65.6991730  51.7851982  68.7780838  64.4821930  51.3577843
  37.9431267   5.5333648  80.0733566  38.4375305   6.2746992  79.7237549
  38.5654793   5.0755429  80.6384354  53.4522285  60.5724144  14.0446739
  52.6338387  60.2494392  14.4217052  53.1861687  61.2997322  13.4821310
  85.2904205  48.5534248  35.0692902  84.9768448  47.9889717  35.7758980
  86.1917267  48.2690239  34.9176331  85.0931931  57.5802231  87.2987976
  85.1531296  58.4265976  86.8557510  84.5430984  57.0476151  86.7243729
  73.9798737  60.7000313  85.4242935  73.7187958  61.4226799  84.8534622
  74.9325638  60.6606407  85.3403320  64.1121140  68.6786652  17.5595322
  64.2885361  67.8357773  17.9774399  64.3916321  68.5591507  16.6518879
  81.1066360  61.6286507  13.8369007  80.4446564  61.6142921  13.1456594
  81.2135468  62.5563889  14.0469093  78.4209747  11.4783964  76.9806366
  79.3303604  11.1952734  76.8853149  78.0910187  10.9772234  77.7264175
  38.4718590  46.9532166  48.9884872  38.0468369  46.2712288  49.5085640
  39.1586151  46.4932556  48.5057487  15.3458977  64.7403870  27.9054031
  15.2661123  65.4895096  27.3149071  16.0712833  64.2290039  27.5468864
   5.1851664   8.9277191  80.8621521   4.9252524   9.8478470  80.9073334
   5.3247838   8.7637911  79.9294815  42.3071175  63.8214493  18.6224518
  42.6772003  62.9389267  18.6431217  42.8941994  64.3139801  18.0488853
  15.4841728  16.3529682  21.4830418  15.9591951  15.5241413  21.4227600
  16.0864334  16.9416599  21.9379654   9.3475237  50.6067657  12.7148447
   9.8804941  49.8525429  12.9664822   9.3608599  50.6008415  11.7577562
  21.4303436  67.3388672  52.7745934  22.0805302  67.9076920  52.3623734
  21.6902790  67.3058853  53.6952362  78.2974396  47.9308701  24.7864285
  78.4729843  47.2934914  25.4786472  77.3551483  47.8635559  24.6322098
  24.3413353  12.0043507  54.9731827  24.0209408  12.0090446  54.0712090
  24.9308529  12.7568998  55.0218697  28.9930954  63.4555016  80.9989548
  29.9148006  63.6500931  81.1687317  28.8278084  63.8191910  80.1290970
  84.8275299  62.7651062  58.0231552  85.7045441  62.9535065  58.3571854
  84.5657272  61.9636002  58.4762344  38.2734337  31.8810120   7.2328663
  37.6384430  31.5503082   6.5975289  38.8497734  32.4493065   6.7218819
  42.4066887  33.8653069  79.1544189  42.1419411  33.0379410  78.7524185
  43.3358002  33.7486687  79.3528824  19.5568371  57.1309586  61.4953613
  18.7836494  56.7086143  61.8695793  19.2114410  57.6879959  60.7977638
   6.5261126  18.4066353  48.8094940   6.8963971  18.9795551  49.4809723
   6.2454233  17.6267509  49.2882690  55.0791588  36.0454330  61.4354095
  56.0349846  36.0172272  61.4782715  54.8860321  36.8148193  60.8997078
  85.0865250  64.4333267  83.4161301  85.3680115  64.3848724  82.5025406
  85.3422623  65.3111801  83.6993179  29.2917557  45.7032623  64.0038605
  28.5458775  46.1501732  63.6036568  29.9698753  46.3761215  64.0642624
   3.5279825  39.8076439  14.1350470   2.7021055  40.2466774  14.3385363
   3.8224843  39.4510155  14.9730911  78.5837631   2.4868157  79.7545242
  78.1392822   2.1620739  80.5376053  78.2835999   3.3914647  79.6665421
   6.4975138  36.4105072  32.2701836   5.7137532  36.6729202  31.7873898
   6.2231770  36.4046364  33.1872101  10.9282875  58.6746521  63.1277771
  10.0147600  58.7717857  62.8589592  11.1632471  57.7859077  62.8610306
  17.3877316  69.7387619  37.0939636  17.1334515  69.2871628  37.8987160
  16.5860558  69.7671738  36.5717163  62.4734116  11.2460451  55.5997925
  63.1768990  10.6425161  55.3608475  62.1604881  11.5920630  54.7639809
  38.0944481  69.5773315  85.1145477  39.0374146  69.4136353  85.1304474
  37.7001648  68.7242508  85.2962799  38.7200012  38.8865662  55.4590149
  39.3557968  39.5719986  55.6643906  37.8760109  39.2580223  55.7157898
  45.2732582   9.3103914  20.2251472  46.2252693   9.3549547  20.1361675
  45.0786285   9.8515329  20.9903374  75.3176880  54.1381416  43.3079338
  75.6242599  53.6616974  42.5364075  74.3824768  54.2698250  43.1521530
  12.2729492  15.8145533   6.9932637  12.2703800  16.0570164   6.0672846
  12.4878874  14.8818007   6.9960179  39.1836166  70.9703751  58.9567184
  39.6858902  71.3482285  58.2347908  39.7163239  70.2352676  59.2601585
  70.1479340  62.3742104  55.0018120  70.8037415  62.3282433  54.3060875
  69.7974319  63.2629356  54.9422264  86.9869766   1.5467014  32.3767395
  86.9172745   0.6415989  32.0731544  86.1683578   1.9567099  32.0974579
  19.2402763  50.4489670  35.2567596  19.2651958  50.4506454  34.2998886
  19.9539719  49.8652344  35.5139160  28.0428410  39.1968956  26.9834824
  27.3211060  39.3738861  26.3801537  28.1186047  38.2427483  26.9929390
  85.0536880  29.5473347  78.8348846  85.7069168  29.9902630  79.3764877
  85.2434006  29.8399467  77.9434662  85.8147888  21.4353199  42.2028542
  86.7172623  21.7265530  42.3330650  85.3878326  22.1689606  41.7604599
  52.4181442  58.3549767  26.7898788  52.3671455  59.2983932  26.6362762
  52.6735725  57.9879761  25.9435349  41.3744621  30.6699753  60.7342491
  41.5012665  31.5653648  61.0479889  40.6618767  30.7375259  60.0987282
  55.2616463  36.9561844  13.0715294  54.6889229  36.3314285  12.6266708
  56.1396141  36.7437973  12.7548389  71.1289291   9.6934996  37.8091850
  71.2193527   8.8161974  38.1812019  70.1851349   9.8527565  37.7978821
  46.1981735   2.0677040  68.6208572  45.6204147   2.7089217  69.0346985
  45.6040230   1.4266301  68.2306824  25.3441029  30.5264111  18.4149303
  25.4831047  31.4458542  18.6419468  24.5228195  30.2942238  18.8483067
   6.1833968  66.1010437  36.0130310   6.3491864  66.9092484  35.5276985
   6.5128055  66.2788315  36.8940048  70.6508560  37.5889168  51.4512100
  71.4750061  37.1595726  51.6807365  70.9144974  38.4326477  51.0839958
  23.6552353  57.1811790   2.4540145  23.6714573  58.1382408   2.4540026
  22.7742329  56.9565697   2.7533760  14.6588736  48.6781654  87.2769775
  15.5295610  48.5990982  87.6667023  14.2400618  47.8357430  87.4534760
   9.4637756  69.1824417  84.1780396   8.9434099  69.9320221  84.4671555
   9.0937738  68.9479980  83.3269424  12.4388542  64.8245621  39.2319756
  13.1853619  65.1762085  39.7170563  12.7872772  64.6344910  38.3609390
  79.4924545  38.6496811  11.8768406  80.2857513  39.0896606  12.1823320
  78.8144608  39.3242683  11.9154177  75.0318604   3.5890496  88.7426453
  75.5906067   4.3562675  88.8667908  75.6249619   2.8433993  88.8346329
  75.6140518  47.8397598  19.6325855  75.3714600  47.0200882  19.2018642
  75.0476151  47.8822517  20.4030228  29.9590740   5.1530671   4.3766222
  30.5946560   4.8097591   3.7486033  30.4049492   5.8933263   4.7882566
  83.7966766  66.5228577   4.3581891  83.3550797  66.1272736   3.6066990
  83.7873077  67.4621811   4.1743073  27.3798008  12.5374451   6.4990292
  27.3552265  12.1805553   5.6111903  28.3046074  12.5066967   6.7440147
  52.4708099  69.3652191  31.3045273  52.8423309  70.1000824  31.7925644
  52.2320099  69.7376785  30.4557171  35.4697685  53.2973824  18.6539783
  35.2274857  52.3928947  18.8525620  36.3571396  53.3893242  19.0009003
  77.7119217  55.7091141  40.7132072  78.5195465  55.3401184  41.0707054
  77.5025787  55.1484642  39.9661560  40.4336319  66.7984467  61.8741837
  41.1260796  66.6814804  62.5246201  40.6246910  66.1454544  61.2008896
  78.3480377  54.1326294  78.9723434  78.8332214  53.5600815  79.5664978
  78.9918365  54.7798157  78.6844101  25.0738659  66.2933121  32.8821945
  25.2395649  65.5016785  33.3941422  25.5226536  66.9882584  33.3637238
  15.6070166  43.2580948  78.0284195  16.1692123  43.7859650  78.5954437
  16.1870461  42.5817223  77.6786804  59.2387505  64.0112534  35.3488770
  59.0261650  63.8729553  36.2718697  60.1905022  64.1122742  35.3348351
  71.6368942  26.9833851  11.8192596  71.4887619  27.8297386  12.2411289
  70.8919296  26.4469700  12.0903988   7.4733019  33.5040588   0.7486771
   7.6819077  32.5702782   0.7764442   7.0131636  33.6220703  -0.0823327
  14.5271835  51.0456848  21.2185478  13.8141375  50.5616302  21.6350670
  14.7865725  50.4990082  20.4768639   8.9027843  22.1852055  76.4986420
   9.5347319  21.4797707  76.6373367   8.4605398  21.9534626  75.6819763
  12.5387335  67.2393494  78.9817047  12.4723158  66.3887177  79.4155807
  13.3417530  67.6248779  79.3320770  14.3569641  42.7555313  64.8635559
  14.2762756  43.0407486  63.9534035  15.2977877  42.7764969  65.0386047
  51.6786919  43.0818062  41.5261765  50.9126015  42.5178223  41.4200783
  52.4260025  42.4934311  41.4186249  59.0479050  28.6858215  46.6293297
  58.1367226  28.8145065  46.8928146  59.2762909  27.8214169  46.9711990
  78.6290512  24.9888458  31.3206654  78.3332443  24.8809013  30.4167404
  79.3961792  24.4207096  31.3910980  36.2349091  23.1614494  85.2823410
  37.1896591  23.1220703  85.2263412  35.9451790  22.2770138  85.0586014
  56.1515083  53.2871819  66.8180237  57.1044006  53.3433952  66.7468491
  55.8774910  54.1697235  67.0675583   2.4995508  14.8081589  55.3211136
   3.0193014  14.8653183  56.1228752   1.6896876  15.2750778  55.5268822
  20.1620140  54.3803520  64.5417786  21.0646210  54.2007294  64.8049622
  20.1805668  54.3484650  63.5852852  44.6276588  56.5841522  11.8630400
  44.8277969  57.2187958  11.1749973  44.6348305  55.7372017  11.4171114
   1.0835871   7.2436728  24.5665836   1.6070498   7.2264876  25.3677845
   0.6849844   8.1139011  24.5595284   8.3071384  21.0677528  10.8237572
   7.8265777  20.8649292  10.0211639   8.3556347  22.0236053  10.8388157
  26.5176353  56.7902908  72.5195312  26.0306034  56.7372055  73.3418503
  26.9021606  57.6668434  72.5250626   2.2865160  17.4459934  79.3797150
   2.8925610  17.8572826  78.7634506   2.3038116  18.0155334  80.1488419
  20.4665756  62.6149712   1.1008019  19.9182224  62.1920319   1.7616072
  21.3526497  62.5694580   1.4600137  73.7973785  56.7759132  83.8430786
  74.0213318  57.5140457  83.2762985  73.2543716  56.2092819  83.2950821
  42.5331612  19.7524662  76.9205017  42.8539276  20.2503948  77.6724396
  43.3194237  19.5528202  76.4124069  11.8676081  67.3561172  37.3744888
  11.4353418  66.7037354  36.8233376  12.4155951  67.8557587  36.7692566
  10.6904650  32.6466026  87.3397751   9.8067760  32.5809593  86.9778137
  10.5581970  32.7008286  88.2862396  47.3334198  52.7268829  19.0970993
  47.9197731  52.5850906  19.8402805  47.4634018  51.9596634  18.5396843
  10.9105673  39.1148491  35.3832550  11.5472097  38.5244217  35.7861366
  10.7199593  38.7177353  34.5334320  55.1564522  67.4307938  85.5418167
  54.9237938  67.9751740  84.7896576  55.9911041  67.0302811  85.2985764
  60.2947731  64.7222443  71.7164764  60.9826393  64.2253036  71.2736206
  60.7368813  65.1338196  72.4590225  36.4087181  45.9194527   3.1105638
  36.9905319  45.9846840   2.3532875  35.5970573  45.5543213   2.7582569
  42.3294601  47.0581551  43.0631981  41.4862099  46.6114960  42.9880219
  42.5114021  47.0697861  44.0028763  26.7499638  15.4870148  67.7460327
  26.6010170  15.9022141  66.8965302  27.4931126  14.9017725  67.5995712
  48.1147499  69.4245529  17.6628990  49.0680199  69.5106049  17.6730728
  47.7927132  70.3049850  17.8561859  84.9089661  39.3005371  31.0546112
  85.3531952  39.4081421  30.2135906  85.4445648  38.6644745  31.5287323
   1.9578738  62.7486916   6.0144567   2.7381136  63.2833633   6.1613717
   1.6135595  62.5812950   6.8917584  74.9700699  46.7653885  41.2762184
  74.8046875  46.0298309  40.6864433  74.7975693  47.5423088  40.7443581
  28.1492023  33.7635803  78.9190903  28.1028233  33.7939339  77.9634933
  28.0733910  34.6779938  79.1917267  61.6176834  62.0125580  50.6742020
  60.6762543  61.8951035  50.8012848  61.8633881  61.3251610  50.0550499
  79.3626404  38.7298317  26.4123554  78.6329956  38.8192368  27.0254250
  78.9581833  38.7962532  25.5473499  47.9469795  52.2282448  21.7830353
  47.3452606  51.4988251  21.9317493  47.3767967  52.9819298  21.6310902
  27.6705341  20.5118427  87.0578308  27.0080051  21.1936874  86.9466019
  27.6297321  20.0037880  86.2476196  22.5593777  69.2183075   2.9811194
  21.8469467  69.1115646   2.3508177  23.3512383  69.0110168   2.4849164
  72.2675552  40.1167412  53.2262230  72.9888992  39.5041809  53.0824738
  72.6518021  40.8209419  53.7484169  24.6342754  35.2806892  61.9114876
  24.9669762  35.6564636  62.7265549  25.2361393  34.5626259  61.7155876
  81.7930832  51.0260277  18.2424488  82.0001831  50.8248024  19.1550560
  80.8367081  51.0544701  18.2145367  53.4773407  66.6812057  46.1142921
  53.1224785  65.8022842  45.9808731  53.9087868  66.6383133  46.9676666
  79.8269958  48.8171120  32.7923584  79.1257019  48.7585220  33.4411888
  79.6983490  49.6698303  32.3769608  76.5109558  45.3157806  48.3158913
  77.4017258  45.2283058  47.9766159  76.3348999  46.2562065  48.2869186
  45.0069656  41.3279343  23.7772293  44.8260612  40.8839569  22.9487400
  44.9772148  42.2599182  23.5610104  13.7452402  58.2400665  58.5191689
  13.8189650  58.1286659  57.5713387  12.8032513  58.2306976  58.6888771
  62.0280342   7.6075606  30.1023121  62.0834656   7.0764780  30.8967361
  62.7725525   8.2061977  30.1619720  37.2109718  50.9307976  43.1305084
  36.6612358  51.2673187  43.8381615  37.8397713  50.3568039  43.5679703
  75.0176163  59.7738419  15.4191484  75.5379868  60.3782272  14.8898382
  75.0037460  60.1696396  16.2905750  69.5065842   4.6910067  74.5441513
  70.0101395   5.1701827  75.2022171  69.9445877   3.8424327  74.4785004
  48.7830315  17.2108555   3.6387558  49.5160675  17.3076839   4.2466340
  48.9231148  16.3573895   3.2286298  72.4882050   4.1018291  63.2615700
  72.7234955   4.9531298  62.8925743  72.1149063   4.3072252  64.1187134
  20.2648411  52.8497772  52.8014412  20.8787975  53.3778610  53.3117485
  19.4202309  52.9813309  53.2322044  57.2733727   4.2665119  42.7048531
  57.9883385   4.6266418  43.2296028  57.1502380   4.9019308  41.9996490
  11.0091114   2.7547741  21.5269585  11.5397949   2.8185203  20.7328911
  10.9650030   3.6517479  21.8582039  81.5129929  29.7270126   2.8808181
  81.2647934  30.1842499   3.6842883  82.4408493  29.5231800   2.9980996
  54.4498672  48.8846016  30.6102047  54.9410934  48.9810066  29.7943401
  55.0388641  49.2210121  31.2855892   1.4977074   3.6355259  33.2523537
   0.9826013   3.1298759  32.6236916   0.8898230   3.8170290  33.9691277
   4.8755074  16.8422184  50.3825722   5.2218409  16.0736790  50.8360367
   4.3628259  16.4824104  49.6587448  86.6203156  17.8456917  86.7642517
  85.8841095  17.7610474  87.3701096  87.2399139  17.1721172  87.0446472
  63.4089775  34.3362923  59.2624779  63.0994987  35.0527611  58.7082825
  63.3316689  33.5570755  58.7119560  70.8804626  69.9772339  79.8624115
  70.1373367  70.0035248  80.4651566  70.7097855  69.2182159  79.3047333
  25.9056492  47.8957329  10.5155907  25.6596012  48.1305313   9.6208506
  25.0784111  47.8872528  10.9970837  48.2332344  20.9891281  56.9335861
  47.8838234  21.6616135  56.3488579  48.8160095  21.4653111  57.5250740
   3.5339448  37.2988052  41.9927139   2.9475038  37.1983604  41.2428932
   3.6287420  38.2455177  42.0975075  39.3666687  66.9951782  54.7448692
  40.2670937  67.0213242  54.4211655  38.9409676  67.7452011  54.3295593
   1.2691607   9.8180428  87.1908417   1.4030328  10.4935579  87.8556671
   0.4616157   9.3777885  87.4559402  66.2707596  12.0197926  78.1367264
  65.7276382  11.2374134  78.2322617  65.6653137  12.6960058  77.8327560
  14.1023798  67.4926987   4.1994152  14.2689838  67.7417450   5.1085076
  14.0720396  68.3236008   3.7251611  58.5283318  51.1747437  45.7889442
  58.5617371  50.3583336  45.2903595  57.8427277  51.6883316  45.3618507
  10.7828531  56.3136024   4.6933198  10.1393824  56.3950119   3.9893672
  10.8328819  57.1901474   5.0746307  64.5438843  23.2073078  53.8131981
  63.6918564  22.8456020  53.5693855  65.0034256  23.3195724  52.9810600
  29.7169762  13.5597887   7.4300809  29.2971077  14.2437334   6.9083886
  29.6346817  13.8635883   8.3340530  65.3852844  41.6117325   8.1973457
  64.4637451  41.4878159   8.4246016  65.5813141  40.8957558   7.5930424
  38.9895630  36.3255730  56.5105553  38.3442001  35.9561310  55.9078522
  39.2794647  37.1328392  56.0856895  84.3989029   9.0630884   3.9701667
  85.1592255   8.8801994   4.5221524  84.2667236  10.0077610   4.0498877
  44.2796860  44.0527573  76.1553726  43.3887749  43.7951241  75.9184418
  44.8412514  43.5064545  75.6054382  23.8174667  54.6651459  22.7504482
  24.2569294  54.2010994  22.0378742  22.9034500  54.3875465  22.6892662
  42.9132957  47.7641678  36.0424805  43.4837036  48.4110680  35.6272812
  42.3737106  47.4266701  35.3275146  48.1850929  31.9685192  69.0171356
  48.0984421  32.4932899  69.8129578  47.4443741  32.2351074  68.4726181
   1.6123912  66.6007462  18.8381500   1.1058395  66.1043930  18.1952877
   2.5019703  66.2561340  18.7598934  58.2875557  15.0634212  58.9594765
  58.1171646  15.9591217  58.6680717  59.0122490  14.7663059  58.4092293
  55.5718384  61.6424980  82.6562653  54.9851532  60.9052658  82.8251495
  56.3975525  61.2360878  82.3930969  32.8624687  52.5117264  41.5960464
  32.0347176  52.5261879  41.1155777  33.2239685  53.3899879  41.4768486
  76.2033157  67.8454056  63.9786377  75.5645447  67.5961151  63.3107605
  75.7989883  68.5847473  64.4326477  35.9014626  31.6061440  17.0921841
  35.7729340  30.8512859  17.6665554  36.0501442  32.3391075  17.6895885
  22.2694778  61.6118164   3.3878188  21.4938869  61.6094513   3.9487884
  22.9158916  62.1227264   3.8750083   6.5693889  19.0692196  20.8605862
   5.7196794  19.0478134  20.4203949   6.3711686  18.8630524  21.7740612
  28.6253452  34.0410042  58.0480118  28.1623249  34.8721085  58.1533890
  29.0344429  33.8851395  58.8992348  34.1168709  50.4964256  13.5263138
  33.4075317  50.7764931  12.9478397  34.1528473  51.1705627  14.2048988
  82.7187424  48.1033363   4.8087840  83.2592468  48.8213310   5.1382856
  82.6444855  47.5004425   5.5485373   9.0275717  12.5413465  72.2999878
   9.5316000  13.3129530  72.0415115   9.4959221  12.1923199  73.0583191
  41.8314018  63.2243652  38.7663269  42.1321907  63.9313240  38.1953888
  42.6268959  62.7399521  38.9871483  76.3880615  -0.1494862  46.4898911
  75.7998276   0.1812265  47.1687431  76.2394867   0.4287877  45.7417221
  58.7591972  61.5724640  84.1449280  58.4723015  61.0789490  84.9132767
  58.4748230  61.0427284  83.4001160   9.6266356  51.7250099  22.6702251
  10.1872835  51.2717819  22.0405502  10.2372942  52.1380234  23.2807560
  11.5376568  69.5852585  54.3679314  11.5400305  69.7158585  53.4196892
  11.0647173  68.7628479  54.4952507  82.0868835  27.4348850  58.5194054
  81.4560394  26.7228756  58.4130478  82.3880997  27.6227837  57.6304779
  68.6706161   8.9962301   2.2820041  68.4986725   9.8981018   2.5527303
  68.5817947   8.4838552   3.0856299  77.5162659  11.7674122  40.3365479
  77.5874634  12.3874130  41.0623283  76.9158936  12.1875238  39.7206802
   8.4509249  55.9692383  54.2374649   8.0300465  56.7648354  53.9117126
   8.3034868  55.3210754  53.5487137  64.8340073  62.4094315   3.1751227
  65.4593353  63.1261635   3.2823431  64.5362854  62.2163277   4.0641127
  44.6114159  49.0566330  17.3887386  45.2822113  48.4338455  17.1087322
  43.7842560  48.6498032  17.1307964  81.9252319  35.8331528  34.5666389
  82.3719788  35.3551941  33.8679199  82.0699997  35.3027153  35.3501625
  56.0442505  26.3757725  85.0412140  56.5254745  25.5792484  84.8171539
  55.7295418  26.7097626  84.2011871   5.6818218  41.5991211  17.4859314
   5.6723323  42.0104866  16.6216869   6.3930221  42.0382385  17.9524097
   7.0199828  37.3334312  55.9508324   7.5595345  37.5314560  55.1853905
   7.2929893  36.4550018  56.2155304  36.1050110  71.1859436  85.8715668
  36.9074669  70.6804123  85.7421951  36.1794434  71.9151306  85.2559586
  55.4151268  54.7681541  10.7493830  54.7095833  54.2370071  11.1186008
  56.0705261  54.8131294  11.4455585  64.3889465  52.0221710  31.7893410
  65.2961884  52.0518188  32.0931015  64.0172653  51.2522736  32.2198563
  31.6217804  42.4055595  86.4658813  31.4065037  41.7315559  87.1105576
  31.4583969  41.9886856  85.6198578  61.5035820  69.2807388  32.6193962
  61.5635910  69.6174088  31.7253685  62.2327003  69.6951218  33.0808182
  10.3888721  50.9343948  36.0158730  11.2591362  51.1790657  36.3305244
   9.8005114  51.5738716  36.4172859  83.5090561  37.4014053  37.5379601
  84.4301758  37.5911598  37.7161789  83.3211136  36.6188393  38.0561333
  39.4680176  65.7919998  58.4019127  40.1196785  65.2495499  57.9577141
  38.8386040  66.0190201  57.7174187  31.8368416  37.5234833   9.2533369
  31.4085197  37.7181816  10.0869217  32.7497253  37.7779503   9.3879395
  74.6636581   6.8966985  83.1306839  74.7703247   6.2915926  83.8646469
  74.8200989   6.3603835  82.3534317  45.0303459  14.8203182  31.4985981
  45.3999214  15.5326118  32.0204048  44.3904305  15.2475834  30.9292278
  43.5728989  40.0936508  49.7699165  44.0815964  39.6963730  49.0630684
  42.6644287  40.0329361  49.4745789  13.8241930  65.5950699  64.4079132
  13.7900877  65.4149399  65.3473969  13.3663321  66.4296112  64.3072739
  80.2002258   2.1290171  26.4999523  80.3275528   1.9922103  25.5611725
  81.0622559   1.9696087  26.8843079  63.9937592  14.1798639   4.7154870
  63.9692383  14.9111719   5.3325925  64.8580856  14.2388334   4.3084369
  15.0885181  62.6046753  36.8406029  15.6667795  62.9862213  37.5011101
  15.3422613  61.6824417  36.8040924  82.5788498  58.3868904  64.0321045
  81.7923660  58.7551308  63.6295128  82.2539520  57.6797867  64.5894852
  34.5163803  52.2008018  15.5826092  35.3801193  52.2150650  15.9949007
  33.9020309  52.1544914  16.3151836  75.6990433  22.5311012  84.3041458
  74.7656708  22.7426281  84.2867279  75.8270950  22.0810299  85.1391678
   6.1517634  41.6497040   1.3378366   5.5336657  40.9243889   1.2478024
   5.7702522  42.2066689   2.0164146   2.6342061  10.6575718  66.0846863
   2.9439018   9.7526932  66.1236191   2.2879286  10.7542458  65.1975708
  27.9753819  50.2535858   2.1129832  27.3449898  49.7165260   1.6329827
  28.6469803  50.4701843   1.4662416  63.0220146  42.1305466  49.2512512
  63.3649101  42.4473000  48.4155960  63.7844810  41.7651024  49.6999435
  54.7701302  13.6417933  49.1488380  55.5048485  14.0856276  49.5724335
  54.2609100  13.2772903  49.8727608  50.1511879  54.8158951  54.5911598
  49.3726425  54.3673973  54.9212265  50.8741264  54.2229385  54.7960815
  10.5115395  62.7088852  88.4269257   9.6024237  62.6269035  88.7150574
  10.9967537  62.9241676  89.2234497  12.4833565  42.2178879   7.1210790
  11.9250364  42.0326538   6.3659644  12.2715559  41.5284576   7.7504129
  48.9700012  46.3201141  26.0415955  49.0210419  46.4676361  26.9859810
  48.0474930  46.1227760  25.8795185  67.2947464  68.2317963  29.3472233
  68.1090851  67.7375488  29.2533989  67.0195465  68.4128265  28.4484901
  80.1695023  66.2526703  38.1582909  80.8723984  66.8490448  37.9004097
  80.1364517  65.6034012  37.4557304  51.8717918   4.8077297  60.8156624
  52.2766075   4.7796855  59.9487305  51.4435425   3.9566309  60.9076729
  64.2178192  13.9307108  66.6653366  64.0397491  14.7833519  66.2684402
  65.0499039  14.0488720  67.1234894  14.2642393  70.3760147  37.0531235
  14.5984793  69.6287003  37.5491371  14.4494753  70.1591797  36.1393967
  58.4681969   0.6973563  30.1828270  57.7731285   0.7008362  29.5247250
  58.6448517   1.6232295  30.3495102  48.3398438   2.5423453  23.7455349
  47.4851494   2.8067305  23.4051991  48.1558838   1.7714329  24.2822704
  46.9468384   4.1369991  52.9770813  46.5580215   4.2786484  53.8402100
  46.2125931   3.8685524  52.4247627  59.0807037  59.1968269  65.0270996
  59.3985443  59.0225182  65.9130096  59.0392990  60.1514854  64.9710083
  64.7484589   9.0590467  29.1507759  64.9445953   9.6251659  28.4042702
  64.9301376   8.1740675  28.8344936  80.2575531  49.8125992  45.9565163
  81.0991516  50.1104240  46.3018227  80.4818344  49.0927887  45.3667679
  76.1022339  37.8031960  31.3928757  75.9208450  38.5449104  31.9701023
  75.4380264  37.1532135  31.6221828  81.6520233  66.5367279  10.8531637
  82.5193939  66.7979736  10.5438671  81.5107117  65.6720276  10.4677448
  17.4334774  26.8216877   9.6659040  16.4900074  26.9829216   9.6758909
  17.8117352  27.5862789  10.1001310  38.7770042  15.3534536  61.8913116
  38.3443718  14.5147009  61.7314453  38.2604523  15.9879255  61.3944664
  43.2599411  29.5278568  58.3572044  42.7488785  28.8732090  57.8813019
  43.7806702  29.0195103  58.9790192  45.1163254  41.9083290   6.6713128
  45.2344055  42.6944733   6.1381502  45.8845863  41.8882980   7.2419286
  66.2262115  34.4745979  79.0485992  65.3483429  34.1234131  78.8994446
  66.0923462  35.2060585  79.6513214  64.0626297  61.9039764  40.2384834
  64.0898209  62.0274582  39.2896729  64.9646759  61.6918602  40.4783592
  17.5854225  58.1518288  14.9323959  16.9191513  57.5216408  14.6582136
  18.0925903  57.6891937  15.5994644  64.4003830  57.3256912  28.3319016
  64.9224625  56.5541115  28.1120625  64.9029846  57.7679901  29.0160007
  76.7697906  60.4969482  43.4307671  76.3980789  60.3439980  42.5620499
  77.7059555  60.6187515  43.2726593  19.1970177  14.2713003  82.9852219
  19.9924316  14.4741116  82.4928665  19.4939880  13.7046070  83.6971893
  39.0916748  56.7173195  53.3125496  39.0418549  56.6795959  54.2677040
  40.0111351  56.5406799  53.1135025  49.6338844  67.9586716  75.9434280
  49.2478600  68.3552933  76.7243958  49.0395470  67.2424240  75.7198486
  14.4874296  42.2173424   0.7787079  13.9655075  41.4596939   0.5145208
  14.4441862  42.2163010   1.7349300  67.6658936  45.7120743  14.7956562
  68.1735840  44.9464340  14.5268135  66.9320831  45.7405090  14.1816921
  72.5122604  50.7654266   8.2057619  72.2803040  50.7114563   7.2786627
  73.2948761  51.3162193   8.2251740  18.1048584  14.0390778  23.2954750
  18.8951950  13.7896261  22.8165455  18.2569752  14.9488125  23.5513573
   4.0367765  18.0729389  16.3365765   3.4939349  17.9634953  17.1173306
   4.0893812  19.0205841  16.2123508  72.1922684  56.1048622  15.1497364
  72.4529877  56.9983406  14.9262371  71.9283142  55.7166290  14.3155680
  60.1482506   3.2440023  71.4144745  60.1029053   3.8411949  72.1611557
  59.8871040   2.3948228  71.7707443  63.5727844  23.4745293  48.2384720
  63.3633118  22.5457153  48.3367462  64.3907852  23.4842930  47.7414703
  17.7294655  39.2191124  85.4004211  17.2361679  39.0087280  84.6075592
  17.8754940  38.3728790  85.8232651  76.5936737  38.2059326  14.3818569
  75.6596527  38.4148445  14.3954439  77.0138016  39.0071907  14.0692673
  66.4691925  14.7948503   3.6879079  66.6881180  15.5772028   4.1940975
  66.9648514  14.8893814   2.8745129   9.6078844  54.0337334  73.9840851
  10.0979748  54.8248100  73.7599411   8.8370514  54.3541794  74.4524460
  50.2477303  27.3702831  69.7716064  50.5593987  28.1358547  70.2542953
  49.3009720  27.4962292  69.7082062  84.4223709  18.2546921  27.1099396
  83.6787033  18.1976852  26.5099869  85.1918869  18.2130299  26.5421867
  51.7949104  61.5134621  56.6477509  52.5934105  62.0149727  56.8124161
  51.1176453  61.9711075  57.1458549  63.2857552  27.5417442  51.4269257
  62.5279694  27.4928093  50.8441772  63.9603577  27.9779568  50.9064789
  75.5938492  14.5159817  84.5281143  76.3318176  14.9667063  84.9385910
  75.3283539  13.8574362  85.1700363  34.2912788  56.6326256  66.4279327
  35.2362404  56.7513084  66.3320541  34.1605339  56.5004997  67.3669128
  67.4568100  24.0211544  59.6945305  66.5578690  24.0039520  59.3661385
  67.8354492  24.8139706  59.3146477  54.8407936  38.4309616  59.7733688
  55.2714958  37.8805847  59.1192970  55.5604591  38.8526039  60.2429771
  86.6918869   6.1459045  62.0126534  87.0113831   5.7726474  61.1911697
  86.8568497   5.4652686  62.6651497  53.5942650  34.1381073  18.8182335
  53.1080360  34.6164932  18.1466980  53.9141045  33.3550339  18.3702049
  79.7356033  33.7149124  17.7373810  79.5193634  32.8919525  17.2989635
  80.2072601  34.2216988  17.0763683  12.3190308  42.7256927  54.9093742
  11.5306854  42.2616386  55.1911545  12.6163855  42.2453690  54.1366501
   0.4810834   2.1943965  88.2100601   0.6167279   1.8915557  87.3122177
   1.3274188   2.0631781  88.6375275  14.2843437  20.4367619  70.9647598
  14.2095251  19.4916344  71.0965500  15.2268925  20.5997562  70.9291763
  48.9815483   0.8038462   9.0835438  48.7899208   1.7412958   9.1100073
  48.2569771   0.3977500   9.5592737  80.0531082  25.9622307  34.3556595
  79.5578995  25.1540737  34.2219276  79.4082031  26.5858459  34.6894798
  39.7207794  48.9634323  87.6444321  39.2864914  48.1161194  87.7428665
  40.6357994  48.7907753  87.8661499  61.4529991  41.8485718  16.4792042
  61.7752953  41.0089951  16.8070240  62.1809311  42.4547501  16.6166592
  24.6515923  65.7320557  40.0152855  24.5479393  65.9625168  39.0920448
  24.2616539  66.4657593  40.4905319  86.4473419  23.8028374  24.2252159
  86.5085449  23.1879005  24.9561996  85.8747711  24.4997196  24.5457706
  18.9515896  48.1430931  13.7715340  18.6294785  47.6228333  13.0354586
  18.5381107  48.9990120  13.6589718  43.4855080  31.8956871  48.3058624
  43.6899986  30.9605885  48.3077621  44.3347549  32.3267746  48.4016571
  64.2211533  41.7652168  69.7647247  64.9600296  42.2803230  69.4407578
  64.6188660  41.1109009  70.3391190  22.4852467  70.8360977  61.3068199
  21.5446739  70.6851273  61.4004326  22.7328892  70.3314209  60.5320892
  24.4511738  42.0040855  67.6871490  24.4835186  41.0888138  67.9654694
  24.3655987  42.4992790  68.5018234  60.6373405  27.8689079   5.5468245
  61.3750801  28.3061523   5.1216307  61.0301094  27.1233311   6.0007844
  74.5194473  49.2925034  17.4264259  73.6131210  49.2259674  17.7270451
  75.0323257  49.3813286  18.2297287  49.5084381  27.8110142  78.8104782
  50.2268143  27.7383957  79.4388885  48.7223778  27.8803349  79.3522644
  19.8693485  56.5273132   7.5582886  19.9205246  56.8432541   8.4603939
  19.0461178  56.0403214   7.5214095  15.9462442  25.6966457  29.5856476
  16.2083263  26.3798771  28.9686069  16.0228577  26.1088390  30.4461479
   5.2068090  22.3510342  77.4639511   4.3850045  21.8673306  77.3808899
   5.8809915  21.6727161  77.5039062  50.9990311  29.7496090  18.3030930
  51.1450424  30.6813450  18.1394386  51.2571602  29.6234760  19.2161598
  61.9236298  16.3321400  50.9794388  62.4158096  16.3811817  50.1599350
  62.5921898  16.2093887  51.6533737  51.8717384  63.4153595  77.3374405
  52.0761604  64.1367798  76.7424622  52.2938042  62.6523399  76.9426117
  61.0046310  34.4170456   8.7353153  60.3726273  34.7903175   8.1209297
  61.0081215  33.4808159   8.5360699  43.0288506  65.7696686  87.6405640
  42.3405418  65.9862747  88.2694855  43.3970451  64.9468155  87.9623947
  73.4532242  43.1454239  50.6652985  73.6528091  43.2839661  49.7394447
  74.0497971  42.4479790  50.9371605  81.5961685  40.6767235  67.6844406
  80.9879227  41.0916901  68.2960587  82.1396637  41.3957748  67.3622437
  47.8536949  66.1025772  85.9219284  47.7205505  65.7125015  86.7858353
  48.2230263  65.3947754  85.3938751  58.9430885  15.7930546  75.1205978
  58.5658073  15.2830820  74.4037857  58.3030205  15.7209053  75.8286438
   0.8977958  42.5184364  70.3749313  -0.0139064  42.3320312  70.1506958
   1.3243731  42.6753578  69.5325317   3.0332146  47.0627861  55.8106918
   2.7619147  47.2380524  54.9096298   2.5426993  46.2796974  56.0604935
  83.8267136  68.8669357  85.8545532  84.4577942  68.7115555  86.5572815
  83.0189285  68.4563217  86.1629486  79.3496399  62.7301598  74.0541000
  80.1595688  63.2392883  74.0861969  78.9548416  62.9609184  73.2131958
  35.8502388  34.0921669  18.3388901  35.5291061  34.4841843  19.1509418
  35.6123276  34.7219582  17.6584530  55.1541252   2.2932632  88.5882339
  54.8812218   3.2066140  88.5013657  54.3499756   1.8228863  88.8080521
  63.7231255  17.3942451  63.9119148  64.4427414  17.8529186  64.3455124
  64.1503906  16.8469849  63.2529869  62.1421700  15.2729187  80.1739807
  62.1659241  14.3303661  80.3390884  61.3579063  15.4029932  79.6408386
  82.5032959  57.1669922  19.2642708  83.4439392  57.2098846  19.4362755
  82.3938599  56.3836136  18.7252216  68.8296051   5.1668653   1.7098259
  68.3209076   5.4865117   2.4550035  68.8210983   4.2144375   1.8049058
  81.8129196  68.8213272  43.6059303  82.2583923  69.2119293  42.8541260
  82.4853516  68.2914047  44.0340042  62.1544952  22.7083225  76.7946014
  62.0176353  21.7638245  76.8682480  61.8267708  22.9305954  75.9231567
  59.7124443   5.0613570  38.2334518  59.3910103   4.2458510  37.8489227
  60.3892288   4.7844772  38.8511314  37.4092712  66.4034882  78.8334198
  38.2662964  66.2020340  78.4577103  37.2478790  67.3142700  78.5871048
  68.6439514  30.8078671  73.7676315  68.1790543  31.5816040  73.4491501
  68.1989594  30.0715103  73.3481293  33.6842537  50.3356590  38.7111588
  33.7060013  50.9118309  37.9471016  34.1256294  50.8335876  39.3992615
  80.8325653  53.5296860  56.2510300  79.9613113  53.3337860  55.9063873
  81.1782303  52.6802444  56.5252457  56.9276390  44.4881516  88.1773911
  57.1454010  44.3178291  89.0937958  56.4464455  45.3154106  88.1953125
  86.1751785  23.1089153  21.6377602  86.7744522  23.2354355  22.3733482
  86.1533966  22.1609554  21.5068855  26.4880123  14.2794228  82.4150162
  27.2081718  14.0884352  81.8140717  25.7496281  13.7764044  82.0715103
  36.7726669  48.6681061   3.0467696  36.3696136  47.8498573   3.3370197
  36.0329628  49.2380180   2.8363669  60.5884285  13.7741461  37.1386337
  60.4268532  14.5041904  37.7362633  59.8432007  13.1878920  37.2696877
  75.8445053  46.1224251  36.0330315  75.4303818  46.9786758  35.9254761
  76.3481216  45.9972191  35.2287178  36.4070854  25.8767796  63.4812126
  36.9336510  26.6754665  63.5137978  36.2097588  25.6824436  64.3974686
  48.3627968  13.3009787  30.7797375  49.3109741  13.2473612  30.6600742
  48.2233315  14.1428909  31.2132854  26.5946903  55.5687599  59.6719437
  25.7767410  55.2955360  59.2565651  26.3214054  55.9771957  60.4933624
  69.7165604  39.5770874  62.1464386  70.2156143  40.3742981  61.9685860
  68.8065643  39.8699722  62.1948891  29.7677670  68.3490906   6.9174762
  30.6643238  68.0270081   7.0106564  29.7105198  69.0796967   7.5332432
  41.8484039  59.8740120  34.3667412  41.6993790  60.6252632  34.9408875
  41.3228073  59.1717491  34.7499008  70.1020584  20.3692150  74.2056198
  69.6683807  20.8952293  73.5337067  70.5137711  21.0113983  74.7838287
  58.8502045  26.1807098  26.6980972  58.2559662  26.1032639  25.9516964
  59.2493439  25.3143196  26.7773819  81.9367828  16.0392551  28.5000668
  82.1893692  15.1394272  28.2933273  82.6350708  16.5761356  28.1253891
  48.5406914   4.2712965   2.5517735  49.0639343   3.4765191   2.6555936
  49.1841545   4.9792438   2.5201285   3.4746587  54.6034546  12.6423006
   3.7950594  55.4560432  12.3479042   2.7983470  54.3692436  12.0067072
  33.5210609  27.5315170  67.0403824  34.2237473  28.1547604  66.8559113
  33.7907639  26.7279530  66.5956573  20.3976727   4.7153726  88.3824692
  20.1564293   5.5312538  88.8210754  20.6174526   4.1159649  89.0956573
  27.2612705  18.1713314   3.5480707  26.5371361  17.7292404   3.9912598
  27.3058319  19.0328083   3.9629250   4.2549205  19.2454910   5.3146214
   5.1940556  19.3801327   5.4416208   3.8560483  19.5594444   6.1261420
  63.0991936  29.5471783  36.2899284  63.1839066  29.1423969  37.1531830
  62.7969704  28.8386078  35.7217560  76.1177292  49.8892365  45.6763306
  76.2110825  49.3275146  44.9069252  76.2147369  50.7788429  45.3365974
  21.6046619  56.2284546  30.3322639  22.4167652  56.1932526  30.8377132
  20.9179573  56.3396683  30.9897594  55.8335075  68.8013458  88.6335220
  56.3718414  68.0672684  88.9294281  56.0580368  68.9056015  87.7088852
  71.0490570  39.7363472   0.5373361  71.4981537  39.0455780   0.0501188
  70.1795425  39.7832794   0.1398660  85.8660049  33.1041298  36.5539436
  86.0649033  32.5033875  35.8357620  84.9220352  33.0157509  36.6856613
  27.4083290  38.6568451  76.2499619  26.9008408  39.0713196  76.9477386
  27.1735764  39.1449509  75.4607391  21.8606758   5.0643678   5.3889446
  22.6271076   5.4236107   5.8358865  22.2170830   4.6297393   4.6141529
  75.4277878  41.1944923  41.2778244  75.7024384  41.0145264  42.1769409
  74.6556015  40.6438255  41.1484947  20.9138165  45.6625900  38.7947655
  20.2116756  45.8010368  38.1591072  20.6380730  46.1557426  39.5674248
   0.2800589  40.3236809  56.6485062   0.8534586  39.7268486  56.1676331
   0.6941240  40.4141159  57.5067596  40.0338936  25.2145844  67.8630142
  40.2183723  24.2812500  67.9683075  40.6437607  25.6481075  68.4599686
  18.5673695   2.4085457  59.4928970  19.3910427   2.8798921  59.6179047
  18.6038246   2.0984154  58.5880623   6.8418369   0.9890886  38.4611397
   7.6298099   0.5678052  38.8044319   6.1688709   0.8096209  39.1177521
   7.1771164  22.6549778  70.8453674   7.0433416  23.0137482  69.9680862
   6.9793158  23.3829517  71.4345703  15.3567505  62.4847679  46.6305008
  16.0636330  61.9084091  46.9209480  15.7986889  63.1763039  46.1378593
  77.3970947  58.7459717  32.7438927  78.2375031  59.1079254  33.0248528
  77.5199509  57.7974701  32.7823448   0.7764541  45.9055061  64.8078918
   0.3786857  46.6628876  65.2372894   0.7163624  46.1013527  63.8728714
  69.1560135  30.9706230   6.3103838  69.3878326  30.0682335   6.0908775
  69.3297348  31.0409794   7.2490544  55.9030685  20.7312946  64.9799194
  56.1418076  21.1923923  64.1757889  56.3497696  19.8873138  64.9136963
  66.9851990  36.2802467  56.3365364  66.5792007  37.0380516  56.7574005
  66.5872879  35.5245171  56.7687073  34.6657257  39.9316978  63.6054840
  34.4423828  40.4595642  64.3721085  35.1519089  40.5288353  63.0369072
  82.1256638  34.7492561  85.0865936  81.5886688  35.4581070  85.4407196
  81.5389709  33.9933205  85.0626831  10.5546017   1.2881961  57.1012115
   9.9816360   1.1845577  57.8609467   9.9581356   1.3128395  56.3529778
  51.4719429  57.7886696  35.0007896  50.8269806  58.4830322  34.8662033
  51.2354279  57.1151924  34.3630409  45.8826828  36.9208412  86.5878830
  46.7898941  36.7306747  86.8267059  45.8649368  36.8437805  85.6339569
  80.2243576  48.7488518  56.8099480  79.2679138  48.7816086  56.7904930
  80.4273834  47.8729820  57.1383820  60.8619843  66.8140793  33.8748360
  61.2196922  67.5577164  33.3897896  61.6262016  66.2807770  34.0934563
  54.1914635  58.6641808  70.0278320  54.6792450  59.4867859  69.9875336
  53.4872818  58.8336945  70.6536255  65.7254868   2.0328739  77.1926193
  65.4403458   2.8413320  77.6184387  66.3899994   2.3147757  76.5639801
  11.0259047   0.1131782  71.7349701  11.7198925  -0.0846292  72.3638535
  11.2612677   0.9705519  71.3803635  82.5021133  49.7897606  40.9803352
  82.0063324  49.3364716  40.2984581  83.0939560  50.3694649  40.5008659
  84.7304764   5.9727554  65.5326996  85.3088150   6.7207279  65.6820297
  84.5176468   5.6555791  66.4103851  79.4867401  23.1955643  88.8222656
  78.8399429  22.5354290  89.0714798  79.0388489  24.0312614  88.9535675
   0.5598199  53.6022682   6.9019356  -0.3840877  53.5679016   6.7467289
   0.7446826  52.8237076   7.4272008  38.5886154  31.2104492  72.2800751
  38.2924271  30.7342720  71.5043411  38.3215866  30.6594296  73.0158081
  67.9419250  59.1078873  32.8302231  67.5576401  58.3502884  32.3890877
  68.5327454  58.7311134  33.4823074  39.9783363  54.5692673  13.5577555
  40.4328804  54.9739838  12.8189573  40.6617279  54.0893898  14.0256481
   4.3706646  60.7925911  53.6690903   4.3135118  61.6222992  54.1429520
   4.0786724  60.1353836  54.3007927  21.6243286  58.0881691   9.4126549
  21.5791264  59.0230370   9.2121248  20.9062901  57.9402313  10.0280943
  60.2304497  22.1107922  10.0071497  60.0968971  21.3167896  10.5247946
  59.5922203  22.0438595   9.2969284  14.7005625   1.2437272  70.5188599
  14.6649933   1.7699026  71.3176804  13.9515314   1.5413029  70.0024948
  20.8370934   1.2721969  31.8374786  20.1515541   0.6085341  31.9137745
  21.6486301   0.7704986  31.7604103  16.0878773  39.5553703  57.9233322
  15.4481030  40.1634483  57.5529785  16.8660679  39.6641655  57.3766899
  55.6241188  32.3638229   4.8483677  55.7058830  31.7920036   4.0851045
  56.5153961  32.4364395   5.1898122  51.0458832   5.9194984  79.1911011
  51.3588257   6.7884865  78.9397888  51.8116035   5.4903131  79.5728149
  29.2010708  23.0798988  86.3774261  29.0020714  22.7423878  87.2507629
  29.9071255  22.5177326  86.0585403  69.0187302  40.3923149  27.8784771
  69.6001053  41.1471863  27.9701672  68.1556091  40.7231522  28.1270676
  79.6226120  19.1750393  55.6397514  80.0168152  19.8389244  56.2055168
  78.6858902  19.3712349  55.6569786  73.4674377  31.1135292   6.4274292
  73.2427521  31.5550709   7.2464471  73.5322495  31.8197498   5.7845569
  21.6793461  48.3281479   7.2708807  22.5922546  48.3041420   7.5576830
  21.4882107  49.2592354   7.1578436  61.3137512  67.6062927  48.3309898
  60.7005692  67.0852890  48.8494415  62.1759338  67.2588196  48.5593109
  28.3688641  48.2465057  26.7508774  27.9353981  48.9295616  26.2392387
  28.8729858  48.7241898  27.4095955   4.6392341  20.3574772  50.6973419
   4.8748446  19.4347687  50.7939262   3.7068648  20.3902779  50.9114532
  40.3076782  40.2097664  74.1398163  39.9368820  40.4691772  73.2963409
  40.1617622  39.2648392  74.1851501  37.2708015   4.2242332  27.2274246
  37.6859932   3.4399059  27.5861397  37.2392807   4.8361745  27.9627934
  84.0264130   9.3485518  60.6141891  84.7865829   9.2725697  61.1909065
  83.6079178  10.1685400  60.8763123  50.7634125  42.9368896  62.9266357
  49.8284721  42.9406128  63.1318245  51.1955376  43.0188675  63.7768021
  55.7437057   0.2276512  32.8516541  56.5263863   0.7114294  32.5878334
  56.0549316  -0.6636634  33.0095367  71.8233719  55.0729790  86.1192017
  71.7059860  56.0198555  86.1958466  71.0497284  54.7006874  86.5424118
  22.0038757  63.9382820   9.0734262  22.2807789  63.0732803   8.7712250
  22.8204136  64.3909225   9.2846451  45.5454865  60.7557144  43.9710541
  45.0838394  60.3860931  44.7237129  45.1426697  61.6142311  43.8409920
  71.8732529  40.5465317  43.3401375  71.0070114  40.5232811  43.7467346
  72.2627563  41.3630867  43.6527977  48.9444160  16.1946259  86.3147202
  48.6352730  15.8526220  87.1535873  49.6641769  16.7817116  86.5460281
  30.3519764  31.7563515  78.0407257  30.7801247  31.9750977  78.8684158
  30.6932602  32.3978653  77.4176559   5.9515862  62.0479279  45.0656967
   6.1055956  62.5200882  45.8839722   6.7581449  61.5538406  44.9188156
  52.1253128  62.9534760  10.4393711  51.3138008  63.2424698  10.0220461
  52.1083260  61.9996223  10.3612251  25.3504772  27.1408958   2.4847424
  25.6171169  27.5230656   1.6486313  25.5897999  26.2168846   2.4129150
  40.6871109  63.1238022  30.0993462  40.8350029  62.9276772  31.0244904
  41.0928841  62.3936920  29.6318893  49.6315117  40.5923843  60.5424728
  50.3031960  41.2717552  60.4831238  50.0324974  39.9049339  61.0743141
  16.5232849  46.3285942  44.4650574  15.9378414  46.3059959  45.2220078
  17.1822586  46.9848976  44.6914406  81.3153229  20.0865326  59.2881775
  80.7447739  19.4380074  59.7006378  82.0698624  20.1487236  59.8738708
  58.0207596  12.1113615  60.4268684  58.9501648  11.8871822  60.4735222
  57.9265785  12.5698185  59.5918961  83.4442902  65.0251846  13.0551882
  83.0015640  65.8172684  12.7505054  84.3371201  65.1056976  12.7196121
   6.4961786  51.9061737  87.2629471   6.9975214  52.4892845  86.6929779
   5.6033053  51.9456902  86.9202423  57.7738953  67.2428741   2.6771138
  57.7963371  66.7526474   3.4989448  57.3761978  68.0819550   2.9095254
  42.7795715  30.4942360  70.8226242  42.0406723  30.5149498  71.4307556
  42.3786469  30.5630074  69.9561539  27.4350281  36.8610001  85.5332336
  28.0719471  36.1467056  85.5144424  26.5849514  36.4256439  85.4694290
  48.1844940  60.3445892  44.1872826  48.5406723  61.2135582  44.0021935
  47.2377205  60.4782944  44.2317200  29.6578941  63.9967957  54.0045891
  29.8818779  64.3209915  54.8769188  29.4065475  64.7800980  53.5152016
  56.4169388  39.0376892  64.0592422  57.2409515  39.3515129  64.4317245
  55.7751350  39.1625748  64.7583237  21.4897251  62.4181175  87.6542206
  21.0789413  62.3383636  88.5151062  20.8071518  62.7918091  87.0968323
  52.5579033  64.1826859  56.0678520  51.6667671  64.2796707  56.4035683
  52.5764961  64.7232666  55.2781334  37.4967270  13.0407562  86.7900696
  37.0906525  12.2638130  86.4057617  36.7665138  13.5300217  87.1690674
  73.5293579  59.9757881   9.0240107  72.9923248  60.7529488   8.8696060
  73.0371857  59.2606010   8.6208830   4.2820368  20.8625793  15.7043953
   3.4531834  21.2820606  15.9351950   4.9387784  21.5489159  15.8221426
  31.9839516  61.5576553  82.2635269  31.4508591  61.0730400  82.8937607
  32.6415024  62.0026703  82.7981491  84.2958832  50.5259132  57.8991432
  84.7876740  51.2332001  57.4818611  84.8062210  49.7375946  57.7138329
  68.7795944   7.1989560  86.1488800  68.8451843   7.2501173  87.1024551
  69.5940323   6.7771053  85.8750763  23.5034771  69.7703857  64.0640640
  23.1152210  69.0006332  64.4799500  22.8571510  70.4643860  64.1939163
  61.0423317  29.1095181  84.6975861  60.9730148  28.2214527  85.0479660
  61.5459747  29.0096397  83.8897476  76.0546722  60.5751648  36.8758698
  76.5372849  61.3795471  36.6853828  75.1846695  60.8746338  37.1397934
   9.2730980  69.3981018  68.0021591   9.6954317  69.4388885  68.8601837
   9.9332838  69.0091248  67.4284973   2.8704150  70.8636703  -0.0104892
   3.0578301  70.8099060   0.9266428   2.8654370  71.8018494  -0.2003081
  37.5757828  42.6962509  37.0155869  36.8788567  42.0820541  36.7847290
  38.3743515  42.1686935  37.0014610  45.2531242  11.5253582  13.6545238
  45.9709206  11.7201052  14.2570820  44.7456741  12.3360863  13.6165171
  13.1610527  10.2519732  78.9993973  13.8339014  10.8352709  79.3504944
  12.3587675  10.5118237  79.4522171  20.8204231  38.0772896  60.5489159
  20.0703773  37.7859344  60.0304794  21.2136135  37.2685165  60.8768120
  21.1214314  32.9888725  70.7553940  20.8030014  33.8433075  70.4642181
  20.3550987  32.4175873  70.7044144  66.2257080  18.2969398  84.5140228
  66.9215393  17.8986130  85.0368881  65.4160614  17.9505692  84.8891678
  17.6891251   0.2704044  61.2621689  17.6362457   0.5711252  62.1693649
  18.2563477   0.9094070  60.8306999  59.6374435  11.1011171  75.3351746
  59.9600601  11.6007414  74.5851593  59.4550285  10.2302523  74.9822617
  77.2552490  18.3811855  17.6051750  77.2974396  17.4822693  17.2789860
  78.0258102  18.8082180  17.2308731  40.9631462  19.8216782  12.5091753
  40.2775688  19.1625900  12.4004469  41.1172905  19.8534222  13.4533482
  16.5869961  52.2357750  86.5917664  17.0070038  52.1485901  87.4474716
  15.8803062  52.8653374  86.7348633  40.6069107  27.0000820  62.0195808
  39.8224144  26.9290390  61.4757538  41.3340111  26.8943882  61.4060783
  85.5438156  11.9041824  88.3836517  85.2320557  11.1407518  87.8976364
  86.4878616  11.7679129  88.4638519   4.1187763  71.5385284  43.9229050
   4.4558496  70.8367920  43.3659630   3.8723855  71.1003799  44.7374878
  46.3014374  51.3821220  76.9168396  45.9789886  51.1167488  76.0555420
  45.5375633  51.7601433  77.3525238  14.2387886   3.2629464  84.0697174
  13.5144358   2.6620448  84.2442474  14.9782028   2.8933134  84.5522842
  77.7560730   3.4433646  24.4247856  77.8663559   3.1741805  23.5128593
  77.7521973   4.4000397  24.3933277  76.2540283  44.3213005  58.8559418
  75.9646301  43.7898254  58.1143112  77.2027435  44.3875618  58.7473869
   6.5522661  18.5637531  78.3116379   6.1926084  18.5460072  77.4247513
   5.9395661  19.1066246  78.8077393  24.4043999  17.1059780  54.4508705
  23.7431355  17.1209087  53.7589607  24.7888737  17.9823990  54.4336815
  20.7482052  19.1442509   7.1190858  19.9701519  19.2750816   6.5770993
  21.3882275  19.7664833   6.7735004  63.5980148  37.7659874  81.3744354
  62.7527199  37.5181770  81.7490005  63.6868973  37.2138214  80.5976181
  78.3918839  25.7019997  88.5088043  77.8912125  25.9805470  87.7420120
  77.7689743  25.7547092  89.2336731  43.4129639  53.7682915  66.1608582
  43.1873512  54.4861145  65.5691986  44.2199745  54.0549507  66.5884018
  77.7168427  60.7614212  53.2200470  77.8064346  59.8122940  53.3058586
  77.7312622  61.0857468  54.1205101   4.0856466  40.3931694  70.0001831
   4.8530965  40.5568161  70.5483398   4.4392405  40.2953911  69.1160812
  85.5759811  23.6688671  17.5314999  85.6223373  24.6211987  17.4469433
  86.1857224  23.4613209  18.2395744  70.0705338  23.9788971  32.6429863
  69.6250458  24.8142643  32.7841644  70.5742416  24.1088676  31.8394833
  85.4915848  52.8356667  31.7113342  85.8904877  53.1917725  32.5052490
  86.2268524  52.4783592  31.2133942  26.9549084   3.7224541  19.6244717
  26.9706402   2.8741267  20.0675564  26.1217594   4.1141348  19.8865414
  75.1646347  17.6439877   7.5161147  75.5076904  18.4656773   7.1648760
  75.1076355  17.0641422   6.7566667  39.1935616  54.5308723  55.8413086
  39.2532349  53.7685432  55.2655296  39.7744370  54.3240891  56.5734634
  45.9797401   3.3930199  23.1899033  45.8420601   3.6813345  24.0922070
  45.6365318   4.1086273  22.6547928  58.4801178  19.1474514  14.2463827
  57.7865067  19.2401581  14.8994827  59.2687302  18.9679852  14.7583542
  64.9161377  17.5672207  67.1846161  65.7981567  17.1956482  67.1990051
  65.0523911  18.5015717  67.0275955  68.6512146  49.7433548  10.4700098
  69.5183411  49.3629684  10.3299170  68.4074554  49.4652443  11.3528862
  30.6214752  16.4137363  73.8582916  29.9625683  16.0466595  74.4476395
  30.4115543  17.3466606  73.8156586  36.2092972   0.2121782  79.9172134
  36.8928452   0.8809439  79.9590149  35.4411163   0.6754017  79.5832138
  70.0202026  63.2945824  39.0168839  70.7188797  63.5550919  38.4166985
  70.3040771  62.4480438  39.3618813  29.8885479  51.3773918  14.2722435
  30.0339813  51.0602417  13.3808985  28.9382515  51.4685440  14.3419657
   0.1225378  64.4634781  33.3294640   0.3637235  63.6647987  33.7986908
   0.8047233  65.0932922  33.5622444  83.2550507  44.1986771  60.7899132
  83.9555359  43.6604309  60.4213333  83.4956055  44.3076439  61.7099648
  73.8547592  11.6276560   5.1813889  74.5524521  11.0956726   4.7987018
  74.1821136  11.8635273   6.0493951  40.7627220  60.1091537   4.2705617
  40.4047165  59.2289696   4.3860507  39.9979858  60.6842041   4.2975092
  75.4513474  30.5704594  50.7206917  75.5115356  31.2118721  50.0127373
  75.4571457  31.0957012  51.5208931  67.3585587  40.8988953  61.7316170
  66.6230621  40.3931274  61.3859673  66.9495163  41.6078606  62.2278900
  63.1336555  33.6048737  46.9966393  63.7610664  34.1738777  46.5507469
  63.6431656  33.1816635  47.6876678  32.1533432  66.7366562   7.7633591
  31.5968742  65.9758224   7.9298215  32.4918022  66.5969391   6.8789625
  77.5220413  25.6973038  15.0076838  78.4467468  25.9445877  15.0056019
  77.4908829  24.8910332  15.5226507  61.7008209  21.3348312  62.5071793
  61.8227615  20.4994946  62.0559845  60.7830734  21.5587196  62.3527565
  84.9146042   6.8413863  69.7743607  84.3980255   6.7756085  70.5775146
  84.8549957   7.7639141  69.5261230  85.8459625  35.1051979  59.5346489
  86.0776215  34.1887589  59.3839569  86.5876389  35.4625435  60.0229683
  79.3002319   8.0795689  37.4158211  79.3421249   8.9729443  37.7569351
  78.5933075   7.6667042  37.9118423  71.0484314  15.3674278  56.3818626
  71.4032898  14.6529188  55.8529205  70.1319962  15.1292982  56.5221367
  61.9619102  11.6569891  58.2351799  62.1271286  11.5438213  57.2991638
  62.0698662  12.5961065  58.3856239  70.4719467  52.7885857  56.3575783
  70.8668365  52.1362762  55.7789726  70.8099365  52.5735397  57.2269173
   3.3179016   2.0343063   4.5441198   3.0550308   1.8487413   5.4456167
   4.2745700   2.0090139   4.5635610   2.7964611   2.8779831  57.9115829
   2.2564416   2.1359046  58.1834869   2.2093368   3.6323440  57.9611473
  55.7889748   9.3176289  23.8199654  56.4285316   9.5936899  23.1634693
  56.2560234   8.6750183  24.3539600  68.3860931  32.1366959  77.1807480
  68.3899536  33.0840569  77.0439224  68.4302216  31.7671471  76.2988663
  76.1945496  14.7354517  38.2024231  75.7330246  15.3572340  37.6397400
  75.5498352  14.4880323  38.8652649  59.1565285  36.4022675  54.4465637
  58.6920547  37.2385292  54.4125137  58.4788132  35.7452316  54.2877121
  52.5587883  34.9800110   6.8318515  52.2450676  34.9917145   7.7361050
  52.0838585  35.6926727   6.4043179  42.2814751  27.6034794  11.0632086
  42.2686157  26.9570560  10.3573742  41.3714142  27.6577530  11.3548927
  37.5872154  70.7822571  41.2500725  37.5033035  70.6562424  40.3049240
  37.4464798  71.7200851  41.3800964   1.9401383  40.8553925  72.3284836
   2.0287011  41.5408630  72.9906921   1.6423706  41.3168030  71.5444794
  46.0061417  26.4203281  15.0032988  45.7821083  26.8067989  14.1567287
  46.2686348  25.5236320  14.7952909  14.9883509  64.4170914  67.8071594
  14.7610970  64.3685913  68.7357254  15.4774723  63.6118927  67.6379089
  10.4908800  17.1246166  52.3874283   9.8637218  17.1177521  51.6643410
  11.2115841  16.5722237  52.0846405  82.7972946  62.1352425  27.5204163
  83.5936356  62.3294106  28.0147514  83.0439529  61.4126930  26.9430885
  28.6816521  20.6382542  75.5762711  29.3813190  20.9183159  76.1664124
  28.2414398  19.9298134  76.0459061  63.9816246  69.1989975  46.5037880
  63.3842506  69.1346130  45.7586479  64.8543549  69.2106552  46.1107941
  16.2006989  61.9933548  68.3978424  16.5492687  61.2561684  67.8965530
  16.7472782  62.0289993  69.1828308  80.3541107  14.5427265  84.8881226
  79.6745453  13.8994770  84.6865082  81.1378708  14.2076235  84.4526138
  84.5397415  47.3671150  40.4917488  84.5275497  48.3182411  40.3847656
  83.6175919  47.1115799  40.4680061  54.9002686  36.3602524  33.0796051
  54.3339729  35.9375000  33.7252235  54.3125648  36.9272919  32.5803032
   2.2343540  47.1741257  10.6900406   3.1266377  47.5191956  10.6586256
   1.9004484  47.4508362  11.5433693  44.7019043  46.2515640   9.2796812
  44.8236084  46.6818848   8.4333706  43.8062172  46.4731178   9.5344219
  49.1126518  13.6895561  53.0179901  49.9507828  13.4452324  52.6254730
  48.4633942  13.4786472  52.3470116  72.0918884  35.7139282   2.9082472
  71.3164444  35.1682816   3.0393515  72.5033722  35.3598785   2.1198545
  23.6981277  52.2143593  29.5088749  24.3936539  51.5699310  29.3777905
  24.1379833  52.9628448  29.9120274   7.0538778  27.7282982  62.8084106
   7.5274458  28.4638062  62.4198341   6.8177366  27.1752110  62.0637207
  84.0167389  50.0998192  51.2087440  84.3009033  50.2946892  52.1017761
  83.1578445  50.5157814  51.1345558  57.0144043  44.7971802  78.0689316
  56.9469910  44.1310730  77.3848419  57.9287376  45.0788956  78.0396576
  28.7373447  71.4343414  62.7431297  28.5378113  71.6680145  63.6496696
  29.4163342  70.7632446  62.8126640  10.0850945  41.3330917  69.4850082
  10.4936848  41.4349060  70.3446121   9.3328495  40.7627678  69.6434097
  79.1091995  43.3992653  44.3158722  78.9134750  43.3668480  43.3794556
  78.4680328  44.0134926  44.6734467  84.7128448  11.1823444  38.7903976
  84.0829468  10.5655127  39.1632042  85.4850082  11.1041059  39.3506432
  56.6612740   3.7691162  20.1119423  56.3695068   3.7865901  21.0234222
  56.2106323   3.0156310  19.7306099  67.2102966  68.7097321  54.5592995
  67.9438171  68.7296295  53.9446602  66.5514069  68.1653290  54.1283379
  29.6523590  37.9135475  68.0344162  29.0364780  38.0630913  68.7517471
  29.7829208  36.9653435  68.0245819  50.4986229  27.8001308  88.9477539
  51.0627861  27.0694141  88.6947632  50.4783554  28.3655453  88.1756592
  36.0452499  33.5965576   9.3667603  35.9097404  32.9914360  10.0959358
  36.7887115  33.2311096   8.8872385  80.9132385  38.3418007  49.1099319
  80.5038452  37.6260948  48.6237221  81.7562180  38.4744987  48.6763268
  51.9135132  64.5994797  20.0524311  51.9793167  65.2126923  20.7844639
  51.0879173  64.8255844  19.6240597  69.7007446  25.2493534  17.7861881
  69.5998764  24.2974930  17.7816830  69.6856613  25.4961834  16.8614826
  50.9387703  20.8683510   9.5537996  50.1553268  21.3869381   9.3707294
  50.8824158  20.6711941  10.4887791  22.2261524  61.9284821  76.1341934
  21.7557163  62.7326775  75.9146576  22.7236977  62.1493797  76.9215164
  42.9169617  55.5017853  29.3134632  42.5170364  56.0299416  30.0043602
  43.8581276  55.6383743  29.4220104   2.3148265  60.2626648  67.1453323
   1.7668802  60.6416321  67.8326263   1.7127851  60.1069412  66.4176483
  63.4456863  48.5375404  79.2702713  63.2233620  47.6364899  79.0359497
  64.3855820  48.5133705  79.4498291  24.7640018  66.2481537  37.2929306
  24.3777485  67.0370255  36.9125099  24.6264095  65.5708237  36.6307182
  10.6607361  -0.0620777  78.3810425  11.1282043  -0.2304719  77.5629044
  11.1484156   0.6510733  78.7931290  72.9495697  39.3416672  71.0349045
  72.9246445  38.5460625  71.5665283  72.1331711  39.3217506  70.5355759
   5.8174219  36.0219193  62.1070900   6.2628126  35.1862373  62.2467003
   4.8993201  35.8405266  62.3081322  82.7287140  21.0376892  83.3790588
  82.7007751  20.6932964  84.2717209  82.4623795  21.9528770  83.4669724
  63.5785828  26.5074482  60.0430794  63.1240044  26.8614235  60.8074684
  63.4462891  27.1648579  59.3600388  83.1422195  55.0985489  55.7441444
  82.4392624  54.4604988  55.8665276  82.7557602  55.9339943  56.0066605
  45.6972046  43.3339844  54.6537743  46.0268898  44.1837692  54.9460068
  45.1937790  43.0036240  55.3978577  57.5751686   5.8086767  53.5391388
  58.1054840   5.4165297  54.2328339  58.1822052   5.9198942  52.8074493
   3.4894273  15.9334927  62.2838936   2.6167285  16.3247356  62.3233566
   3.7587929  16.0403728  61.3716164  51.4007568  32.3400688  62.1075554
  52.3464928  32.2618027  61.9822960  51.2917290  32.4380302  63.0534706
   2.6841016  18.2324829  56.2280884   2.0305874  18.3285580  56.9208527
   3.4208131  17.7932701  56.6530380  33.8937035   9.7065954  72.5666199
  33.1201172   9.4878159  73.0861664  33.5426979  10.1086264  71.7720108
  18.0361309   3.5738132  49.1501656  17.5744114   3.4892964  48.3159561
  17.4300098   3.2127163  49.7970505  75.2163162   7.3704739   7.9025068
  75.2217865   6.7351646   7.1865568  76.1037216   7.7291822   7.9111972
  42.7301941  70.0712738  15.0445051  42.2670403  69.8560333  14.2349415
  42.4117508  70.9432220  15.2780495   3.7780108   6.1079831  52.1387520
   4.1549306   5.8915029  51.2859306   2.8508625   5.8855143  52.0542793
   4.4253020  28.4205837  52.0340004   4.3214288  28.4406738  51.0826683
   5.2462149  28.8857250  52.1951790  32.0841026  61.3160934  26.9085979
  32.9869308  61.0128212  26.8128586  32.1647949  62.2477074  27.1130791
  31.3628025  37.2978401   4.6483302  30.5961266  37.2118759   5.2149448
  31.9284782  36.5672455   4.8982768  25.6244678  20.9359818  81.2550964
  25.2893677  21.7126293  80.8070297  24.8946133  20.3168678  81.2394714
  83.9157944  45.2113876  34.9809113  84.7297821  45.0508614  35.4582825
  83.2848969  45.4549370  35.6583214  10.5955019   1.4790651  10.6428194
  11.0008631   0.6242340  10.7883463  11.2883148   2.1093848  10.8401499
  61.9807739  59.6994476  54.6094856  62.1172905  59.5118561  55.5381432
  62.2289162  60.6187515  54.5118370  22.5977058   9.4943752  16.1254940
  22.9744816   8.7703552  15.6254253  21.8392467   9.1116982  16.5665493
  63.8534203  68.1950607  85.6041641  63.3759651  67.3708954  85.6991348
  63.2524452  68.8600922  85.9400101  31.8925629   4.1100960  13.4748001
  32.0947914   4.2021852  12.5437489  31.1908665   3.4597237  13.5042982
  55.6824570  30.9438057  36.2934303  56.2276573  30.8399296  35.5135574
  55.2670898  31.7991009  36.1831017  18.5333824  66.8783035  79.4186249
  18.9508495  67.6496201  79.0351791  18.7662067  66.9162445  80.3463058
  34.4012871  61.2210693  65.0169067  35.0594597  60.7477188  64.5080032
  34.4149323  62.1088524  64.6592865  78.0532379  41.9771729   4.8159976
  78.8558578  42.4730530   4.9776716  77.9516068  41.9896240   3.8642893
  57.6642723   6.2042904  77.9256439  58.4763298   5.7304749  78.1053619
  57.6844406   6.9501448  78.5252533  60.5250740  43.6900291  78.1504288
  60.5670166  44.4654961  78.7100067  59.9133911  43.1049538  78.5973740
  39.0999565  35.0842781  71.3959808  38.9027596  35.0938721  70.4593582
  38.4115906  34.5413055  71.7801208   9.5818653  45.9611092  54.3950577
   9.8676958  45.3632660  55.0857925   8.6430855  45.7955666  54.3083420
  82.5685730  59.4568596  34.5708733  82.4683990  59.8448486  35.4401588
  81.6814651  59.1995010  34.3197823  19.0341911  34.4710426  69.6497879
  19.3295650  34.3981209  68.7422256  18.1187477  34.7424965  69.5826492
  83.2133255   8.2556763  66.6805801  83.7150803   8.4029217  67.4823227
  82.7722015   9.0893850  66.5175858  60.9349365  69.2279510  85.4220276
  60.9784851  68.3627625  85.0148621  60.7234230  69.0509262  86.3386307
  32.2628365   1.3853787  63.3903503  32.3785744   1.7675186  62.5204010
  31.8274670   0.5484586  63.2283287  81.6584091   5.4351463  26.1433086
  81.7774582   6.3755136  26.2766075  81.2215881   5.3669930  25.2943211
  26.0407963  25.9242859  64.0077438  26.8672352  26.3672543  63.8153610
  25.7594986  26.2948475  64.8442764  36.0694122  43.2529602  55.7420540
  36.2445068  42.8659897  56.5998573  36.1803093  44.1941261  55.8767281
  28.8168068  46.3101234  30.5333004  29.6896248  46.2643013  30.1430206
  28.6702919  45.4363594  30.8956528  43.5396690  21.0462551  70.2834854
  43.9656868  20.7655411  71.0933838  42.6062088  21.0567780  70.4950714
  21.6873074  43.3182526  81.6595840  22.1388950  44.0221481  81.1939316
  21.0493221  43.7682266  82.2134171  57.0741692  55.0987053  38.6589470
  56.6829605  54.4858360  38.0363884  56.4130020  55.1991539  39.3437843
  39.2359123  24.8399105  77.2236938  39.2157516  25.7373867  77.5559006
  39.7855911  24.8863621  76.4414368  63.1989670  19.7242889  36.1099243
  64.0409164  19.3795376  35.8124466  62.6857758  18.9466476  36.3293381
  39.0603142  49.2629242  49.8254089  38.8573647  48.3690453  49.5496788
  38.2109795  49.6429749  50.0499573  48.9556541  37.0196381  60.2628479
  48.4947701  36.3219604  59.7969475  49.6519814  36.5691147  60.7407494
  19.0084858  36.4668274  14.1885166  19.3666611  36.0294914  13.4160652
  18.7909603  37.3483162  13.8853807  79.5452499   6.7859159   5.7456584
  80.3457642   6.8357611   5.2232428  79.1431046   7.6493301   5.6506596
  36.9014893  48.9538879  28.4698563  37.1731720  48.4596252  29.2432423
  37.2460251  48.4516563  27.7314186   4.3545551  63.1898308  54.9832115
   5.2474923  63.4609718  55.1962280   3.7980103  63.8381577  55.4146767
  52.6704903  13.4145889  55.1139679  52.4479523  13.2389336  54.1997147
  51.8412247  13.3256025  55.5836792  24.9344330   0.4382634  81.5552139
  25.8641014   0.6050819  81.7105179  24.9080830   0.0051262  80.7020264
  56.8175697  67.4694977  23.6210117  57.0779266  66.5501556  23.5638466
  55.9532394  67.4995956  23.2108231  81.3964996  41.0156784  63.8102379
  81.5059814  41.2498817  62.8886147  81.6901474  40.1061478  63.8627472
  50.2564659   5.5111508  29.1348400  51.1929741   5.4849372  29.3310490
  50.2136841   5.6677117  28.1914997  38.3893394  47.8035545  24.0345230
  37.7770424  47.9898338  23.3227482  39.2282104  47.6583366  23.5969830
  13.5425243  28.9851875  10.2215033  14.3028908  29.5529671  10.0962009
  13.8928566  28.0970612  10.1527252  47.7798843   7.8185163  75.2709503
  48.1305046   7.3935628  76.0537109  47.0411034   7.2684860  75.0103760
  52.2491302  38.2856255  32.5658913  51.4599190  38.5641060  32.1013184
  52.3980331  38.9710159  33.2172737  20.0889015  69.8501587  41.0170822
  19.8387203  69.8007660  41.9396858  20.5288467  69.0179977  40.8433342
  65.3487854  32.7984924  74.6365814  64.8701859  32.5252953  73.8539352
  66.0931244  33.2974968  74.3001480  47.8387642  58.2420120  58.3329239
  48.4172859  58.3715973  59.0844231  48.2131386  58.7920685  57.6447983
  12.9944105  12.5035648   4.7634454  12.2844639  13.1452866   4.7834892
  12.5630016  11.6640596   4.9226584  43.5386887   4.7282300  28.9780331
  44.1913910   4.1343045  29.3487988  42.9369354   4.1558404  28.5021152
  78.1228943  21.3864803  49.9493523  77.6467743  22.1540375  49.6324959
  78.5406036  21.6809959  50.7586784  49.6543236  50.9906693  34.0492401
  48.9866600  50.3071709  34.1065788  50.4678154  50.5169144  33.8759880
  69.1468658  52.2301674  72.7995834  69.8352814  52.8952026  72.8062210
  68.9482117  52.1003265  71.8722687  82.3133011  12.7090549  47.0353928
  82.3395386  12.8491011  46.0888557  81.3988342  12.8599472  47.2745781
   1.9106373  33.0834808  28.5229797   2.4280167  32.3566055  28.8696785
   1.0500754  32.9800835  28.9291496  73.2010803  61.2772942  57.3826027
  73.1517105  61.1604729  56.4338417  73.3934555  60.4031525  57.7218666
  27.5642204  50.5502625  20.7038841  27.8542767  50.4421692  21.6096516
  26.7080688  50.1232491  20.6739788  74.0433884  41.3726120  80.9034500
  74.8632202  41.7545090  80.5899734  73.4664383  41.3839684  80.1397552
  63.1601753  70.7971497  60.4087677  63.2461319  70.5273056  59.4944229
  62.4026985  70.3094635  60.7322235  68.5456772  15.8165083  44.0978889
  69.1394882  16.5263577  44.3423080  68.6757889  15.7091236  43.1556740
  45.8274384  68.5100479  35.8166237  45.7626648  68.0777435  36.6681786
  46.2596283  67.8674469  35.2540398  70.7931519  39.1948547  81.6318054
  70.5219650  38.3304100  81.3228836  70.2228088  39.8057442  81.1651611
  10.1378813  50.1621857  64.7148819  10.7876425  50.6113129  64.1742096
  10.5280495  49.3074684  64.8978043  79.8106995  40.4366493  55.1602859
  79.5728226  40.7875099  56.0185089  79.3745651  41.0159416  54.5354347
  53.0290985  21.4014893  46.5649414  52.3479576  20.7325954  46.4952164
  53.5772667  21.1100807  47.2935143  66.5066528  56.7447357  32.4364548
  66.6965332  55.9158821  32.8759766  66.5147018  56.5287132  31.5039825
  74.3738708  48.4924622  39.3627090  74.1668777  48.0386124  38.5457611
  73.7503204  49.2178268  39.3983574  59.9380989  62.4262810  67.5138168
  59.3819504  62.2250671  66.7611923  60.8298302  62.2777405  67.1992035
  42.1120720  34.7136040  86.6935959  42.5660553  33.8713608  86.7211914
  41.4158592  34.6318932  87.3453903  57.8564873  64.3023834  74.8757782
  57.9753990  63.4960670  74.3738327  56.9117775  64.4559174  74.8620834
  84.0040970  29.7664242  37.1056786  84.9545670  29.6566219  37.1334915
  83.8631744  30.4757481  36.4785957   3.9122965  17.0255299  45.3436089
   3.6171679  17.3481865  44.4921227   4.6216335  17.6184387  45.5916672
  48.9247284  41.4637985  75.2616577  49.6302338  41.5748825  75.8989563
  49.3465958  41.5935364  74.4122849  46.5830078  61.1993027  51.6602211
  47.4834633  61.4614563  51.8517570  46.4675179  61.4000435  50.7314606
   2.3225741   9.7530117  55.5467072   2.7848392   9.2407751  54.8832626
   2.3366687  10.6490316  55.2102814  14.2705994  52.9981651  29.2405396
  14.6052771  52.2508621  28.7447987  13.3587866  53.0816917  28.9615173
  48.8965187  57.3157692  19.0230026  49.2933884  58.1352730  19.3181953
  47.9581223  57.5018883  18.9912796  73.0629425  49.6556358  33.0928650
  72.9449005  50.5640373  33.3705368  73.7401428  49.3129654  33.6761436
   0.2181112  48.7881851  40.0765114  -0.2471235  47.9517136  40.0662270
   0.5592209  48.8834763  39.1872444   9.6754847  34.4460220  10.1858435
  10.1621647  34.8330383  10.9135761   8.8969917  34.0663757  10.5933342
  57.1776123  11.7918444  76.5724869  56.7777100  12.3956261  75.9465790
  57.9571953  11.4638405  76.1242752  12.3490782  10.0644569   8.2082853
  12.3953953  10.8375626   8.7707748  13.2089367  10.0207310   7.7900000
  73.0732040  56.0965233  20.1874180  73.9436493  56.1317978  20.5840378
  73.1773911  56.5329475  19.3418961  50.7533417  16.0062389  64.5293732
  50.5283051  16.8530865  64.9146500  51.1562500  16.2248821  63.6890793
  55.1557503  27.4557610   6.3288074  55.0129166  28.3144379   5.9306803
  56.0405426  27.2104893   6.0582185  13.3764734  19.2037067  22.4481621
  13.5765514  18.6762142  21.6748886  13.8525190  20.0224457  22.3093071
   4.7078009  58.5116692  41.0828285   4.1647644  57.7725639  40.8088493
   5.3814740  58.5777740  40.4060516  13.8338709  33.8369675  59.0688782
  13.3184977  34.4765053  59.5604248  14.0982895  34.3017616  58.2749786
  56.8873138  39.6710739  76.5834198  56.7354507  39.3589783  75.6913605
  56.4374657  39.0349922  77.1395416  46.5952835  46.5185318  35.5586929
  45.6687965  46.2781219  35.5658493  46.9980736  45.9016914  34.9475479
  33.6973114  57.1844406   0.4201034  33.4367676  56.3654861   0.8416031
  33.8879089  57.7777100   1.1466959  86.3150024  49.1973419   3.9657934
  85.8908768  50.0019264   3.6674805  85.6718826  48.5095825   3.7937169
  20.6204872  13.1366949  17.8035088  20.0200005  12.4467402  17.5213566
  20.2010689  13.5187340  18.5744591  58.2775803  58.6973648  59.9098015
  57.7711487  59.2275925  60.5251198  58.2223778  59.1736526  59.0813484
  66.6329727   9.7172632  52.6721039  67.0822754   8.9369717  52.9969139
  67.2857590  10.1618423  52.1313095   3.4393814  62.8193092  26.2343998
   3.8492479  62.2089767  26.8473721   2.6785169  63.1579056  26.7062798
  61.0484047  42.2240181  59.0715370  61.1536140  41.9524689  58.1597137
  60.2202148  42.7037735  59.0845299  79.0071716  50.2564545   3.0445402
  79.9480515  50.1520615   2.9028368  78.6821289  49.3638115   3.1618733
  81.3543243  46.2946930  33.2919197  81.9252396  46.1020393  32.5481682
  80.7890396  47.0026321  32.9828720   5.0143180  60.1399956  67.5180969
   4.8716612  60.6492500  68.3159256   4.1677704  60.1523132  67.0715103
  77.1364212  44.7736168  38.2729988  76.5506744  45.1131554  37.5963631
  76.5531616  44.3588524  38.9086151  58.5355148  12.6252737  22.7749176
  59.2326508  12.7754478  23.4134197  58.3802452  11.6813097  22.8074036
  27.5025902  42.9878654  60.1359711  26.6044388  42.7571716  60.3733253
  28.0233421  42.2311592  60.4051285  67.7954407  54.3916168  33.0372849
  68.1688614  54.3472023  32.1570435  67.6121063  53.4803886  33.2659378
  65.8155441  43.0056076  12.1329832  65.0353470  42.5686569  12.4744415
  65.4769516  43.6455956  11.5068836  23.8842449  62.4920387  78.5840530
  24.1713734  63.4046021  78.5522003  23.0614395  62.5167465  79.0725327
  81.6113815  63.3274231  38.2236900  80.8387070  62.9935150  38.6794395
  81.2642059  63.7330437  37.4292297  31.5551720  29.4999409  73.2096405
  31.4353352  29.5732441  74.1564789  30.7305374  29.8140984  72.8388138
  34.9191666  47.3810692  41.2402611  34.2815285  47.3490219  40.5270844
  34.9324074  48.2997856  41.5086136  82.4161224  41.5780716  17.9571953
  82.7368851  41.8183403  18.8264561  81.5793152  42.0356255  17.8757706
  80.5159836  44.3687363  40.7508965  79.7336960  44.1011314  41.2332344
  80.9992294  43.5549545  40.6078529   7.3241863  54.8048325  36.3654938
   7.0598345  54.0745049  36.9249344   7.9176106  54.4130898  35.7246971
  53.6908264   3.3825171  53.6451607  53.6258850   3.6261683  54.5685501
  54.6001740   3.1050768  53.5340385   0.9408559  22.7457104  79.9678955
   1.7687954  22.4283810  80.3285217   0.3762412  21.9730091  79.9485016
   8.3290262  71.1902466  51.5965881   8.7321272  71.7794952  50.9589920
   9.0496035  70.9282990  52.1696358  43.8831749  37.7346458  83.8520203
  44.1652298  37.2372208  83.0843964  44.5555496  38.4069786  83.9620667
  33.4047585   0.6981969  35.5400009  33.0575676   1.2926384  36.2050781
  33.7660561   1.2758007  34.8676376  17.5967560  24.3331623  88.1580429
  16.7283955  24.0554810  88.4497147  17.5383682  25.2871857  88.1064529
  53.2254333   3.5397153  56.4229012  54.1793404   3.6067619  56.3804398
  52.9399719   4.3913050  56.7538643  80.7199554  54.0253601   7.5596032
  80.5584259  53.4780617   8.3281126  80.1469879  54.7826004   7.6801267
  34.8297234  53.0516586  37.8600769  34.2653732  52.8625298  37.1104279
  35.6668625  52.6437721  37.6385918  74.7525101  14.1835499  63.8807526
  75.1896744  13.6469431  64.5419388  74.7983170  13.6613016  63.0798836
  52.7780075  38.5996399  73.6266174  51.9618607  38.1502075  73.8460388
  53.4547234  37.9302750  73.7278137  59.6083374  66.8328857  22.3974838
  60.2754707  67.4819260  22.6208878  58.7823982  67.2371368  22.6632538
  80.3099594   6.5711813  52.0436287  80.4240341   6.3109961  52.9576950
  80.0762558   5.7606368  51.5912628  72.8917847   7.7589684  42.1765327
  72.4882278   8.3583822  41.5487785  72.5326691   8.0221386  43.0238876
  14.9773655   0.0754617  59.9599686  14.5296917   0.0947688  60.8058090
  15.9029160   0.1887424  60.1762009  25.4707832  58.3966026  46.8496170
  26.1415405  57.7471237  47.0605507  25.7472324  59.1861763  47.3147888
  13.2560577  56.7929916  31.6426086  12.8645124  57.3749046  30.9912243
  14.0168657  57.2745399  31.9674377  13.7433310   1.8331029  78.0235519
  14.3615313   1.1283058  77.8303680  14.1651907   2.6218379  77.6827316
  60.5236549  14.5643492  60.8614883  60.4193192  13.6234751  60.7197075
  59.7786407  14.8078365  61.4109421  58.1273041  15.6793547   4.2031112
  58.9606743  15.4068384   3.8191001  58.1700859  15.3743610   5.1094112
  39.6245117  69.3354340  71.0154343  38.8805351  69.9195328  70.8685913
  39.2301064  68.5148544  71.3109436  66.3877640  68.7014618  79.0737991
  65.5284958  68.2798615  79.0855942  66.2976303  69.4111633  78.4378433
  42.9455681  65.3086853  13.9849377  43.5234756  66.0431747  13.7780952
  43.0065498  64.7337341  13.2220802   0.6344209  10.4885311   3.2950790
   0.3716991   9.9018126   2.5858750   0.2137196  11.3221483   3.0845459
  80.9493561  55.2138176  25.8996582  81.4238510  55.1603127  26.7292480
  80.3231964  55.9264412  26.0274048  54.0954895   2.4930656  73.3299332
  54.8376389   2.7655191  73.8695755  53.3266449   2.8183336  73.7982407
  26.4964714  65.8180771  30.1838398  27.4037151  65.6523972  30.4401455
  26.0803452  66.1523590  30.9784012  70.1280212  42.1250381  70.2777939
  70.1582794  42.6468201  71.0797043  69.8642502  42.7453842  69.5982132
  27.3313255  45.8539696  66.1004791  28.0338497  45.6562881  65.4811096
  26.9057541  45.0109787  66.2569733  61.4350166  44.2861061  50.6004105
  61.6003609  43.4208527  50.2259407  61.9289627  44.2906227  51.4203033
   6.2822618  67.4796524  44.2663231   6.8465891  67.3237228  43.5090599
   5.7587905  66.6819687  44.3432274   2.0001402  35.8709717  37.8604393
   1.5122279  35.7621231  38.6767273   1.3821385  35.6144180  37.1759796
  15.7544603   0.7679908  25.1357384  16.5689983   0.2814340  25.0091534
  15.2513828   0.6045355  24.3379745  28.0451641   5.5008974  67.9707565
  27.2670536   5.9523211  68.2978516  27.7313652   4.9955244  67.2208481
  65.3002014   3.0918715  72.4403763  64.4095383   2.7460110  72.4981384
  65.5369186   2.9911690  71.5183945  63.8454552  33.2133484  79.8018265
  64.2767563  32.3769264  79.9767609  63.5337296  33.5058327  80.6582794
  39.0427971  54.1054802  63.4083214  39.3307915  54.6162529  64.1648941
  39.8515091  53.8858032  62.9457626   8.9926395  35.4025192  64.3585052
   8.5842447  34.9684410  63.6094894   8.7250309  36.3181763  64.2798462
  27.3640079  44.1742134  77.7059479  26.7969818  44.9450150  77.6818619
  27.8589172  44.2152901  76.8876495  33.1207123  43.8641853  31.2980976
  33.5021896  43.6979446  30.4360828  33.2278786  44.8062019  31.4298115
  65.5376740  41.6906242  56.7684631  66.3928146  41.2838440  56.6288376
  64.9077682  41.0244484  56.4933891  16.3489819  54.9203033  21.8974266
  16.7079525  54.0371132  21.9831543  15.4015427  54.8012543  21.9638977
  76.8201218  57.7582092  63.2352715  76.9536133  58.6766853  63.0011406
  75.8711395  57.6688690  63.3229446  53.4886169   7.6409545  72.9798889
  53.9772682   6.8832936  73.3014450  54.1091537   8.3675976  73.0360565
   6.3741426  66.8419113  86.2027740   6.6633487  67.6913452  86.5360184
   6.7962451  66.7639389  85.3472137  19.2702389  68.8651123  43.3080215
  19.7644138  68.0517807  43.2055054  18.8252773  68.7704773  44.1502113
  43.1031494   0.3108981  58.9721413  43.3330345   1.1068251  58.4926758
  42.2906456   0.0116940  58.5640450  61.5493546  41.0014839  26.5968552
  61.4628448  40.1876030  26.1005192  62.2631149  40.8322868  27.2117977
  59.3647308   6.1631250  85.4348373  59.6915512   6.3438997  86.3161621
  58.9486275   5.3039770  85.5052338  61.6290703  18.4957790  83.6115265
  60.7527885  18.1365604  83.7505188  61.5245171  19.4385948  83.7395782
  80.4739685  56.1087189  78.0893326  80.9891510  56.4192467  78.8339081
  80.0833282  56.9012451  77.7211914  32.1386604  53.4669380  30.6842270
  31.5982475  52.8074646  31.1192913  32.5496483  52.9984779  29.9576817
  76.0542755   2.9767210  60.6666946  76.3973999   2.8187723  61.5462112
  76.8034973   3.3113520  60.1738281  77.5256195  34.8733864  48.8291359
  76.5789642  35.0121689  48.8577232  77.7310944  34.4511642  49.6632462
  24.8851337  71.1428375  58.4594574  24.5106964  70.2769241  58.2974968
  24.1801624  71.7529831  58.2427368   4.4678721   8.4804583  65.2043686
   3.7897317   7.8111305  65.1129532   5.0272055   8.3611231  64.4368210
  54.9149551  49.3538704  61.4658470  54.6566696  48.4636230  61.2271423
  55.2813225  49.7208366  60.6612701  21.4636726  25.7024994  63.2668266
  21.6947575  26.5991974  63.0244141  22.2213535  25.1803131  63.0032463
  79.1121140  45.7341385  70.8826828  79.2491684  45.2308044  70.0801239
  78.4654922  46.3975525  70.6418533  37.9634857  24.2640572  71.7367096
  37.8743362  25.0705185  71.2288666  37.0845947  24.0969715  72.0771027
  38.7599983  17.6212177  78.4973526  38.7664986  18.3037548  79.1684189
  38.8527985  16.8036213  78.9863815  31.2897797  54.4851646  26.7195835
  31.1760521  55.1977043  27.3485355  31.5595551  54.9203415  25.9108372
  48.5111008   2.0717006  49.9907913  48.2660561   2.8888297  49.5566406
  48.1051445   2.1289508  50.8557472  24.3276863   5.3123035  61.3146706
  23.9916325   6.1958985  61.4648705  25.2767010   5.3983860  61.4052010
  18.8452759  31.8143158  75.7312698  19.4501514  31.8737659  76.4707413
  18.9699650  30.9285793  75.3904495  14.8573046  67.9904022  23.9870586
  14.4214420  68.2183456  23.1659031  15.7281122  68.3807220  23.9123821
  69.5262527  27.2207832  56.2110672  69.9495316  26.4135952  56.5034981
  70.2136230  27.6962051  55.7444496  58.5751343  16.8461800  68.4027786
  59.0415535  16.4836884  67.6495972  57.9482918  16.1651669  68.6467438
  17.4186077  65.6032181  67.1384964  16.5220585  65.2686081  67.1601105
  17.3414345  66.5135880  67.4239731  72.2944641  62.6115150  29.8901405
  73.0161057  62.5178871  30.5119877  72.3124390  61.8025436  29.3787937
  31.2925930  27.1575413   8.4663868  31.2836285  27.4439259   7.5530767
  31.9421597  26.4549026   8.4907084  25.0200844  35.5633621  77.0921783
  24.0881767  35.3463020  77.1179733  25.1422176  35.9946861  76.2464371
  52.7382393  68.6819382  44.7431068  52.8632889  68.0177078  45.4208908
  52.3525352  68.2047806  44.0084038  23.4603844  19.5334740  87.1854858
  22.5877056  19.8596096  86.9657135  23.3095417  18.8990860  87.8862228
  69.6545715  57.0094299  21.2523956  69.7637100  56.6570396  20.3691406
  69.7345505  56.2472610  21.8259239   9.0366983  40.9401016  74.3307343
   8.8532362  40.0007439  74.3440018   8.2035885  41.3501587  74.5631409
  63.6921654  57.4797249  19.0178871  64.0765305  56.6033783  19.0404358
  63.3931770  57.6332588  19.9141369  70.7027969  22.5648308  55.2175102
  69.9850769  22.8454456  54.6497383  71.0618744  21.7903118  54.7845955
  71.3233185  43.1553879  52.7131310  71.8888092  43.5497932  53.3771362
  71.9270630  42.8431282  52.0391731  64.9600983  58.0114555  34.2187347
  64.2488098  58.2459831  33.6226730  65.6253662  57.6174507  33.6544571
  83.7321625  32.5902214  59.1883125  84.3505096  32.2675514  59.8438721
  84.2831802  32.8774338  58.4602203  45.6427460  46.2997742  44.1701126
  45.5998001  45.3585243  44.3387337  45.0580750  46.4364777  43.4246559
  33.4528618  46.4265404  32.2339363  32.5082855  46.5532646  32.3230629
  33.7739983  47.2574501  31.8836613  58.2152023  67.4817352  68.4340668
  58.8743553  67.4278564  69.1260529  57.6747742  68.2337952  68.6761017
   6.1961598   2.3348095   5.0219388   6.7860942   1.8111718   4.4797096
   6.3960023   2.0684903   5.9193625  69.9762421  19.3556404  39.2548943
  69.3138275  19.9347801  39.6317749  70.6380310  19.9484692  38.8987770
   9.3179045  45.8271255  25.9361458   8.9350853  45.2000809  25.3225517
  10.2350159  45.5625801  26.0079403  72.1504135  45.2803421   6.2362051
  72.4709473  44.4414597   5.9048963  71.9437637  45.7852859   5.4497218
  85.1451035  31.2408714  61.0104141  85.8800735  30.7051182  61.3087807
  84.5683899  30.6255054  60.5576935  79.5903320   1.6173223  34.7744179
  80.2887344   2.0527182  35.2631950  79.3014221   2.2700856  34.1367188
  56.6480141  66.1909409  39.3752556  56.5607758  66.9244614  38.7665176
  56.3422966  66.5376358  40.2134514  48.3542671  27.5101204  35.8153458
  47.5017319  27.5661964  35.3837585  48.7513351  26.7154160  35.4589500
  27.8855553  54.9041443  78.2315750  27.3429413  54.8010941  79.0133514
  27.3293953  54.6038589  77.5127182  33.6923294   1.6792582  76.7684174
  33.1080055   2.4367225  76.8007584  34.5457268   2.0236781  77.0316925
  74.7667084  53.7376595  27.7910099  74.2557907  54.4508820  27.4082432
  75.1962051  54.1314430  28.5504169  67.2462311  12.7674007  57.5379791
  66.9349289  12.6482048  58.4352608  66.4501038  12.7695551  57.0065575
  44.6353302  44.5779724   2.1099946  44.7628365  45.3105125   1.5072026
  45.5075264  44.1970062   2.2118454  84.3258057  16.3057537  65.3442459
  83.9904709  17.1770306  65.1329193  85.2666321  16.4340515  65.4651642
  10.4423008  57.5657578  26.2807693   9.5636482  57.4188499  26.6309395
  10.3616152  57.3793068  25.3453789  13.2003984   9.2450600  75.9431610
  12.6734381   9.9373999  76.3421707  13.7593899   8.9300289  76.6534500
  48.7763252  23.1956997   9.4076157  48.6387749  22.8748035  10.2988720
  48.0606003  22.8112316   8.9014978  54.5392418  42.9794502  27.7150459
  53.8392410  42.3710327  27.4782848  54.1064148  43.6472626  28.2469444
   3.0537820  41.5538750  60.9898796   2.4086955  41.4350204  60.2927628
   3.8812733  41.6929970  60.5292969   1.0598869  17.1852818  60.8578568
   0.8210592  16.6131020  60.1286087   0.7754878  16.7098255  61.6384277
  52.9036217  27.6248684  31.4754906  52.9607658  28.4166012  30.9405842
  52.0077095  27.6276493  31.8124905  77.9774246  67.4067535   4.9543686
  77.9193649  68.3425674   5.1470137  78.2633743  67.0101089   5.7772512
  24.4566383  65.2847290  55.5514984  24.3282433  64.7882309  54.7432671
  25.3727703  65.5603333  55.5203171  78.6288223   4.4014525  86.5692749
  79.4465179   3.9182751  86.4503326  78.6412659   4.6709270  87.4876709
   7.7279315  53.0773010  57.8581276   7.3130054  52.5945282  58.5729713
   7.2610559  52.7910233  57.0730782  54.4191742   7.7753696   8.1348286
  55.2585297   7.5577173   7.7294374  54.5901031   8.5818329   8.6212769
  50.7163963   2.5141873   1.6688681  50.4055328   2.0843029   0.8721284
  51.3533401   3.1586702   1.3603649  58.1262589  19.8607464  56.8717346
  57.4401169  20.5244503  56.9419899  58.8195572  20.2855263  56.3666306
   4.1190944  34.8415527  20.2363739   4.0595288  33.8874474  20.1877155
   3.8088276  35.0563507  21.1160488  44.8508415  14.6922531  10.6271801
  43.9216576  14.4722643  10.5604362  45.0129204  15.2749109   9.8852425
  78.1477814   0.4624355  76.7105179  77.5913010   1.2399427  76.6652756
  77.5597839  -0.2366287  76.9965286  38.5144043  69.7334671   1.3499361
  38.7055855  68.8314438   1.6069144  37.5831642  69.8447800   1.5413226
  12.3057852  22.5924854  53.5247421  12.3836479  23.5391960  53.6426811
  13.1474323  22.2444153  53.8192062  59.2886086  48.8976402  13.4044228
  59.7308693  48.6107216  14.2033682  58.5929642  48.2537575  13.2713127
  72.6420822  25.9034882   0.5457856  72.3056259  25.4866924   1.3390759
  72.4207382  25.2932816  -0.1576961  21.2331791  52.1396370  86.4582138
  20.9347477  53.0047150  86.1774750  21.4724388  51.6935234  85.6458282
  24.2078323  65.2424469  43.9759293  24.5672321  64.8653488  44.7789612
  24.4135189  64.6000900  43.2967339   8.4338760  41.3849068  58.0887413
   7.9488716  40.5689812  58.2123184   8.0496597  41.7753944  57.3038025
  21.6935253  56.3800545  83.4569092  21.8577919  56.1646233  82.5388489
  22.5332851  56.2317314  83.8916931  39.0360031  37.8985825  67.8321381
  38.9846382  38.5173264  68.5606613  39.8656044  38.1042824  67.4012299
  40.9514694  49.1095810  40.3504372  40.9208412  49.2831726  39.4096069
  40.0343628  49.1127472  40.6245575  57.9465485  20.7630844  72.8049469
  57.2000046  21.2899647  73.0900803  58.2550812  20.3334045  73.6027069
  82.4528275   7.3353424  84.9551697  81.5040970   7.2615385  85.0585480
  82.8106155   6.6774297  85.5513000  71.3467789  46.7226295   3.6844492
  70.4439545  47.0053520   3.5387938  71.3479691  45.7946434   3.4497640
  81.2995148  66.4313965  58.1611176  81.6542435  65.7740784  57.5625038
  80.4913940  66.7263260  57.7413673   0.9675642  29.3331070  35.9819374
   0.4865124  29.9291134  35.4078293   0.5462430  28.4834595  35.8522415
  10.0140724  67.6393967  73.2806778  10.9581032  67.4812317  73.2853851
   9.9062920  68.4599152  73.7616882  16.1601543  68.7412643  77.9914627
  15.7586584  68.3267593  78.7551498  16.0553970  68.1003189  77.2882996
  76.3904572  14.4165325  29.5005550  75.5353012  13.9913397  29.5650368
  76.3553772  15.1239309  30.1444397  80.6549835  59.4615822  60.0127258
  81.5843430  59.2336426  59.9891167  80.4171143  59.4017143  60.9379654
  80.3475418  13.1769829   0.1124460  80.8217392  13.9405966   0.4414753
  80.4550247  12.5155087   0.7959157  79.9022675  52.5609741  80.4765320
  79.9908371  52.9953842  81.3248672  80.8027573  52.4264908  80.1811295
  78.8405991  37.7413521   8.5597248  78.2339172  37.9046516   9.2818794
  78.3709488  37.1376495   7.9842219  59.8613434  70.8870010  25.7046394
  59.6365166  71.7834091  25.4553719  59.1356773  70.3573761  25.3742695
  56.1455727  31.4667206  89.3925171  56.1824799  32.4196434  89.3099976
  56.9585991  31.1598892  88.9911804  73.1012344   3.8839231  68.2896805
  73.7542801   3.3444753  67.8438644  73.5997925   4.3691316  68.9471359
  68.3960800  16.3834553  50.2871132  67.7180099  15.7782116  50.5873337
  68.6837997  16.0237045  49.4480515  46.4828300   3.7035639  74.4889603
  45.7756729   3.3044930  73.9821014  46.2235947   4.6203704  74.5811157
  81.3163147  24.7396736  23.0539093  82.0803604  24.4473648  22.5568962
  80.7335968  23.9803829  23.0659504  85.2917786  19.5163784  11.6188917
  84.5326767  20.0759392  11.7828646  84.9183273  18.6891384  11.3148479
  28.9594879  10.9124174  14.2802591  28.4367943  10.8666477  13.4796801
  28.9268608  11.8344612  14.5352163  45.7883530  17.3315697  61.1670189
  45.1435127  17.5538368  60.4954453  45.2664719  17.1415653  61.9466171
   5.6184235  55.9151192  19.4896488   5.0282726  56.1169930  20.2157345
   5.6933956  56.7377968  19.0061073  36.3612137  23.7931690  10.1773758
  35.7368011  24.5071354  10.3061838  36.7778816  23.9879131   9.3379145
  83.6774139  59.8119926  17.7000008  84.2403564  59.9691162  18.4580479
  84.0134354  59.0021973  17.3158722  78.1635208  49.6696815  29.0435352
  78.2008362  50.2091904  29.8333244  77.5104980  48.9986954  29.2424641
  38.9637604  47.2296448  82.8559723  38.5622711  47.6721840  82.1081772
  38.2241631  46.9643745  83.4026566  51.6874580  12.9403744  52.3688316
  52.2062569  13.6539536  51.9974976  51.9385719  12.1707487  51.8580971
  16.3132458  35.7309837  12.0488281  17.0695381  36.0277328  11.5426712
  16.1154232  34.8629379  11.6972723  28.3355522  23.1750889  82.1132660
  27.9233265  23.7603703  82.7486801  29.2679424  23.3857517  82.1633072
  57.0551414  32.3118706  29.5026436  56.1040421  32.3921356  29.5747547
  57.2835159  31.6120396  30.1144524  74.2869415  45.6670685  45.4134560
  73.9407272  46.1341896  44.6530838  73.5227890  45.5150337  45.9695015
  33.4488640  69.9358521  80.9476471  34.3805199  69.8624268  81.1546631
  33.4248199  70.0908966  80.0033875  73.9583740  46.5538750  88.4515457
  74.2926559  45.6777763  88.2593613  74.7368622  47.0631332  88.6770248
   9.1550341  10.3596907   6.9500685   8.8164177  10.7034740   6.1233983
   9.1608982  11.1143713   7.5388422  25.1796017  12.8145056  12.2274733
  24.8498974  12.9877548  13.1092396  24.3997860  12.8310652  11.6726341
  14.8248539  48.0421486  77.1831360  15.1302462  47.4228134  77.8460007
  14.6560955  47.5024796  76.4107971  17.3294258  48.6198463  39.2393379
  18.2674446  48.7554550  39.1053085  16.9372826  48.7965775  38.3842201
   0.5157178  20.1857147   6.8433218   0.2714730  20.5381889   5.9875541
  -0.3160160  20.0804005   7.3052306  66.5697861  34.0749016  19.8053513
  65.9829025  34.3783340  19.1127262  67.1394577  33.4376678  19.3744907
  77.6649323  40.8169746  47.6047211  77.6626663  41.2338104  48.4663925
  78.0133896  39.9397812  47.7639198   7.2155485   1.5958471   7.2178006
   7.2903986   0.7386726   7.6371822   7.7931647   2.1634319   7.7281327
  51.8122406  53.3341599  25.1710930  51.4701881  52.6657944  25.7648315
  51.0322685  53.7493591  24.8030090  61.2587929  27.7371750  74.1583557
  62.1565628  27.4366055  74.0172958  60.7259178  26.9461079  74.0777817
  84.5602646  26.0731869  13.2732773  83.7721024  26.0031624  13.8119202
  85.0344086  26.8201828  13.6385412  41.4429626   7.8422232  65.6938477
  41.6206512   7.3745432  64.8778000  41.1059608   8.6932106  65.4137039
  61.9278183  40.1761475  71.7533264  62.3969498  39.5130768  71.2468796
  62.5757713  40.5040474  72.3769150  63.4171066  58.0813026  77.2043076
  63.0069313  58.0833206  76.3394470  62.9683800  57.3827057  77.6805801
  24.6633205  58.3006134  40.6806488  24.9252148  59.2182312  40.6056862
  25.0466576  58.0089378  41.5078201  26.3686218  55.3060646  83.0853806
  26.8850918  55.5596008  83.8503647  25.4756489  55.5767212  83.2988586
  79.2989578  52.9335289  36.9486389  80.2549820  52.9177895  36.9932556
  79.0642700  52.0982857  36.5442581  31.0920849  11.2496176  66.9983292
  31.5835953  10.9309807  66.2412872  30.3212929  10.6835260  67.0389938
  10.0006056  21.7693443  54.4330597   9.9475374  20.8209095  54.5509109
  10.9051228  21.9268208  54.1623497   2.4965854  39.6264839  80.6252899
   1.8782601  39.7052612  79.8988647   2.5170507  38.6899185  80.8219070
  79.8529129  61.4587326  56.2094994  80.3288422  62.1577835  56.6578865
  79.2693253  61.0994492  56.8777618  79.9308243  66.0659637  15.5313454
  79.0932541  66.3205643  15.9185057  80.3640900  65.5532074  16.2136879
   5.5292916   7.9031477  29.7731495   5.5428343   6.9661179  29.9681454
   6.3837647   8.2208881  30.0649509  14.0744429  43.7431107  21.5404339
  13.8699007  42.9298782  21.0788574  14.6854229  44.1996307  20.9620533
  42.3165627  18.0912819  72.7116013  41.7371750  18.2139435  71.9596024
  42.9526443  17.4382000  72.4198608  84.2573624  65.4949265  56.6981697
  85.0268326  65.1641464  56.2347794  83.5186768  65.0467224  56.2862396
  60.9029922  20.0635242  45.0749626  60.1984367  20.6219616  44.7463608
  61.4538536  20.6518421  45.5913620   2.5478764  20.0955639  27.4349136
   2.3926587  20.1762695  26.4938374   3.3600354  20.5790825  27.5860424
  22.5611744  46.6210442   2.1450353  22.3095016  45.7019730   2.2355967
  22.4772091  46.8012199   1.2087035  68.0389252  34.8260307  63.5879898
  68.4163742  35.5928383  64.0189896  68.7739410  34.2209129  63.4889450
  74.9879379  53.7755661  34.4576225  75.1178436  53.4793396  33.5567284
  75.8560181  54.0597343  34.7438354  70.8438721  35.5184746  73.5060272
  71.3995590  35.2117233  74.2225113  70.4155655  34.7271881  73.1794510
  79.3027344  68.3027420  19.5147038  79.9928436  68.1046066  18.8816776
  79.2358704  69.2575607  19.5051308  35.3559380  40.6693649  21.1176720
  35.3619080  41.2921562  20.3908119  34.4980774  40.2480125  21.0650120
  65.6092987  44.9971161  77.7450180  66.3432007  45.5900154  77.9065475
  65.9748535  44.3096237  77.1882782  32.0981636  23.1192913  79.4714050
  31.3940792  23.2561588  78.8375549  32.7294083  22.5652466  79.0122757
  33.9902802  39.9771042  60.4717369  34.6577759  40.0667839  61.1519089
  34.4785995  39.7214546  59.6891632  71.9789810  33.9307175  16.6735115
  72.8327484  34.2643890  16.3978748  71.6707306  34.5661201  17.3196373
  48.6498718  46.6529503  28.6065712  48.8909531  47.4130020  29.1361313
  48.9170341  45.8996277  29.1332245  10.1692266  36.6786728  37.4374084
   9.8566694  35.8756866  37.0205688  11.0089121  36.8571548  37.0139656
  49.2027931  48.9509201  21.1743317  48.8922691  49.2402344  22.0322971
  49.4662399  48.0406570  21.3094158  45.6649513  43.8696022  15.8517885
  46.3515511  44.2688866  16.3859997  45.1795349  43.3140945  16.4617176
  45.0784111   0.8367039   9.0283985  44.7643166  -0.0504550   9.2031088
  45.6942062   0.7342058   8.3027792  71.8006668  48.4194603  28.8297939
  70.8982773  48.1052628  28.8864861  71.8325348  49.1656342  29.4284897
  52.3089027  29.9097824  66.8822021  51.4955139  30.3880978  67.0429611
  52.3305855  29.2382164  67.5639343  57.6950607   8.3849707  79.1860046
  58.2632217   8.8609867  79.7916794  57.3357811   9.0618973  78.6124954
  53.0973892  34.5181618  80.2241974  53.7092819  33.9505882  79.7555008
  53.0036545  35.2862930  79.6607895  79.9432831  18.0909500  39.1065369
  80.8924408  18.0278931  39.2131615  79.8247528  18.6717434  38.3549652
   3.6613915  14.6059399   9.8156614   3.7647703  15.4765186  10.1998959
   4.2127581  14.0390797  10.3550100  60.3071289   4.9448628  26.0052395
  60.1715088   4.8589330  25.0616016  59.4296875   5.0837922  26.3616505
  58.7605858  30.2556686  64.2447205  58.9900246  30.6321201  63.3950920
  58.1774940  29.5264053  64.0339813  46.7825966  71.0218353  88.4138565
  46.4049911  71.7848129  87.9762497  46.5038185  70.2774811  87.8805084
  13.7902288  47.9394035  69.5595169  14.2049999  47.7597885  68.7157516
  13.1944942  47.2025757  69.6952286  67.8443985  45.4087334  60.1000977
  67.8493271  46.3571663  59.9709511  67.2438354  45.0790977  59.4315987
  59.5250053  66.1466141  38.9406548  59.8523064  66.6980362  39.6513176
  58.5722198  66.2030945  39.0130386  29.4397717  67.4645996  11.8133602
  29.0176659  68.3171616  11.9191580  28.8976707  66.8638458  12.3246841
  77.8771286   9.5886364  29.8199425  78.4295959   9.5935555  29.0382824
  78.0029755  10.4547129  30.2076359  16.3402214   7.4548216  64.1805496
  16.2330360   7.3451033  65.1253815  15.6662550   8.0886440  63.9350471
  82.1374283  46.1097870  39.5344467  82.5334167  45.4368553  38.9807472
  81.5032501  45.6351357  40.0718155  33.3146362  19.7978859  65.2163315
  33.3265800  18.9209766  64.8327713  32.7125664  19.7271156  65.9570999
  21.1852112   3.7398012  85.9565353  21.2757759   3.9744072  86.8801117
  20.3642063   4.1499772  85.6846161  76.6923523  20.6487617  71.8329620
  76.5540314  19.7569656  72.1520233  76.6399384  21.1946526  72.6174927
  76.0158615  53.7246017  49.0519104  75.8215714  53.2226219  49.8434219
  76.1010666  54.6281395  49.3562012  24.2930527  44.0580025  41.2728043
  23.9462318  44.1952667  42.1543427  23.5631542  43.6765633  40.7849693
  20.1556416  51.0699768  12.4576645  19.4459839  51.0538368  13.0998144
  19.7896004  50.6390724  11.6852884   4.2111163  18.4131927   1.3476450
   3.8984120  18.7974606   2.1666598   3.8367946  18.9689198   0.6640655
  17.4486904  60.5510788  40.7679749  18.0814705  59.8441315  40.8946342
  17.5129566  61.0758591  41.5659180  85.7668304  42.4472084  67.6021500
  86.5572052  41.9135437  67.5200348  86.0810394  43.3499489  67.5514984
  43.9030724   7.5872407  69.7780838  43.5933990   8.2065296  69.1171646
  43.3236237   6.8307447  69.6876221  23.7151566  10.4084320  83.9579544
  24.2941608  10.6239443  84.6890793  23.7470188   9.4534807  83.9006348
  81.4968338  48.7148972  78.9232330  80.8917923  49.3499718  78.5400391
  81.6624298  49.0445900  79.8064728  50.2266159  22.1772614  25.2946930
  50.5388985  21.3085365  25.0416527  49.3246956  22.0334873  25.5812283
  46.3094978  48.2900581  85.8138504  46.0412865  47.9201317  84.9727478
  47.2173080  48.5612831  85.6776505  64.7295380   8.5073042  24.9137135
  64.4605560   9.1141491  25.6033649  64.1097031   7.7808065  24.9787998
  67.4015961  34.7764359  11.0618372  67.5653229  35.6901588  11.2953730
  68.2329178  34.4689331  10.7004681  31.4903545   6.5245705  27.7563858
  31.7367344   7.4480395  27.7041092  32.2788963   6.0838470  28.0729275
  66.5602264  47.0992622  83.6744843  67.1744919  46.4864006  84.0785980
  66.5782547  47.8676262  84.2450333  53.1162758  59.4096375  23.4005795
  53.6117325  59.3914948  22.5817833  53.0440750  58.4903221  23.6572552
  25.9038410  35.4437752  64.5507965  25.0454044  35.3213615  64.9561768
  26.1980572  36.2982445  64.8663101  80.4307632  41.9504509  77.2183304
  79.8948669  41.5770264  77.9180374  80.5527573  41.2302399  76.5997467
  69.0685196  39.0268326  20.3117466  68.7425613  39.9227982  20.3967876
  69.8237076  38.9899788  20.8987408  83.7109833  20.1806545  63.7389336
  83.2065659  19.5112114  64.2011490  84.4659119  19.7102013  63.3854065
   7.0715380  41.2757988  25.5398312   7.6240129  41.2405243  26.3207035
   6.7307310  42.1701889  25.5277615  37.4666786   3.6581016  24.3934555
  37.5869751   3.8082438  25.3311234  36.5365028   3.8252091  24.2415333
  83.2632599  13.7334290  59.2184639  83.5232468  12.9431667  58.7450485
  82.5874634  14.1303940  58.6689644  19.2604885  27.8397980  67.4778519
  19.4960442  28.0753479  66.5804901  19.8053131  27.0782490  67.6764526
  67.8614655  58.0097618  11.0771551  67.9777832  58.9553413  10.9844894
  67.8736572  57.8584251  12.0222368  22.5643539  11.1737700  80.1261520
  21.9026585  11.4740181  80.7492447  22.6179333  10.2290125  80.2703552
  14.2056789   5.6079774  20.0544815  14.5287352   6.3224883  20.6034260
  14.3031473   5.9311891  19.1587887  52.8773689  56.5774078  24.6016197
  53.6698341  56.1874390  24.2326241  52.5390625  55.9114532  25.2001877
   3.5792713  10.2458248  41.6553841   4.2469454  10.4858513  42.2979050
   4.0739827  10.0323858  40.8642235  36.4425545  68.7940674  42.7352142
  36.9549141  69.5208130  42.3808708  35.6663017  69.2091751  43.1111717
   2.0644605  13.5148973  21.1532536   2.2363181  12.5894833  21.3273411
   2.9305823  13.8966694  21.0107231  68.7832794  41.2072563  59.4500809
  69.7385941  41.1926422  59.5084114  68.4869461  41.1494102  60.3584137
  57.8275070  43.0741119  69.2483902  57.2849197  43.1450462  68.4630280
  58.7237816  43.1847610  68.9310837  49.3045540  35.7559471  15.0057898
  50.0559349  35.5841026  14.4382277  48.5811806  35.9228210  14.4015446
  49.8404732  59.9809570  25.3849525  50.7268524  60.3016510  25.5514469
  49.9156914  59.0284386  25.4422169  22.3637714  36.7649536  37.7143517
  23.0011082  36.4542999  38.3574142  21.8538628  35.9872818  37.4875259
  33.7241325  17.8962479   8.5258131  33.6678886  18.0872955   7.5895605
  33.9205399  16.9603615   8.5679131  85.5355377  40.9741707  18.4374466
  84.6803589  41.1048660  18.0278015  85.7856140  40.0837059  18.1909370
  53.8124352  69.7895203  78.5132980  54.3441925  69.0231857  78.7282410
  53.3519478  69.5440750  77.7108383  59.8728790  22.3750648  14.2910318
  60.4931068  22.2165489  13.5793982  60.0017357  23.2953758  14.5205011
  57.1521225   0.3038713  54.2826118  56.7775879   1.1180499  53.9463539
  57.3987465  -0.1877961  53.4992409  68.9753418  18.7266941  44.6808128
  69.6456757  19.3690815  44.4479485  68.1478348  19.1513557  44.4547157
  71.3316116  32.9172249  26.2300758  70.4830780  33.3002129  26.4526558
  71.7340775  32.7189026  27.0756073  13.9512520   8.5394993  69.5230942
  13.1698427   8.4552727  68.9767075  13.7653236   9.2852497  70.0936356
  20.8732052  47.6964607  76.4944382  20.0973568  47.6155548  75.9396896
  20.8014984  46.9702682  77.1138992  23.8699131  21.6846828  74.4422531
  23.5218067  21.8153973  75.3242798  24.6700096  22.2096558  74.4202957
  39.3063774  54.9999695  83.6385422  38.5446739  54.6897583  84.1282425
  39.9361954  55.2561302  84.3122864  48.4007492  12.5990353   0.8289635
  48.3486824  12.1342754   1.6641396  48.7891922  11.9652090   0.2259631
  31.7128849  41.0103340  59.0271950  32.4083023  40.6795006  59.5956841
  32.1749268  41.3919296  58.2807808  34.2435684  68.9375610  14.1538754
  34.6524696  69.8026733  14.1292315  34.2895584  68.6250763  13.2502861
  25.9975624  56.5706253  62.2426186  25.1011868  56.7499390  62.5264969
  26.3389969  57.4236603  61.9743080  72.3304138  57.9178162  35.1428757
  73.2568207  58.1520348  35.1989479  72.2925415  57.0139275  35.4555779
  60.0280380  69.0780258  13.4393396  60.9554520  69.2937698  13.5372734
  59.5720749  69.7387848  13.9606142  44.8544083  42.9439049  62.1474533
  44.4333534  43.1060715  62.9916382  45.7661247  43.2031822  62.2808075
   7.8243413  43.4480324  12.7450266   6.9414673  43.0999298  12.6201677
   7.7244687  44.3949776  12.6473141  13.9002438  69.5380554   2.5307589
  14.1341162  70.4075699   2.8555377  14.0291729  69.5933838   1.5838966
  28.5862846  26.8523865  62.9200706  28.6801319  27.3974724  62.1388512
  29.4801540  26.7427845  63.2444420  34.8713188   0.7332663  51.9214363
  34.5022392   0.4169056  52.7460136  34.9687881  -0.0535779  51.3851471
  52.6047516  46.3554344  19.4296837  52.3769073  45.8886299  18.6256866
  53.2286263  47.0250397  19.1492577  39.9650154  26.3080349  64.6942215
  39.9628792  25.3777103  64.4690018  39.9349785  26.7588253  63.8503532
   3.8469393  17.1260719  71.3858414   4.7206602  16.8569126  71.6693878
   3.5901322  16.4659615  70.7419968  62.8649330   6.3958282  32.5939407
  63.4205170   5.8759813  32.0131531  62.2911415   5.7547989  33.0135574
   0.5403019  29.2930126  11.2270403  -0.1223932  28.6278286  11.0410423
   0.2125718  29.7471085  12.0033274   9.4548426  61.2885094  73.1574402
   9.9745216  60.4900436  73.0645905   9.9764347  61.8482208  73.7326736
  70.9389038  55.2901688  64.3774490  71.2546310  54.4005051  64.2191849
  71.7270203  55.7894897  64.5914154  39.4106522  15.5366049  70.0573120
  39.3965988  16.3465233  69.5473480  39.8769073  14.9118748  69.5018387
  10.8682032  29.7822952   9.5780764  10.4015617  29.3311806  10.2816191
  11.7425737  29.3928242   9.5824261  65.7172546   7.6826715  68.2380600
  65.5344086   7.5899096  69.1730423  66.6141052   8.0151329  68.2012329
   7.0263476  65.4924927  42.2040024   6.3881078  64.9359970  42.6503105
   7.0887375  65.1256256  41.3221016  68.8348770  55.0606651  73.9699860
  69.5252228  54.5487633  74.3914337  68.1613464  55.1547852  74.6435776
  64.6783829   3.3490334  79.2582245  64.3728104   3.4306993  80.1616516
  64.8250351   2.4106932  79.1388779  54.0512466  44.0177956   2.0800066
  54.1841125  44.8549614   2.5246727  53.1482048  44.0547104   1.7647541
  41.7053070  49.7998772  37.6153107  42.6417999  49.9961014  37.5887032
  41.6109200  49.0098190  37.0832100  40.3015099  46.6761360  76.8263931
  39.9615211  45.7823219  76.7847290  39.8203087  47.1473770  76.1462402
  26.9043007  54.9175720  34.2813148  26.9365292  54.2852745  33.5634079
  27.8011894  55.2441292  34.3533058  15.3765173  34.3875732  49.0036659
  16.1693077  33.9770851  48.6583939  14.7845039  33.6559296  49.1781654
  57.1935463  17.5093803  58.2283859  56.8535004  18.3465328  58.5442619
  57.2935028  17.6323147  57.2843895  86.6865005  58.9587212  65.5667496
  86.4975433  59.0501595  66.5006485  86.5856476  59.8429298  65.2142792
  80.0081558  33.7641220  65.4778900  79.3022537  34.2180672  65.0176010
  80.0033112  32.8798904  65.1113663  45.5706329  65.4921265  42.7983627
  45.1841202  66.0024033  43.5100250  46.4280853  65.8926086  42.6547546
  52.0179558  10.9101095  86.7901611  51.7535515  11.4582863  86.0513687
  52.6839943  10.3255329  86.4283676  40.9934654   3.7475128  61.2360039
  40.8375092   2.8078699  61.1412315  41.9393234   3.8455479  61.1265869
  45.9567719  35.4802170   5.1837111  45.3214378  35.8376503   4.5633712
  46.5619316  34.9739342   4.6417789  16.9412708  36.4680099  17.3548794
  16.3917580  37.1006279  16.8922119  16.3199825  35.8852921  17.7915421
  75.1923752  23.6198483  51.4988861  74.8127441  23.3060722  52.3196564
  75.9814377  24.0918674  51.7649803  50.6558647  54.5335197  45.0753860
  50.9471512  53.6672974  44.7907028  50.6357880  55.0551262  44.2730408
  23.8494701  70.3710022  39.7270241  24.5356369  70.7925339  39.2096062
  23.0318699  70.7050018  39.3579636   8.4375706  11.0870037  67.9972534
   8.7384310  10.3170395  67.5146866   7.4849520  11.0701981  67.9052353
  75.8355865  65.6506271  47.5269623  76.7319641  65.5802307  47.1986504
  75.3315659  65.9733429  46.7799416  84.0638123  63.7744789  44.8129730
  84.6073380  63.6418533  44.0362968  84.3825150  63.1269417  45.4417534
  80.5297165  23.5318699  52.5505028  81.2345276  23.4348354  53.1908607
  80.2860794  24.4561825  52.6007042  38.4264030  48.5854530  41.1570587
  37.9251442  49.2920265  41.5641556  38.5653458  47.9532661  41.8622322
  71.1990509  38.2418823  41.3614616  70.5764694  38.9249191  41.1123047
  70.7299652  37.7145195  42.0080490  47.7841759  10.4214611  11.8637962
  47.2999191  10.4487038  11.0385780  47.2754097  10.9727087  12.4583673
   7.2559924  58.7864914  65.4652481   7.1751337  59.1527519  66.3459015
   8.1210051  59.0679283  65.1672897  42.1643143  45.7726364  18.2985497
  41.6099701  46.1448402  18.9844055  43.0572586  45.8875771  18.6236267
  30.9629555  60.9110184  24.0648003  30.2966747  61.4553795  24.4842968
  31.1647205  60.2368202  24.7136269  41.7733498  38.3772316  67.0904160
  42.4389038  37.6910057  67.0418472  42.2016296  39.0935173  67.5591888
   0.2701905  16.5579758   7.9696617   0.5106922  15.7494802   8.4221277
   1.0193094  16.7483959   7.4050441  49.2573318  43.4588470  25.3324852
  50.0697365  43.9560165  25.4276333  49.0827484  43.4631081  24.3913498
  72.2607498  54.8188210  56.1808205  71.5025024  54.2603226  56.3521881
  71.8993149  55.5814285  55.7291298  75.7660065  22.6067829  38.4039841
  75.9007797  21.6870632  38.1755409  75.9788971  22.6557713  39.3359222
  30.6814842  27.1931419  76.5713043  30.7911625  27.0130024  77.5049820
  30.7577324  26.3363037  76.1514893  46.6315079  69.6266098  62.9629326
  45.9726906  70.2454300  63.2779732  46.2711449  68.7652206  63.1735992
  66.3635406  46.2121964  70.4332047  67.1355591  46.3686409  69.8893890
  66.4995422  45.3369446  70.7960663  32.3269691  69.3790970  18.8947525
  33.2141991  69.4716034  19.2418804  32.4243240  69.5075912  17.9512272
  35.3100166   9.7208548  75.0197067  34.3992233   9.4597273  75.1557159
  35.2837486  10.2897091  74.2503281  36.5449982  25.7063217   1.1685399
  36.2599182  25.2636681   1.9679272  36.1786804  25.1786308   0.4589031
  33.8795433  66.2740173  38.3766785  33.7671242  65.4927826  37.8351364
  34.0507545  65.9340439  39.2549362   8.5181389  62.4035072  16.0612965
   9.3932543  62.6251717  15.7430677   8.3684196  63.0061302  16.7897625
  40.9546928   3.6068449   6.8571920  40.9371834   4.4805899   6.4666872
  40.7784271   3.0143077   6.1263971  31.8064785  43.6843758  80.0794296
  32.2596512  44.4303436  80.4723663  31.2975636  44.0636368  79.3629074
  52.1359863  11.0793066  50.6322021  52.0505295  10.1310434  50.7308197
  51.5194740  11.3041658  49.9353638  43.3881416  40.4139862  15.7366648
  42.8235130  39.8417511  16.2562542  43.6231117  41.1245956  16.3333721
  84.1040649  30.9271069  43.3126793  85.0482178  31.0844269  43.3196602
  83.7154007  31.8017311  43.3270340  29.8051319  15.3341761  87.6679688
  30.4704514  14.6625376  87.8179245  30.2807941  16.0542603  87.2538986
  10.3319588  42.6825981  67.1441650  11.0821810  42.1787186  66.8287277
   9.9682245  42.1522026  67.8531189   5.4925046  19.9984074  73.8941879
   5.0668726  19.7670250  73.0686417   5.7673626  19.1599312  74.2651901
  58.0237007   7.4271989  83.2455139  58.5271835   6.8637829  83.8331375
  57.3023033   6.8750043  82.9440155  44.9135551   8.6207848   3.9702892
  45.2487373   9.1644411   4.6832571  44.3121758   9.1937294   3.4945688
  13.2190495  68.9320145  87.0378418  13.7833147  69.3132401  86.3651581
  12.7369766  68.2414474  86.5829163   1.7632601  34.1481857  83.8006363
   1.1032166  33.5351105  84.1242294   1.4714831  34.3694725  82.9162521
  40.6415100  55.8789597   6.2543712  40.6544266  55.2100296   6.9389129
  41.5511513  56.1688919   6.1856136  64.3998642  34.8108177  71.3877716
  64.2410507  34.0151405  71.8956146  63.9525223  35.5008774  71.8776016
  70.8463287  43.8895187  72.5307541  71.3138428  44.7246552  72.5452881
  71.3921661  43.3003731  73.0515213  44.5096169  47.5694351   3.8557127
  45.3812790  47.1940193   3.9802144  44.5697098  48.0448456   3.0270970
   8.6885290  44.6164169  68.1136398   9.5084772  44.2245140  67.8130875
   8.3545752  45.0879440  67.3505096  79.8024979   5.9080949  54.6756935
  79.6808243   5.1710901  55.2742310  79.8981171   6.6687956  55.2487755
  75.4323807  22.2087727  47.8265762  76.0144348  21.5261841  48.1605225
  74.5741196  21.7880001  47.7759171  35.6103745  36.7374191  59.8881607
  36.4092484  36.6548042  59.3673820  35.8937836  37.1676788  60.6948738
  43.5251312  67.7565079  42.3329124  43.4602394  67.1117706  43.0374260
  43.2198181  67.2915878  41.5538979  67.7915421  55.1254921  78.5511703
  67.6426239  56.0374908  78.8008041  67.1083832  54.6368866  79.0102844
  40.6619759  69.8937225  85.6571426  41.2863350  69.8971481  84.9316101
  41.0312500  69.2757492  86.2879944  61.4532280  36.9472771  10.0160780
  62.0704689  37.2688637   9.3589382  61.4404602  35.9986725   9.8887396
  49.4379807  19.1446056  22.2140255  49.2405014  20.0137672  22.5630131
  48.6973763  18.9420700  21.6424332  85.4038467  70.7414932  76.6846695
  86.0821457  70.1790085  76.3108368  85.6499023  71.6259308  76.4136353
  64.9240723  20.8594646   7.9773674  64.1796417  21.2253132   8.4550724
  64.5725021  20.6460190   7.1130357   4.8669944  37.2039909   2.5273960
   4.8862524  36.7088318   3.3463447   4.8906455  36.5355034   1.8427080
  34.9054070  53.2151108  63.5926704  35.4117508  53.6519279  62.9078064
  34.2708511  53.8726463  63.8776588  21.9584560  56.8903923  71.8455582
  22.2113991  55.9695816  71.7795410  22.1270313  57.2481651  70.9738846
   9.5865259  68.2518692  34.5626526   9.6690435  67.3315277  34.8124161
   9.4734840  68.2329407  33.6123390  16.5524998   4.4540811  63.1086121
  16.6963692   4.1119332  63.9909210  16.7739468   5.3830895  63.1729202
  80.4880219  32.1005554  79.0062637  80.4298935  31.2104721  78.6589813
  81.1884460  32.5104294  78.4986877  14.9071035  32.1620216  17.3993263
  13.9682131  32.0329247  17.5336781  15.3049278  31.9127483  18.2334900
  11.9741154  70.2214737  14.8221083  11.5414991  70.4587326  15.6423416
  12.4077177  71.0263214  14.5384865  60.0442619  28.1538963  13.3996124
  59.2966919  28.7112904  13.1835613  59.8518448  27.8248482  14.2776413
  68.1476364  25.1076908  48.0998459  68.5685806  24.5102043  48.7179527
  68.7451324  25.8533344  48.0428085  59.4997368  44.6571960  17.5116425
  60.3594513  45.0063057  17.2766018  58.9775887  44.7498360  16.7147675
  32.1578255   0.9991767   4.3061261  33.0920219   0.8785254   4.1359887
  32.0360527   1.9485829   4.3117437  18.7871971  56.5107727  43.0231628
  18.9556293  55.6291924  43.3558464  19.4575500  57.0548744  43.4364586
  61.5375710  39.4754143  30.9150829  60.6326294  39.5176544  30.6060028
  61.8982277  40.3401299  30.7190590  81.7113571  11.8192177  49.9142647
  81.6215973  12.5431204  50.5340538  81.4100876  12.1793327  49.0801277
  83.7830276  39.7602425  44.2249069  84.3224564  39.9044647  43.4474373
  82.9297256  39.4983940  43.8791733  79.2325363  14.2658176  12.9370718
  78.8445511  14.9918537  13.4255066  78.5895615  14.0636930  12.2573948
  47.2953186  37.7179031  66.3703766  47.0622253  36.8071327  66.5503616
  48.0536041  37.8861084  66.9297943   6.6834712  36.6848755  28.3713150
   6.9383693  37.6030235  28.4622269   5.7601051  36.7163048  28.1210365
  48.7569885  37.4978638  49.4790802  47.9023132  37.4448013  49.9068031
  48.5655556  37.8290672  48.6016464  62.8722801  46.8659325  74.5651932
  63.2979317  46.0126152  74.6482468  63.5794601  47.4637718  74.3228760
  60.0227814   7.5448141  46.5299988  60.5920486   6.8325582  46.2386971
  60.6247139   8.2475567  46.7750702  44.6287727   3.2308829  64.3272552
  45.4249573   3.5434961  64.7568970  44.3684692   2.4624350  64.8351517
   4.8087645  21.5239258  40.2415199   5.5803032  21.8527565  39.7801857
   4.1816697  22.2461548  40.2045059  61.0705070  41.4571762  56.5635071
  61.0854149  40.7130661  55.9615822  61.5727997  42.1377640  56.1154709
  85.0932770  70.6265488  59.1665115  84.9245529  69.8031387  59.6245041
  84.9917679  71.2999268  59.8391838  59.2391853  59.8552513   5.8116193
  59.7333870  60.4222374   5.2195697  59.4521713  58.9668732   5.5258703
  83.3903351  51.7129898  13.3669729  83.9509354  52.3747940  13.7719135
  82.9581757  51.2816048  14.1041145  52.4306335  29.3624287  73.8756180
  52.7675171  30.2491817  74.0037231  52.8034134  28.8578262  74.5985565
  79.5211258  46.9640923  18.1196423  79.0614853  47.3383026  17.3680248
  78.8382950  46.5168381  18.6195717  64.1122589  33.0130424   4.8187380
  64.1742706  33.1990509   3.8818350  64.5264130  33.7660103   5.2403412
  28.3995094  16.2214890  71.8482361  29.1580963  16.1216602  72.4234009
  28.0401726  17.0798550  72.0725479  52.1117744  62.2566414   0.4753647
  51.2602005  62.6923561   0.4406054  51.9371834  61.4242783   0.9145948
  75.7915192  58.5737724  70.9675140  75.7282333  57.7243309  70.5308456
  75.2545166  58.4792519  71.7542343  52.9480515  12.5931997  18.0937023
  53.7291832  13.0855932  18.3459244  52.9651794  11.8150368  18.6508389
  85.6693954  47.8996086  27.0052872  84.9646530  47.7029572  27.6224518
  86.2030869  47.1051407  26.9900894  59.7916412  57.7666130  86.8149872
  60.6377487  57.4045677  86.5518188  59.1832085  57.0313263  86.7415237
  51.7498055  29.5944290   1.2265213  51.2674828  28.9455452   0.7141283
  52.6117592  29.6342392   0.8121706  48.1236458  68.1745758  61.1225052
  47.3343620  68.5971756  61.4611359  48.8443909  68.6270905  61.5606651
  49.7478371  39.3484116  30.8676739  50.4477692  39.9909172  30.9839249
  48.9754601  39.8717270  30.6536484  35.9636841  39.7842636  58.5209579
  36.1012993  39.8964424  57.5803680  36.7862854  39.4138374  58.8408699
  15.3585644  55.1835938  26.4650879  15.1946859  55.7233887  27.2383919
  16.3041306  55.0349998  26.4727268  60.2738991  19.1022511  34.2951279
  59.9132843  19.1521759  33.4098625  59.9794655  19.9081421  34.7194862
   6.1946516  31.1577644  58.8169327   7.0228834  31.5975075  58.6248627
   6.1631608  31.1131248  59.7725716  68.9688034  67.3489456  16.8971958
  69.5591812  68.0595169  17.1477604  69.1253967  66.6661758  17.5495224
  64.0014191  26.7316685   2.9229565  64.4855194  26.3939762   2.1694021
  64.4220505  27.5679874   3.1226370  70.2371140  33.0376167  83.0306473
  70.7315903  32.4685631  82.4408112  70.5052490  32.7641907  83.9078979
  65.5325241  68.9037857  64.9072571  65.1980133  69.1560745  65.7678833
  65.0490189  68.1077881  64.6862717  66.0421753  31.7290077  41.7938881
  65.6652832  32.3819618  42.3836632  65.2897491  31.2281799  41.4788170
  84.4430695   4.9857121  58.4066582  84.3440933   4.9036956  57.4581299
  84.4910889   5.9290376  58.5617828  64.2078018  67.8489151  54.3536377
  64.7326965  67.9944611  55.1407394  63.4629631  67.3288345  54.6552505
  22.0901318  66.9135590  85.6304779  21.6752605  66.3047943  86.2416382
  22.4656639  67.5945358  86.1885834  76.7998886  37.1346397  71.2038651
  77.0324860  36.5063057  70.5202484  76.0689087  37.6303711  70.8348770
  65.5597000  68.6818542  31.3473091  66.2602692  68.5326767  31.9822750
  65.9309158  68.4013824  30.5107880  68.7344894  43.6637840   5.9815879
  67.8234863  43.6975670   6.2734208  69.0842438  44.5306931   6.1874461
  72.3695068  48.1494026  21.0180874  72.4794235  48.5879593  20.1743927
  72.8670959  48.6870918  21.6341419  76.8929138  54.2464600   4.3793349
  77.1409607  54.3309860   3.4587054  76.7579422  55.1469040   4.6746650
  23.6041679  46.1997147   9.0068254  24.1703606  46.8071747   8.5307465
  23.0742397  45.7834549   8.3270197  41.5766487  16.1071815  78.2814331
  41.9984169  16.7534008  78.8477783  40.9188004  16.6061554  77.7971878
  80.2383270  43.7990112   5.2434487  80.2343445  44.4960327   5.8994794
  81.1018295  43.8595695   4.8348823  29.2674122  67.2984390  35.5400009
  30.0476933  67.2833099  34.9857750  28.5370464  67.3547211  34.9238586
  15.3208981  63.3430061  49.2491608  15.8725233  64.0269012  48.8693886
  15.0986080  62.7767029  48.5101624  14.0409718  27.3391571  82.3725815
  14.4817486  27.1736298  81.5391846  13.9042215  28.2864265  82.3872070
   0.8924304  20.4232883  36.8918724   0.7262657  19.4856110  36.7950058
   0.7119652  20.7892170  36.0259857   0.4923332   4.0296822  26.6992455
   0.4226293   4.9603329  26.4864941  -0.2611240   3.8558850  27.2634506
  44.7630463  23.1847305  13.2435989  45.1145325  23.1300716  14.1322508
  44.5079384  22.2869129  13.0312920  84.5188065  17.6266460  75.8329620
  84.1251678  18.4987354  75.8057251  85.3529816  17.7543926  76.2846909
  85.4383850  11.9679861  66.0930786  85.6779785  11.0715933  65.8579025
  84.5311890  12.0578260  65.8012772  37.9916611  28.4751129  68.4570465
  38.9331627  28.3343925  68.3570175  37.6215096  28.2306690  67.6088333
  10.6859217  31.7907867  72.7134171  11.4662066  32.3248138  72.8624268
  10.9448051  30.9087486  72.9802856   0.8108026  56.4244080  13.0008135
   0.1368449  57.0450478  13.2779741   0.8713021  56.5439606  12.0530376
   6.5523300  28.9154835  41.4514999   6.9943671  28.5430641  42.2144814
   7.2227697  28.9274101  40.7684174  18.9037323  53.5224686  14.5344667
  18.5135975  54.1638222  15.1283464  19.5375671  53.0504570  15.0745516
  23.6073780  19.0258179  82.4313431  23.8743324  19.4272957  83.2582550
  24.2996674  18.3938656  82.2374268  20.7890835   1.3193175  50.5514641
  20.6792507   0.8415689  51.3736115  20.6923161   2.2400253  50.7947044
  55.1110382  36.1816978  74.4525528  55.9287758  36.2653389  74.9430008
  55.3791771  35.8548775  73.5937576  19.2949829  35.3608398   1.3052351
  18.5010281  35.6776390   0.8745338  19.9904976  35.5092049   0.6645494
  16.9271145  21.0503769  71.4706268  16.9227219  21.5406151  70.6485062
  17.8219376  21.1403828  71.7983856  70.9460907   1.1224761  45.0270195
  71.0586929   2.0065465  44.6777725  70.7145691   1.2557509  45.9461861
  80.7495041  11.5011692  35.6729012  80.3358917  11.4183073  36.5321388
  81.4681168  12.1181116  35.8114929  16.0592251  50.1582565  75.5441513
  15.4870615  49.7869911  76.2157288  16.8486557  50.4181366  76.0190125
  73.9142914  13.2415781   3.0243785  74.4069901  12.6499929   2.4556050
  73.7103195  12.7157011   3.7977352  23.3961086   2.4107265  65.0605698
  23.2108173   2.0078719  64.2122726  22.5703392   2.8220072  65.3158798
  68.9104309  24.4160633  81.1484985  68.7659988  23.8056831  80.4254456
  68.4403534  24.0283966  81.8867264  32.2010307  52.9089432  77.7303238
  31.6034451  53.2576256  77.0688477  31.8490295  52.0435638  77.9387512
  24.7493782  65.9466400   5.9078898  24.0323067  66.5687943   6.0302396
  25.4627037  66.4716797   5.5449376  37.4742126  24.9945164  57.2477417
  38.2900848  25.4519615  57.0444374  37.5393600  24.7919140  58.1809845
  79.4759674  26.6568394  85.6706696  79.4717636  25.7385483  85.9407730
  78.8529968  26.6958961  84.9449768  59.8062935  70.2031555  21.9372578
  59.8400459  70.5518646  22.8280392  60.5543633  70.6040192  21.4946156
   0.5801462   7.5406847  81.7264786   1.2982016   6.9581156  81.4790039
   1.0091196   8.3641768  81.9590149  22.7954063  46.7139244  29.7972527
  23.6894989  46.3877678  29.8994923  22.6403160  47.2380142  30.5830688
  22.5074444  67.0459137  55.2610092  23.2433777  66.5536575  55.6247597
  22.1865578  67.5727615  55.9929237  58.2578735   6.4726124  31.0014057
  58.6775436   6.5870457  30.1487541  58.8937302   5.9761572  31.5166225
   2.0716596  16.8197727   5.6264014   2.8892453  17.2449780   5.3675833
   1.3856893  17.4118309   5.3179464  53.7445946  34.5472565  65.0507355
  53.0976295  34.9787025  64.4925919  54.5703163  34.9841537  64.8420868
   0.2900324  12.9725361   1.9363306  -0.0847884  13.7451115   1.5134031
   0.7273313  13.3147573   2.7160010  79.8350906  14.3853531  74.0909958
  79.8450089  14.6814184  73.1807861  79.1027985  14.8567200  74.4882202
  24.4186115   3.4472406  87.3269424  24.2109108   2.7509887  86.7037888
  25.3677711   3.3935263  87.4384995  33.9505920  54.2435532  57.1694679
  34.7284660  54.1742477  56.6159859  34.2821808  54.1453209  58.0620079
  69.8383713  34.4354362   9.0974236  70.4607773  35.1620941   9.1258898
  70.3618164  33.6823311   8.8234243  63.2480965  53.0843506  42.9499321
  62.6874046  52.3267059  42.7831154  62.9885216  53.3874817  43.8199730
   6.7256050  69.0779037  68.3263092   7.6646414  69.1889572  68.1776123
   6.3153305  69.7437744  67.7744675  36.7333450   0.7009155  53.9879799
  36.8354950   0.5669353  53.0457230  35.8264999   0.9890886  54.0920029
  64.4236679   5.9302478  85.4868927  65.0370102   5.8946772  86.2209091
  63.5593567   5.9501877  85.8977432  64.1904144  48.6062393  35.1922417
  63.6123962  48.2622986  35.8732910  63.6143875  49.1201172  34.6262436
  78.8732376  28.9636517  31.9134827  79.4110413  29.6670876  32.2770462
  78.5048676  28.5234642  32.6794930   1.8334258  61.0191383  71.4528503
   1.4089755  61.8577652  71.6338882   1.9176896  60.6031990  72.3108292
  69.9668427  32.9164848  51.7208862  69.4683456  32.4961014  51.0201645
  69.3488693  33.5285873  52.1204720  30.1242542  59.3804054  56.4131660
  30.0044136  60.0722809  55.7626457  30.7536335  58.7810020  56.0121346
   1.1406776  60.8155518  16.9470119   1.0872577  60.0871239  16.3283253
   0.2631941  61.1979637  16.9430943  37.0168648  33.4686737  72.1050491
  36.5970535  33.2082710  71.2851868  37.4345245  32.6689606  72.4248199
  12.9430265  48.3897362  57.3714561  12.1535492  48.1251640  57.8436394
  12.6460543  48.5409889  56.4741478  69.1994247  14.5944099  29.3927593
  68.4184494  14.5311794  28.8429317  69.4042892  13.6881704  29.6229630
  63.7800827  13.0382881  69.7043152  64.2349930  12.9400291  68.8678741
  62.9893761  13.5334349  69.4902039  37.9539604  11.6507406  74.9675827
  38.3907127  10.9117174  75.3910446  38.4305763  11.7720890  74.1464005
  62.5594864  27.2412949  65.4054260  61.7285538  27.6632156  65.6239853
  63.0410995  27.2180805  66.2323151  61.8256683  28.5123997  62.0132332
  62.2547531  29.0387535  62.6878242  61.0566788  28.1451015  62.4491005
  50.8407021  64.0493393  26.1970768  50.4230156  63.6434860  26.9567165
  50.9493446  64.9673386  26.4454689  84.9445190  10.7864590  44.6899796
  84.4290237  11.5910397  44.7460670  85.1268082  10.6834192  43.7559624
  77.8739471  22.7347832   4.8666496  78.0101089  23.2131672   4.0488229
  78.4543839  21.9765682   4.8001056  34.0850296  71.4428101  32.3997917
  34.0609627  72.3799286  32.5933266  34.4834366  71.0481873  33.1755371
  65.3091354  48.9602661  16.2736015  66.2218170  49.0967789  16.5277939
  65.2423782  49.3502007  15.4019785  32.9610939   8.8554115  28.6375237
  32.7835846   9.4760332  27.9307346  32.6120605   9.2791634  29.4216423
  48.8251343  24.3183308  68.9439774  49.4588051  24.0809822  69.6209946
  49.3492355  24.4157658  68.1489563  37.4123650  19.5264359  75.5231171
  37.3814316  19.4851189  74.5673065  38.2908440  19.2198067  75.7478027
  33.3832932  69.1339722  48.6008110  32.9243355  69.3722763  47.7953300
  33.0552864  68.2603226  48.8138618  80.7005081   1.3072509  16.5848999
  80.4590683   2.2104092  16.7904301  80.1260223   1.0651202  15.8585606
  25.2082596  50.6301460  37.4903221  25.7262497  49.8265114  37.5360680
  24.8039341  50.6054497  36.6230621  74.9267731  68.3360748  25.3950520
  75.8719101  68.4390335  25.5061359  74.7114792  67.5478363  25.8936081
  40.2406120  64.9493713  11.6972618  39.8021469  64.5264969  12.4356098
  39.5304108  65.1871185  11.1011715  53.6318893   9.2035141  85.4661102
  53.4555016   8.2707787  85.3431320  53.7149582   9.5507021  84.5779724
  64.5532150  38.2818184   9.5936422  64.5284805  38.6010017   8.6915655
  64.8623199  37.3789139   9.5198374  42.3763084   3.2876329  71.5406799
  42.0575066   4.1460648  71.8194122  41.5864067   2.7527533  71.4620209
  68.3415222  57.8900070   3.8143642  67.7393799  58.6050148   4.0203257
  68.1693954  57.6894150   2.8943820   7.7258229  67.3628006  19.6815166
   8.2228642  66.6432724  20.0706978   6.8475771  67.0047760  19.5521564
  37.6829872  61.8628120  72.5302658  37.4763260  60.9285316  72.5555420
  38.1662712  61.9791718  71.7122650  20.1839180  51.1850815   7.9343138
  20.2424297  52.1303864   7.7957311  21.0015907  50.9567680   8.3764839
  58.4897804  60.8205948  88.4324799  59.0205841  61.4061623  88.9724731
  58.6357918  61.1232491  87.5362015   1.1780057  31.1698895  57.7194786
   0.6807775  31.4520245  58.4871979   0.8854702  31.7513924  57.0176888
   3.2619185   3.7691944  67.4893723   2.4284427   3.3228214  67.6387100
   3.6842711   3.7815230  68.3482666   5.2529731  47.9396973  87.1430359
   5.4491181  48.3699951  87.9752655   4.5820961  48.4911880  86.7405319
  52.5939484  39.4333954  76.6307297  52.7868996  40.1466599  76.0222473
  52.5412140  38.6541519  76.0773544  47.7078133  28.6777573   6.8626981
  47.6080055  28.7398376   7.8126540  47.5462189  27.7553139   6.6646652
  64.8178558  19.1885738  57.5413780  64.6501465  19.7431297  58.3033333
  64.1525497  19.4491310  56.9044266  81.4193497  51.9889565  42.0606613
  80.8775864  51.7062035  42.7973976  81.6837311  51.1751862  41.6315727
  78.3277435   8.9430313  11.6198139  77.5830383   8.4045906  11.3519878
  77.9480057   9.6088362  12.1931658  82.3243866  41.2223244  87.9483032
  82.4149475  41.2617264  86.9962082  82.3135376  42.1382980  88.2259750
  42.7282066  32.2016525  58.6847191  42.8446236  32.3076553  59.6288834
  42.8325043  31.2620811  58.5345230  16.8770256  54.3800430  77.9649353
  17.0969219  55.0636940  78.5977783  16.2238903  54.7838097  77.3934326
  22.6505756  66.2036743  75.2742310  22.5486717  66.8218613  75.9978943
  22.2310352  65.4010239  75.5840073  81.9317856  28.7698708  12.9108381
  81.3961945  29.1936245  13.5815115  82.4426651  28.1170540  13.3894520
  61.9138031  44.2179222  62.9881287  61.1706963  44.8211937  62.9787979
  62.4467010  44.4827194  62.2383728  55.7437172   7.7599111  11.7158442
  55.0261040   7.5269289  12.3048964  55.4599991   8.5759563  11.3037682
  64.7121124  49.9630089  88.4443665  65.3790207  50.3455467  87.8741684
  65.1259460  49.1784286  88.8041000  52.3829002  23.4962082  11.2080116
  52.5176201  24.3999062  10.9226789  52.4415092  22.9799538  10.4040985
  58.2387314   3.7914772  86.0264359  58.9861832   3.2811313  86.3380280
  57.7587624   3.1900971  85.4570465  44.0516434  11.6236582  58.7634354
  44.2385025  10.7325420  58.4680862  43.8327751  11.5278301  59.6903343
  48.7517204  31.4946213  79.5485382  48.9369011  32.4294739  79.4591370
  49.5567894  31.0626144  79.2631149  31.3486633  66.8699341  33.6157722
  31.3721066  65.9160919  33.5392189  31.8650227  67.1826019  32.8729095
  32.7466965  68.3093643  35.7860909  33.5665092  67.8568802  35.5876160
  32.0708733  67.7739105  35.3704185  60.4363937  42.1982193  31.0969181
  60.0244598  41.3848648  30.8053665  61.0992851  42.3828621  30.4315529
  80.0398712  70.2816772  10.7736435  80.5762711  70.8538666  11.3223772
  80.6492538  69.6163330  10.4539585  54.0689926  23.7075844  54.0728951
  53.5933113  23.4826488  54.8725014  54.7635117  24.2977791  54.3653717
   8.1396170  66.5607147  55.8309135   8.1223421  67.4426270  55.4592209
   8.5023222  66.6779175  56.7089462  42.7586441  26.2371864  16.1077213
  42.2344437  26.9510078  16.4709167  43.6448288  26.5947895  16.0526867
  59.5513649  14.8037214  49.0524292  59.7759705  14.9741507  48.1376953
  60.2446632  15.2334251  49.5533524  42.5628433  24.9438820  82.0198975
  43.4095840  25.2877808  81.7352905  42.0177879  25.7210655  82.1429214
  59.4974556  53.4839363  47.9284058  59.4820251  52.5268707  47.9240456
  58.5746880  53.7383423  47.9318123  14.5595760  55.6453476  39.9451904
  13.9830666  56.2724533  39.5086021  14.1527691  55.5005074  40.7994499
  82.8372421  33.1200562  14.0355291  82.4482040  33.5114326  14.8176441
  82.3830490  33.5411835  13.3057394  44.2473717  70.0947800   1.4064575
  44.1637383  70.5600204   0.5741175  43.5013466  70.3958511   1.9251432
  80.9420242  18.5154858  34.4198341  80.1857071  18.0333252  34.7541046
  80.6221313  18.9413929  33.6245308  29.9152775  67.7966919  26.0086403
  30.5486126  68.4860916  26.2082500  29.6187782  67.9937897  25.1201191
  77.3233109  39.1010017  83.0022888  76.5870361  38.7429428  82.5063705
  77.5380630  39.9194603  82.5548019  67.4612198  43.6258965  41.9757156
  68.3808517  43.6316833  41.7102547  66.9766312  43.7751083  41.1638374
  83.8931503   9.4005823  55.3949547  84.8292618   9.5542669  55.2672615
  83.7095718   8.6079865  54.8906479  45.1974907  40.4019775  55.1481323
  44.9674988  40.5694809  56.0620689  44.5323067  40.8706055  54.6440010
  48.2433777   6.7320576  21.3098984  48.1249428   6.5072880  22.2327652
  49.1917763   6.7221603  21.1807785  13.9056807  35.2176476  87.6532669
  13.9549141  36.1706886  87.7275543  13.0295496  34.9976730  87.9698639
  21.2163792  14.3788929   0.4446605  20.7457123  14.5894022   1.2511280
  21.2339687  13.4221630   0.4203801  72.0699310  15.6045437  25.7320480
  71.5615692  16.2379341  26.2386227  71.4671402  15.3020201  25.0528183
  71.2719345  31.2071247  18.1490250  71.9826889  31.8282433  18.3080006
  71.5676041  30.3945827  18.5596199  23.7311611  57.3035316  87.1600418
  24.2719173  57.9173088  87.6571198  22.8981647  57.7599220  87.0414810
  52.5848198  22.1265717   6.1593018  52.0225716  22.5655842   6.7975621
  53.2541733  22.7757969   5.9431896  84.4057388  18.1026974  54.8538780
  83.9546585  18.2865582  54.0298920  85.3242340  18.3033504  54.6740685
  84.9768906   8.2504282  11.4854450  85.5500259   8.5704632  12.1820936
  84.1068649   8.5691051  11.7257338   7.7649293  50.9123688  53.2876816
   8.3627558  51.4290276  52.7474060   7.6298599  50.1054115  52.7908821
  67.6058731  65.9883957  46.3348236  68.4757690  65.8161697  45.9744720
  67.0144958  65.4656906  45.7932663   4.9759479  17.4212246  64.5199356
   4.6610823  16.5508251  64.2760239   4.2075520  17.9859123  64.4367065
   1.4203938  26.3233624  41.0642014   1.2434720  26.5355225  41.9806709
   1.8902471  25.4900856  41.0976486  78.0746689  30.0828495  48.7416840
  77.8006439  30.0440998  49.6580048  79.0032196  30.3122921  48.7788696
  24.6669559  57.3040924   5.9967957  24.4364586  57.0125313   6.8788924
  23.9315853  57.0235901   5.4520192  86.4433060   5.6919942   0.2607081
  87.0756149   5.4512649   0.9378102  86.4683914   6.6486144   0.2387987
  53.8438072  25.2007847  28.3730984  54.5093307  24.6198654  28.0045261
  53.5078812  25.6879387  27.6207237  65.1277542  54.1515121  77.5809860
  65.2394257  53.2441940  77.2971954  64.7963257  54.0833397  78.4763794
  36.0321159  62.1101379  38.7089806  36.2203445  62.9119987  38.2213097
  35.4514847  62.3907280  39.4163475  31.8367558  65.9481659  20.6065636
  31.7267227  66.5837326  19.8993301  32.6999702  66.1429367  20.9714642
  23.7163544  52.7340431  55.6539001  22.9388714  53.2641716  55.4786530
  24.4468365  53.3480148  55.5786324  73.5538177  61.0687447  62.6411095
  73.1448212  60.7967796  61.8195343  73.1931305  61.9388237  62.8116951
  22.4958210  22.5952263  86.6614838  22.7782135  22.9335766  85.8117752
  21.9556694  21.8341713  86.4487305  50.2710609  37.9778862  16.9024391
  50.4331741  37.2419357  16.3122425  50.8004684  38.6914978  16.5464592
  54.4546661  16.6874142  13.4656525  53.8897896  16.7411327  12.6947670
  54.1535492  17.3970032  14.0331430  27.6306057  18.1027298  74.1083450
  26.6989002  18.0082531  74.3064117  27.7164726  18.9984932  73.7820511
  66.2133408  31.6308537  65.0261383  66.1383743  30.6990833  65.2320862
  66.6561508  31.6537724  64.1778259  17.9667873  13.5061827  75.5061188
  18.0332279  13.3445187  74.5650101  18.8635826  13.6984739  75.7800064
  13.6343966  62.9788132  58.3228340  13.3452702  63.2212677  59.2025223
  13.9174690  63.8035355  57.9279480  26.2252159  17.0222187  41.1571732
  26.9185600  16.4414978  40.8436966  25.6584187  16.4569683  41.6820183
   0.9653857  56.2391090  70.4498367   0.8371500  56.8409805  71.1830063
   1.8956764  56.0161743  70.4828644  73.7096634  49.2728004  53.3831787
  73.3033752  48.4175873  53.5238113  73.9151764  49.2895317  52.4484520
  44.3108864  36.3770905   3.1724222  43.8172646  36.7716026   3.8913980
  43.6904640  35.7790031   2.7557685   1.6248512  55.1266594  22.1728382
   1.0936943  55.1204948  21.3765545   2.2998278  54.4664154  22.0156231
  41.5894508  34.0508537   9.3688946  41.4609604  34.9940224   9.4696560
  42.5019531  33.9614639   9.0939751  22.5759106  15.4517546  13.3639421
  21.7313519  15.6021700  13.7885885  23.1750069  15.2568836  14.0845957
  79.8486481  15.3757906  53.0303383  79.8428955  16.3266659  53.1400452
  79.1319962  15.0664291  53.5843582  58.8639641  63.4522400  38.2691841
  59.7155571  63.0496101  38.4392052  58.8832207  64.2713547  38.7640648
  85.8970261  40.5255814  52.1452370  85.9916306  40.3997955  51.2010651
  84.9731827  40.7448807  52.2662697   7.8101878  30.1431942  86.5211945
   7.0355382  30.6077766  86.8379135   7.6094708  29.9374847  85.6081619
  29.1487522  55.6642303  23.4486217  29.6336212  55.2663765  22.7255402
  28.5827847  56.3124847  23.0294838  31.2524261  40.2125015  19.8568134
  31.9168224  39.8764420  20.4583740  31.4982376  39.8540611  19.0039768
  64.2769852  62.3139992   5.9486618  65.0281143  62.6224098   6.4555359
  63.5237617  62.4678268   6.5189476  82.6993866  29.6223431  80.0180588
  82.5672455  30.5602932  80.1559753  83.4759140  29.5692425  79.4608994
   1.1491534  52.3437805  48.5547523   0.2254525  52.5940933  48.5735397
   1.2799710  51.8498650  49.3641739  60.2301826  66.9312592  45.7933578
  60.8969116  67.0150223  45.1116791  60.6361351  67.3097305  46.5732269
  53.0724678  64.1595001  24.9286976  52.2302055  64.0017700  25.3552456
  53.0317726  63.6469421  24.1213207  21.5340729   2.1939039   6.5344276
  21.7939949   2.9623618   6.0263476  20.6490517   1.9934973   6.2297897
  77.1525650  49.2691193  78.8384857  78.0039597  49.7055740  78.8677216
  77.0958252  48.9139442  77.9514313  25.5534496  17.1339035  82.4900589
  25.5057049  16.2167587  82.7598724  26.1612797  17.1346989  81.7506180
  11.3897467  40.5886078   9.0308990  10.8599501  40.7391853   9.8137617
  11.3262787  39.6460991   8.8763809  46.1709824  66.4863739  29.0313282
  45.7441406  66.1522369  28.2424145  45.4722137  66.5230255  29.6844807
  62.3474884  56.4351692  61.0954628  62.0779686  57.0459557  61.7814178
  62.1955490  56.9102745  60.2785034   5.9331203  53.3698311  42.5043259
   6.1080799  53.3147163  41.5648651   6.4191508  54.1420631  42.7935715
  60.2360344  46.3747635  55.0536766  60.4692688  45.6682930  54.4514046
  60.3123436  45.9828377  55.9236183  17.3047924  33.2913399  67.8038177
  17.2631931  32.3372307  67.8684464  16.4559612  33.5907021  68.1295471
   9.5648317  61.5750275  27.0574398  10.4474096  61.2923737  26.8178692
   9.3012543  60.9731483  27.7535019  58.6684799   0.1262063  88.1843262
  58.2024078   0.6856107  88.8056793  58.8478432  -0.6770371  88.6730652
  41.4230347  21.6719875   3.6576741  40.5365982  22.0150490   3.5446799
  41.7294807  21.5021439   2.7669017  14.4789305  40.7541618  28.5271168
  14.7879152  40.2682381  29.2917328  15.1059084  41.4708023  28.4293499
  60.9134102  20.7131805  68.0929565  61.5521584  21.4241772  68.0408554
  61.4250946  19.9508839  68.3637238  84.4284134  23.8153419   0.9711716
  85.1484451  23.1933403   0.8667883  84.5495529  24.4436283   0.2592631
  63.9892349   6.3922310   1.5967607  63.4550858   5.6735139   1.2585858
  63.4689484   6.7623525   2.3098822  67.9573212  70.8684082  20.6867886
  67.9998627  70.2386780  19.9671612  68.6625290  70.6046677  21.2778511
  16.6655712  71.3816910  42.3170280  16.2547398  70.6387863  41.8748207
  17.0004883  71.9282303  41.6061440  49.1117821  40.6121788  14.8714523
  49.3231544  40.6991806  13.9419441  48.5629730  39.8294411  14.9200344
  39.2708244  32.5682907  68.3644333  39.2793503  33.5229416  68.4337234
  38.7367363  32.3890800  67.5905685  71.3425980  15.3635616  52.3835869
  71.8047943  16.2017765  52.3825722  70.4348373  15.5908403  52.5849609
   3.0655627  53.0980110  16.7804413   2.2722886  52.5623360  16.7812328
   2.8397787  53.8595695  16.2463207  79.9680786  53.1085243  83.0521317
  80.0879059  52.3941002  83.6778030  79.4312363  53.7486038  83.5193939
  36.3416481  62.9067001  76.2099915  36.2096214  63.7504005  76.6423950
  35.8092957  62.9584999  75.4161758  74.4515610  61.6146812  31.7068214
  75.1557159  61.4458504  32.3328400  74.5444412  60.9245911  31.0500240
  74.5712814  35.2893143  70.2225494  74.2334976  35.7049942  71.0158615
  75.3730774  34.8495750  70.5053635  81.9385147  70.3571701  19.9454117
  82.0546722  69.4821014  19.5752831  82.1723480  70.2597656  20.8684883
   4.8587584  23.1774311  61.5407867   4.7827296  24.0997410  61.2962570
   5.7701473  23.0768280  61.8155251  50.9352036  14.8851862  67.0519180
  50.6979828  15.1555843  66.1648712  51.7206192  14.3502026  66.9372482
  22.9135056  30.2899036   2.6337087  22.2562981  30.9730778   2.7663121
  23.7497635  30.7552853   2.6517866  57.9868889  56.7842674  50.2353592
  57.1291046  56.7462540  50.6584358  57.8809586  56.2734795  49.4327965
  15.4125395  48.7087975  19.3891354  14.9522734  48.3937035  18.6112518
  16.2458363  49.0417175  19.0559502  42.1063194  53.1474342  69.2942352
  42.2053108  52.7005920  68.4535446  41.2438736  52.8768616  69.6092072
  68.7535477  20.6325741  63.2094345  68.8516693  20.1328850  62.3989334
  68.4715729  19.9861908  63.8566704  28.1229439  42.8606071   1.3065803
  27.8203411  43.6653252   1.7274086  28.1000500  42.2033768   2.0021052
  10.1987534   2.0809162   3.5309701   9.6040564   2.3235159   2.8212428
   9.7441835   1.3775083   3.9944518  84.4364166  71.6310196  56.7347107
  84.7639008  71.4598465  57.6177139  84.6572952  70.8417892  56.2401695
  45.4716377  43.9811211  38.6633530  45.6147079  43.3421593  37.9651489
  44.9528008  44.6726761  38.2525139  69.9763412   2.2561860  85.8509369
  69.5631256   3.1012752  85.6740036  70.3574448   1.9956876  85.0124054
  42.1525269  49.0149384  25.3558445  42.8112793  49.6319122  25.0370636
  41.5706825  48.8782806  24.6081715  23.3635368  67.9908142  41.1737022
  23.1859150  68.6423187  40.4953041  23.9027157  68.4536896  41.8150024
  75.4889221  60.7598763   1.1515939  75.0098648  60.1663933   1.7299652
  75.3501358  61.6277390   1.5307840  25.3992672   8.3136539   8.5323400
  25.0292263   8.9503508   7.9208522  26.3272915   8.5424452   8.5838947
   2.7604694  13.7579966  75.2111816   1.8050991  13.8067226  75.2447281
   2.9458952  12.8479118  74.9796753  38.0602188  23.1612606  74.7708588
  38.2874107  23.4052677  73.8735962  38.8139992  22.6592236  75.0807037
  35.9634552  44.8865891  73.2840576  35.6642456  45.7939415  73.2256088
  36.0735245  44.6115837  72.3738480   5.3252182  26.1867352  86.7771606
   5.5630221  26.8548508  87.4200516   4.9048467  26.6746273  86.0690079
  40.0779686  58.1412468  79.3638077  40.2654152  57.3459244  79.8623657
  39.1804848  58.3696861  79.6058121  78.6950302  35.4523392  41.6697235
  77.9975433  35.9760628  42.0640106  78.2383041  34.7267380  41.2441254
  76.8134918  29.2220440  16.5171719  76.0832138  28.9087524  15.9835320
  77.0996933  30.0258064  16.0832520   8.6431103  26.9757481  16.2814922
   8.7719555  27.3934917  15.4299517   8.7061892  27.6930466  16.9121552
  71.2840805   9.2813063  63.1628380  71.6921234  10.0152578  62.7034378
  71.4362411   8.5275517  62.5928078  22.5808754  28.4432716  63.6636963
  22.4076633  28.7806168  62.7848167  23.4482727  28.7828865  63.8839569
  67.2747650  34.5092354   1.4938518  67.2228775  34.1101608   0.6253599
  67.6088638  35.3915901   1.3324218  76.7692871  41.1220932  35.6110191
  76.3474579  40.2749367  35.7546005  77.5389099  41.1059189  36.1799240
  74.9471741  40.8098412  51.2622185  74.3962097  40.1874237  50.7875977
  75.8425980  40.5264359  51.0774727  71.9660492  22.7350540  57.8168945
  71.2071762  22.6701698  58.3966713  71.5963440  22.9574890  56.9624519
  39.0775108  22.5027580   2.7330480  38.5426941  22.9036274   3.4182527
  39.3328209  23.2336388   2.1701417  50.9105835   3.0256510  22.5576420
  50.0165367   2.8825448  22.8681755  50.9888306   3.9767172  22.4829216
  87.1269073  18.9349613  57.6124687  86.4560394  18.9750786  58.2940598
  86.8717270  19.6113892  56.9851265  55.8131561  58.9087257   3.1159866
  55.3961105  59.7609558   2.9894590  55.3348961  58.3191185   2.5330093
  83.6308212  36.5929108  22.1243401  82.9293365  36.0066452  22.4079704
  83.7048187  36.4397125  21.1823826  13.2051554  55.4417229  86.0124512
  12.9902945  54.8682823  85.2767715  12.3718138  55.8477936  86.2509460
  41.0609512  68.5950317  35.8433990  40.9095497  68.3243179  34.9378510
  40.4258270  69.2952805  35.9934196  65.1523361  40.3278847  25.6689434
  65.4180908  39.6172523  25.0853291  64.8531799  39.8860054  26.4636040
  47.8998871  53.9693489  16.1184177  48.5896034  54.2055244  16.7386971
  47.6629066  53.0723343  16.3538647  22.3741016  21.8789635  79.7733612
  22.0961361  21.0611153  80.1857758  21.5920849  22.4308243  79.7847672
  18.6609230   5.7214799  54.0135078  19.3226604   6.3919959  54.1830482
  18.3380413   5.9204383  53.1346512  84.0264130  38.8179245  55.7892647
  83.8646011  38.5798988  54.8763580  84.7871628  38.2948151  56.0419464
  11.1754017  12.6548567  62.9653778  10.9357729  12.1980009  63.7716599
  10.8246527  12.1046515  62.2650337  48.4003334  70.5630875  30.4212990
  48.5429420  70.4535599  29.4811401  49.1552544  71.0697708  30.7206326
  22.0076523  44.8710251  46.5450478  21.6114006  45.7297974  46.3976402
  21.5113735  44.5003319  47.2747917  57.8315468  15.4151821  72.5908966
  57.5584908  14.8142586  71.8976669  58.4048080  16.0432243  72.1513901
  65.5938797  36.8026810  53.6198730  65.5947266  35.8482704  53.6928749
  66.0079651  37.1050873  54.4281540  35.3408127  26.0458126  70.6198196
  34.8067741  26.2230492  71.3941727  36.0794754  26.6499424  70.6949005
  12.6879930  62.8782883  50.5633698  13.5418367  63.2022667  50.2766266
  12.6689730  61.9657021  50.2751732   3.4232502  21.7196999  53.7282066
   2.8327405  21.9111347  54.4568253   4.0227418  22.4655075  53.7034645
   7.1722784  59.9390335  33.8406944   6.3656464  60.0079727  33.3299866
   7.8730617  60.0249519  33.1943588  60.6953659  32.8107300  71.6259842
  59.9768372  32.4702263  71.0930557  61.4621048  32.3144989  71.3394623
  86.0319290  11.2484016  85.0132980  85.2301178  10.7666454  85.2163849
  85.7358856  12.0013933  84.5018311  57.2291832  61.1386414  52.8613625
  57.4580841  60.9823227  51.9451714  57.2102661  60.2666283  53.2556496
  40.0713959   8.3904877  80.3514328  39.1226997   8.2875919  80.2764816
  40.1870613   9.2352190  80.7865067  53.1250496  47.7574463  13.5372553
  53.5316048  47.4959068  12.7110949  53.8577309  48.0333824  14.0879564
   9.1885405   7.2029991  80.9820328   8.9106722   7.2632809  80.0680313
  10.1210880   6.9922423  80.9354553  70.7201538   6.1200876  84.7002563
  70.9060135   5.7602019  83.8329773  71.5681686   6.1252232  85.1441956
  40.2416115  69.9844894  18.5666046  40.7982216  69.3291931  18.1458893
  40.8096733  70.4005737  19.2149963  83.3785324  40.7512550  85.5174484
  83.4671478  39.8393440  85.7945786  84.2373276  41.1379890  85.6881561
  28.4144459  71.6273956  14.4311466  28.3430939  70.8387680  14.9689322
  27.9895382  72.3103790  14.9500113   7.4037638  37.1342316  81.4974747
   7.0513692  38.0167809  81.3827820   8.1606607  37.1006622  80.9124832
   1.7013725  66.8191986  25.7036476   1.2568095  67.0414658  24.8856030
   1.5987630  67.5976181  26.2511597  71.7718353  70.5759506  85.6331711
  72.1233673  71.2235947  85.0222549  72.0442734  70.8880539  86.4960709
  44.7125206  43.6653976  44.4437752  44.6667023  43.4077530  43.5230408
  43.8883171  43.3567581  44.8201485  78.6049728  70.5093918  67.7648087
  78.9367523  69.8790359  68.4041824  77.6534195  70.4141541  67.8061142
  36.1737518  32.1401863  82.0432434  35.3859329  31.8226318  81.6019592
  36.8967934  31.8060246  81.5124130  46.7719078  70.3968353  77.7875137
  47.4502869  70.9659576  77.4240265  46.2877922  70.9579620  78.3933105
  45.0280457  34.7220078  14.8954487  44.7494049  33.9687691  15.4162369
  44.4729118  35.4407806  15.1978054  68.8598328  17.9221802  29.7913265
  67.9029922  17.9001331  29.8053970  69.0742264  18.7752533  29.4137936
  77.2323914  45.1171188  33.2707062  77.6719894  45.9663582  33.2285995
  77.8576889  44.5042953  32.8838234  68.6870575   4.9980249  42.9532852
  68.6314697   5.8303952  42.4839249  69.4845505   4.5874362  42.6191483
  27.3270569  29.1464596  51.8259048  28.0526428  29.0475368  51.2094879
  26.5973911  28.6845188  51.4130745  70.1487274  10.3275299  79.4346771
  69.2165680  10.5434961  79.4605255  70.4795761  10.5912161  80.2933044
  63.0585022  12.6506367  80.4499741  63.8979263  12.5247107  80.8924026
  62.6713142  11.7758465  80.4174194  83.0543900  47.3588409  63.3333397
  83.6353302  47.8806572  62.7797623  82.7951202  47.9541931  64.0365982
  77.2036743  58.7489128   5.9302583  77.2756195  58.6806870   6.8823090
  78.0713730  58.5069504   5.6065392  47.7772980  34.7196388  49.5323410
  48.3876038  33.9967766  49.3866310  48.3351059  35.4590645  49.7738609
  48.6184616  37.3351364  83.6126633  49.4672432  37.1132278  83.9954910
  48.8196335  37.5791779  82.7092209  19.5937061  15.3539543   2.4292009
  19.8868427  14.5729342   2.8985724  18.7639332  15.0951290   2.0283010
  85.3946533  45.3523941  28.1521358  85.7286682  44.8930664  28.9226475
  84.4918289  45.0468712  28.0638294  21.6683483  19.1989021  14.0301991
  22.1847668  19.5599327  14.7507553  21.9614849  19.6840343  13.2588682
  18.0880394  50.5981293  77.1586914  18.9465752  50.9261971  76.8912582
  17.7844372  51.2272720  77.8130875  51.2665215  29.5188656  70.8888626
  50.9129105  30.4041100  70.9756699  52.2160721  29.6395569  70.8850632
  67.3096313  42.0698662  38.0355949  66.6416397  41.6980743  37.4595795
  68.0171051  42.3296471  37.4454880  43.8211975  24.1448593  72.4664078
  42.9532280  24.1916351  72.0655670  43.6768456  24.3920994  73.3797913
  68.0681686  16.3583183  32.1482277  68.6732178  16.2582893  31.4132805
  67.2399063  16.6156616  31.7432728  59.4948425   4.9044080  59.5509872
  60.3537483   4.7840233  59.1459885  59.6437874   5.5512290  60.2406769
  26.4295826  63.5200691  75.3643341  26.2483273  63.0036545  76.1496277
  26.2313137  64.4211655  75.6191864  28.6578255  61.8844223  19.3129120
  28.0394630  62.1927147  18.6504803  29.1483879  62.6667023  19.5651417
   2.0503449   3.1597626  80.1064606   2.9712842   2.9367526  79.9709244
   2.0445397   4.1133337  80.1895294  30.1568489  25.4944668  38.2493439
  29.4896641  24.9347363  37.8521118  30.2833366  26.2019596  37.6171341
  71.7237930  23.4551907  40.5360413  71.1116180  23.3212357  41.2595940
  72.4437561  22.8507404  40.7164154  35.3828049  32.1722984   0.7053207
  36.3281288  32.1800041   0.5551990  35.2446938  32.8204041   1.3960569
  71.3186951  46.6644211  57.4720917  70.5949860  46.3515282  56.9293442
  71.9953156  45.9938011  57.3788948  76.3994827   6.0689821  57.7096939
  77.2369690   5.6138749  57.6217995  75.8107834   5.6042781  57.1149483
  60.1986351  31.3691597  62.0770493  61.0646973  31.6898861  61.8254509
  59.8932610  30.8797455  61.3132095  56.0657043  11.2866669  69.8668671
  55.9801025  11.2233896  68.9156036  55.3791656  10.7133703  70.2077866
  78.4382172  31.4675865  68.7933578  79.3276062  31.1904888  69.0134506
  77.8770447  30.9580879  69.3779373  61.6845207  39.6595154   4.4228940
  60.8429375  39.6027298   4.8753824  61.4584503  39.9104080   3.5272501
  51.2205238  37.9585571  83.3344345  51.1403046  38.8493156  82.9933395
  51.9465828  38.0047646  83.9564819  33.9159393  21.0749912  87.1351471
  34.1118698  21.1306095  88.0704269  34.6949272  21.4286423  86.7058029
  74.4178314  12.6168242  51.7145233  75.3597641  12.4541035  51.6643410
  74.3061066  13.4928474  51.3452911  60.6553192  38.5492020  38.0773430
  59.9513283  39.1478615  38.3268166  60.3677292  38.1751137  37.2445259
  67.8566132  22.7816353   3.6287172  67.9782257  22.6090698   2.6950877
  68.4564285  22.1760788   4.0643306  71.6434937  16.9750538  86.4152069
  71.5476303  16.6359959  87.3051987  70.7456665  17.1140327  86.1138458
  57.6989136  25.2304249   2.5414653  57.3023872  26.0693531   2.7764060
  57.0003319  24.7519779   2.0950336  53.2698669  51.1352577  28.1034985
  54.0230904  51.7234268  28.1577473  52.7144203  51.5193596  27.4251328
  15.1785908  56.4451942  13.3851089  14.3347139  56.8803596  13.2637291
  14.9542437  55.5295410  13.5508766  20.5387192  38.8410721  76.3959885
  21.1460533  39.4568901  76.8060455  19.6717167  39.1448517  76.6647949
  64.6473083  61.3130684  74.4388809  63.9746323  61.7721901  73.9359436
  65.2759552  61.0147476  73.7815933  54.2284698  29.1969929  86.8267670
  53.7192612  29.9900970  86.9938660  53.6029167  28.5894566  86.4320374
  32.4967957  15.9207535  85.4065552  33.2929001  16.4436283  85.5016632
  31.8061218  16.4651260  85.7845306  56.7633972  68.9566193  56.2408447
  56.8198433  69.8770294  55.9841423  56.5557823  68.9807892  57.1749458
  26.6393890   5.9123397  13.4895401  27.1756554   6.6210146  13.1339712
  26.1147728   5.6132045  12.7468910  80.2925110  15.3787518  15.9878149
  79.6030045  15.8001518  15.4747562  81.1051712  15.7606373  15.6561804
  28.5969658  41.0424767  57.1467056  28.3836708  40.1427574  56.8992348
  29.0808868  40.9566383  57.9680977  83.9140244  42.8808289  22.3628712
  83.4125824  43.3065720  23.0582352  84.8285522  43.0040855  22.6171932
  13.4645586  65.5471344  35.2746277  14.4084625  65.7002792  35.2318954
  13.0746269  66.3757477  34.9960709  59.5600319  40.4856987  47.2807388
  59.6306534  40.9286690  46.4351501  59.9831161  39.6381645  47.1432114
   8.3579254  69.3057480  36.7098198   8.8027334  68.9274597  35.9513512
   8.6649237  70.2118683  36.7401924  15.3278408  42.8965340  53.5336342
  15.4584827  43.1262589  52.6136398  15.8323774  43.5502510  54.0177116
  80.4198227  46.6899490  13.0350237  80.6530075  45.7656136  12.9486599
  80.6954956  46.9247322  13.9210882  46.2604027  62.9933739  62.7768631
  46.1850204  63.7131081  63.4033928  46.9375763  63.2794342  62.1638069
  77.7808914  61.6633415  77.8800735  77.0023422  61.9206924  77.3862457
  77.4422531  61.3733978  78.7271194  74.4457321  48.6675034   8.5915985
  73.6572342  48.5106544   9.1111240  74.9935455  49.2204781   9.1486893
  62.2889366   3.1076949  87.6745377  62.2014885   3.9435413  88.1327362
  63.2259560   3.0297267  87.4952469  47.3779106  54.1666794  46.1457443
  48.1403923  54.5950356  46.5347977  47.5011597  53.2371826  46.3383064
   7.7026014  53.0590515  31.3278008   8.4586096  52.5275879  31.0783443
   7.7881999  53.1676140  32.2749634  43.2224541  63.0855255  88.1891174
  42.2833252  63.2620316  88.2449570  43.2996254  62.4106140  87.5147476
   3.4442859  36.8401527  63.8742371   4.1025620  37.1066704  64.5160141
   3.3933566  37.5756836  63.2637978   3.1092706  45.5484390  51.3682442
   2.4652174  44.9966583  50.9244347   3.3314741  45.0647125  52.1637726
  83.5735931  41.4572029  33.2187424  84.3034515  40.8784065  33.4390678
  82.9290085  40.8830376  32.8051300  51.4866867  29.5949459  21.0612049
  52.1773796  29.7611504  21.7027264  50.7012520  29.4467640  21.5878620
  41.2639732  36.2770653  26.2850685  41.5547905  35.8011208  25.5071640
  40.6260986  36.9095078  25.9543686  78.1639709  37.2760086  73.5353317
  79.0435486  37.4552231  73.2029800  77.5937500  37.3836670  72.7740860
  10.2687407   6.2311072  70.1099014  10.0963268   6.6951652  70.9291382
   9.7298870   6.6831040  69.4606171  39.6032562   2.4026341  65.3151245
  39.2381058   2.6416402  64.4632034  39.4311523   1.4644091  65.3947830
  83.8307495  62.1120758  40.1213722  83.2379303  62.4199219  39.4357872
  83.2930145  61.5317497  40.6601639  41.1268578  49.2107010  64.2602005
  40.6302681  48.3942719  64.2047806  40.7853394  49.7477646  63.5452423
  11.6736822   0.1022976  51.7570686  11.8601007   0.5877828  52.5606728
  12.3679018   0.3643688  51.1524086  64.2357254  37.1287498  23.6157513
  65.0753250  37.3765831  23.2286110  63.5829811  37.4218178  22.9799290
  40.6632881  71.1800385  78.2080612  40.7147102  70.2245712  78.1823044
  41.5743904  71.4702072  78.1641312  82.2486191  51.1389771  54.4778671
  81.7466049  51.2474022  55.2856178  82.1783829  50.2060280  54.2756195
   6.7957473  11.5674772  16.1504993   7.3660636  11.5342493  15.3824701
   6.2624073  10.7751522  16.0872402  64.7108765  25.6490993  27.1625729
  63.7723961  25.5078754  27.0379314  65.0579224  25.7486439  26.2760735
  60.3863831  28.7466125   8.3648939  60.9616547  28.3599262   9.0250196
  60.5403137  28.2244396   7.5775743  30.2428913  55.2445946  34.9029541
  29.9371872  55.9748154  34.3648529  30.3338242  54.5160942  34.2887497
  64.8702850  10.5330658  67.3991318  63.9473953  10.4919252  67.1485062
  65.0708237   9.6537476  67.7197800  75.2902756  30.7151165  80.7778168
  75.2262115  30.6316757  81.7292175  75.6066818  31.6073704  80.6364059
  68.3262863  17.2320080  37.4795876  68.7654877  17.1865215  36.6303139
  68.8591537  17.8395729  37.9925652   4.4740763  57.0022926  75.5574112
   3.7173190  56.5855064  75.1452942   4.8299131  56.3308029  76.1393967
  17.7691574  26.0008392  71.1599579  18.6989994  25.8967667  70.9579773
  17.3487358  26.1042519  70.3062668  37.4706841  54.8297462  52.5500298
  36.7715073  55.4122581  52.2532692  38.1251488  55.4155426  52.9304886
   1.4425858   2.7198319  36.1733513   2.2375572   3.1621332  36.4710426
   1.7448690   1.8653749  35.8655205  18.5180817  44.7509003  59.4436531
  18.0346584  44.0201683  59.0582047  18.1242142  45.5311089  59.0533028
  12.6303968  38.1058578   6.0067902  13.4501247  38.5473862   6.2288947
  12.6098576  37.3376694   6.5774860  64.6933975  36.6162605  64.8150253
  65.4920044  36.8782616  64.3569641  64.7019577  37.1286278  65.6235046
  86.5174332  13.7434349  67.9313583  87.2363968  13.2851419  68.3664322
  86.2261276  13.1387930  67.2488785  60.3735504   2.4770391  53.8835831
  60.6323090   2.1122026  53.0373154  61.0533409   3.1200781  54.0851250
  74.9592896  17.3565311  86.6078033  74.2417831  16.7255726  86.5502853
  75.7015762  16.9132156  86.1970749  66.4306183  69.5554962  39.9197502
  67.1501846  69.1876221  40.4327049  66.5353012  69.1703262  39.0497360
  85.2601547  16.3307972  19.7681122  85.7617645  16.2184696  18.9606476
  85.6381989  15.6947451  20.3753643  45.2855682  53.0400658  85.5871277
  46.0593071  52.4768066  85.5698242  45.6236076  53.9042320  85.8220215
  33.2943993  58.9216385   9.8655176  32.6742058  59.4065742  10.4099665
  33.9882317  58.6577530  10.4698324  22.8293381  61.8858452  55.5512238
  23.1748505  62.3744774  56.2982788  22.2341709  62.4983559  55.1189728
  11.2935686  43.6479301  40.5858765  11.0986795  42.7563324  40.2972488
  10.7382841  43.7775574  41.3546982  74.5761719  46.8221931  76.2569046
  74.5581207  45.9469261  75.8698502  75.5000381  47.0720940  76.2410355
  11.7106943  44.1581154  50.8134918  11.1998749  43.8743248  50.0553627
  12.6138773  43.9309654  50.5923691  59.1651802  16.2525940  86.9754105
  58.3881226  15.7986488  87.3015213  58.9407158  17.1814690  87.0305252
  71.4477463  68.5640640  88.6160278  71.4514542  68.3706284  87.6785812
  70.5664902  68.8953934  88.7887421  21.3487473  43.9950829   2.3435555
  22.2738476  43.7498703   2.3264956  21.0633812  43.9167824   1.4332438
  69.8762589  35.3326149  45.7999992  70.8072433  35.4600029  45.6175880
  69.6769791  35.9705315  46.4852600  55.8218269  50.3245735   5.8562775
  56.7384377  50.2754250   5.5849071  55.5451622  51.2063332   5.6069136
  84.7011108   2.3046479  10.8433809  84.5353088   2.0089355  11.7385330
  84.2168503   3.1269774  10.7692289  41.7043800  44.2652206  54.8030090
  40.9118805  44.7991638  54.7474861  42.4166565  44.8720818  54.6014862
  64.0790329  42.0670357  46.0413628  64.9838409  42.0659180  46.3537064
  64.1445694  42.3121109  45.1183891  41.5222206   0.3972297  83.5354538
  41.0904198   0.6596252  84.3484268  40.8082962   0.1059638  82.9682693
  14.8260355  69.5288467  15.0714636  14.4046030  69.5776749  15.9295092
  14.1271591  69.7312393  14.4495001  82.8474731  69.9902725  82.4479752
  83.4418640  70.0470963  81.6998444  82.5948486  70.8968735  82.6225739
  38.9334106  56.1468239   9.7881241  39.1279678  55.3181076   9.3503904
  39.7792358  56.5910988   9.8467083  11.8243704  53.1179008  27.8364506
  10.9544697  53.0006065  28.2182159  11.8933563  54.0601387  27.6826115
  57.7936821  24.6266441  52.5848618  58.6818428  24.9249153  52.7809143
  57.3138580  25.4269657  52.3715935  45.6327705  67.7328949   1.5657800
  45.1492729  66.9472504   1.8211812  44.9540443  68.3696136   1.3418496
  45.7240906  18.2895622  70.3141479  45.6345634  18.6999588  71.1742630
  44.8512573  18.3531742  69.9263992   1.9152862  68.0396957  80.5753479
   2.5168755  67.2954941  80.5533752   2.1373699  68.5034485  81.3827133
  40.5542679  66.9420547  21.0757675  40.2123871  66.1427689  20.6751652
  40.4619408  67.6092529  20.3956470  56.6929855  23.6743965  10.7891483
  56.8245049  23.1876125  11.6027670  57.4582367  24.2458668  10.7255764
  23.2461052   2.4256833   3.7979679  23.4933529   2.2218528   2.8959959
  24.0755444   2.6144979   4.2368417  19.5737209  48.9925995   4.3762951
  19.1372948  49.8195877   4.5808864  19.7735443  49.0519485   3.4420681
   0.6413389  70.5054169  61.7094078   0.1882805  69.7284698  61.3817940
   1.5233603  70.1979675  61.9185638   7.4930239  11.9746189  64.2219086
   6.6394348  11.9043341  64.6493149   7.5895810  12.9077673  64.0317917
  81.1841660  49.6801567  49.4592171  80.2297363  49.6364021  49.5173759
  81.4702301  48.7691803  49.5264397   8.5081129  42.1903877  85.8460693
   8.0693626  42.3904495  86.6729355   8.0539122  41.4154587  85.5152893
  55.5751495  20.0160847  28.4100723  55.5218124  19.2748528  27.8067799
  54.8099785  19.9190731  28.9769325  78.1140060  35.0665131  76.2912750
  77.9432678  34.1357155  76.1474304  78.9644394  35.2204094  75.8798065
  16.8405762  23.4266109  22.6125240  17.1669407  22.8278599  21.9407978
  17.4928989  24.1262608  22.6471176   4.9455280  52.3875885  38.0830574
   5.0621185  51.4725723  37.8273659   4.2494617  52.3659439  38.7397575
  13.7796898   4.0394406  14.5682621  12.9517775   4.1717610  14.1064339
  14.3644371   4.7058001  14.2073364  56.3015594  68.9850235  13.0108109
  55.9968414  69.5211182  12.2787037  57.2275658  68.8296661  12.8247776
   4.5611467  67.4491043  32.8979530   4.3080802  68.1879272  32.3444862
   5.1700664  66.9438477  32.3592873  23.5314159  57.0853844  63.7142906
  23.5385723  58.0153275  63.9409828  23.0496616  56.6684227  64.4286346
  61.9541893  66.0347366  78.0660706  61.5514717  65.2085648  78.3334503
  61.7926178  66.0860977  77.1240082  20.8645496  59.8280334  69.4617615
  21.3476963  59.0017128  69.4617538  20.7927380  60.0634956  68.5367584
  65.6724091  41.5523987  82.2273254  65.6241913  42.4148979  81.8150177
  65.3984222  41.7036972  83.1319122  84.0245514  22.3238316   4.2399340
  83.6904831  23.1385937   3.8647053  83.4203720  21.6505928   3.9269588
  15.2323847  68.2573166  38.4148979  15.3479967  68.3551254  39.3600426
  15.4582634  67.3438873  38.2392311  58.7932053   6.0071807   5.8211908
  58.1973190   6.3000193   6.5106802  58.2524185   5.4562154   5.2553139
  67.8245850  43.2089500  34.6207314  67.7552490  42.3188362  34.2755928
  68.2655792  43.1052170  35.4639359  18.6616039  38.8023911  16.0706806
  18.6774826  37.8495407  15.9808998  18.9053154  39.1286774  15.2044392
  55.9127846   9.5497713   4.4809699  55.8612595   8.5943813   4.5093694
  55.4779663   9.8370533   5.2838607  49.2564240  52.7016373  29.1416550
  49.0975685  52.5124893  30.0664349  49.0491333  53.6314507  29.0483189
  78.2905426  24.8496666  69.2981186  77.7228928  25.4748993  68.8474579
  77.7842636  24.0375538  69.3178406  67.3164520  50.0267220   0.7952682
  67.3244095  50.1175270   1.7481179  67.9745483  49.3559341   0.6130934
  60.3570251  65.3788376  60.6885872  61.1236115  65.9221649  60.5058975
  60.2484856  65.4293442  61.6382713  68.9632416  63.7513504  24.5904045
  69.5328903  63.6832581  23.8241825  69.0762711  62.9180756  25.0476913
  11.2808390  57.4456902  11.6367073  10.4364462  57.8515587  11.4404831
  11.8473988  57.7089043  10.9114752   5.3525548  10.0721836   7.8786621
   6.1509371  10.2613506   8.3716459   5.2666578   9.1196661   7.9182239
   7.4939942   8.6418428  60.7175293   6.8624969   8.4951305  60.0133133
   8.0644903   7.8736696  60.6915359  30.9407539   8.5698652  84.3459930
  30.5544834   7.6953754  84.2981033  30.1923332   9.1650057  84.3023376
  31.4688988  47.0508690  66.6147919  30.6005096  47.0372162  67.0172195
  31.3236370  47.4212875  65.7442017  62.5729027  25.2808571  42.9883232
  63.1987610  25.4855709  42.2936096  62.9864655  24.5729122  43.4822960
  49.6153412  58.9699860  88.8356018  49.2428017  58.0887070  88.8073807
  49.4478569  59.2723465  89.7282181  65.3985825  10.4004202   2.9332635
  65.0181503   9.8727083   3.6354179  66.3433228  10.3447094   3.0767553
  21.8803787   0.7662036  16.7554092  22.0649414   0.2851180  17.5620842
  20.9272232   0.8529224  16.7409992  30.3770161   4.9018321   7.3021431
  31.0337429   5.4298105   7.7562141  29.8944302   5.5300035   6.7647939
  37.4837227  19.0526276  72.6495438  37.3839951  19.6555061  71.9127808
  36.8209496  18.3786297  72.4989090   9.9867296   0.1120561  54.1650314
  10.4263153   0.9144942  53.8838043  10.6871824  -0.5379723  54.2203674
  67.7858047  60.8853912  37.9920349  66.9978333  60.9705353  37.4553070
  67.8949127  61.7464790  38.3955879  67.9346161  10.4959173  34.9885101
  67.2268906  10.7191429  35.5931053  68.1454315  11.3210039  34.5514526
  43.5641060  45.9092560  30.1915398  43.1393127  46.0530663  29.3459034
  44.4899178  45.7932816  29.9778595  51.6180534  34.7426529  85.3136368
  51.6562805  34.9694176  84.3844681  52.4873810  34.9611206  85.6494598
  27.3866634   4.0292101  35.8550377  27.7234726   4.8102961  36.2940102
  27.2391853   4.3073149  34.9510803  31.6119537  65.2782669  83.2877960
  31.5839367  65.9455719  82.6021194  32.5427437  65.0807037  83.3918533
  43.2086678  53.3549271  31.9131660  42.5375748  53.2920456  31.2335243
  42.8411140  53.9599419  32.5574455  54.1739006  28.2451630  76.0766907
  54.9569016  28.4116077  75.5518723  54.4360809  28.4582825  76.9722748
  28.4706879   1.7315768  34.6001930  27.8002377   2.3715496  34.8392792
  28.5661259   1.8273368  33.6525879   5.6181574  24.7207127   0.3941625
   5.0906010  25.1343040   1.0774326   5.5723777  25.3279934  -0.3443129
  42.1671257  34.2114868   2.7213600  42.7857285  34.0143204   3.4246995
  41.5555496  33.4751663   2.7268851  63.1203461   4.1425753  10.3134718
  63.2209854   3.5233119  11.0363932  62.4596024   4.7635055  10.6202211
  25.8926792  28.2081738  89.2106857  25.3390503  27.6097336  88.7090912
  26.5644817  28.4901237  88.5898666  25.3761368  60.3910561  68.8191757
  26.0612335  60.9304810  69.2140045  25.7528133  59.5116959  68.7863235
  46.9333725  44.2254410  21.8011990  47.8583755  43.9868011  21.8616047
  46.6162453  44.1852951  22.7034473  62.7186203  27.9545364  13.0271549
  63.1944923  28.5782528  13.5755653  61.7957039  28.1287003  13.2118702
  62.3398933  71.0066376  16.5747280  61.8698006  71.5587845  17.1995277
  62.4811020  70.1831360  17.0417805  71.2122574  18.3573513  64.3172531
  71.8615112  18.1902122  63.6340599  71.5078201  19.1657982  64.7359314
  64.3040390  32.8265381  37.4353065  65.2131119  32.5892181  37.2523003
  64.0069580  32.1693115  38.0646133  82.4246597  57.1047440  80.1815491
  82.7329102  56.2074966  80.0544128  82.9986420  57.6356888  79.6294022
  86.4507065  40.3663559  33.4146194  86.5557175  40.6250458  32.4990387
  86.7470932  41.1272812  33.9140015  45.9440193  58.6066780  29.7682781
  45.0834579  58.2453117  29.9805946  46.2743378  58.0433159  29.0684586
  10.0115900  44.6185493  63.4246979  10.2087860  43.6936913  63.2764168
  10.5874557  44.8736610  64.1454849  52.0030670  50.2429161  61.6586418
  51.6259956  49.3795853  61.4892197  52.9295578  50.1471100  61.4380302
  44.3878479  71.0479355  83.8276062  44.9234467  70.8814087  83.0519485
  43.5041771  71.1806946  83.4844818   9.0220537  55.8804474  39.0637398
   8.5178356  56.1503754  38.2961884   9.5551929  56.6451302  39.2811203
  35.6856194  19.1828365  78.6096725  36.4948082  19.0936832  79.1131516
  35.2819557  18.3158321  78.6495590  28.4782467  17.1514530  61.8157272
  28.2712650  17.2554684  60.8869781  29.1069126  16.4301090  61.8416824
  44.5796204  67.6912537  31.5530643  45.1552162  67.8345947  32.3043137
  44.9511566  68.2360916  30.8592701  41.4799652  44.5203857  37.7441368
  40.5667915  44.6841698  37.5085068  41.7911377  45.3560677  38.0920448
  33.9700432  12.2757187  68.0025864  33.1105461  12.6926594  68.0630646
  34.0438576  12.0110216  67.0856781   7.3088603  57.3762321  74.0033264
   7.7879844  57.8464851  74.6856308   6.5522146  57.0032845  74.4556885
  44.5400772  39.0179520  61.2726936  44.5988083  38.7890053  60.3451347
  45.3790398  38.7413063  61.6412621  57.9688644  70.7077103   5.3668265
  57.4916878  71.4517365   5.7341914  58.5619469  70.4343948   6.0666718
  43.1923904   0.6234621  78.1554031  43.4206161   1.0230141  78.9947510
  43.4710121   1.2644423  77.5013733  39.3644867   4.2283740  76.6805344
  40.0926895   4.5288706  76.1367950  39.1896858   3.3379185  76.3759613
  77.0522842  40.5382309  68.8707504  76.7993698  40.5527916  67.9476776
  76.8391571  41.4146080  69.1913376  42.1774902  62.3865776  50.0217972
  41.4268799  62.6036377  50.5746994  42.8880615  62.2141075  50.6395149
   0.8302062  46.6525879  47.3636742   0.0193429  46.3063469  47.7363014
   0.6015669  47.5346184  47.0704536   0.7517800   4.6871777  59.6863861
   0.6171727   3.7453640  59.7917442   0.5215027   4.8614264  58.7737846
  71.6200943  45.9388733  13.2990980  70.7813644  46.3684006  13.1309500
  71.4812012  45.0298615  13.0333214   2.3830695  21.1024246  77.7460327
   2.3154833  21.7628384  77.0564575   1.4779433  20.8438396  77.9195633
  51.8827209  47.0954971   0.6832866  52.1290970  46.6384773  -0.1208681
  52.6128731  46.9376717   1.2817831  74.7484283  60.1117096  18.5850830
  74.3757401  60.8102226  18.0471134  74.0485992  59.8804779  19.1958256
  49.8920631  70.7456055  75.4958267  49.6710052  69.8229828  75.6228561
  49.1037903  71.1301727  75.1124649  14.3140001  34.3936386  51.5962067
  14.4746904  33.4974518  51.8916054  14.8638344  34.4918175  50.8188553
  79.5544434   0.2884649  37.9717941  78.9230881   0.5041434  37.2854233
  79.0162582   0.0818171  38.7359200   9.8192749  38.9296989  83.2485123
  10.4590273  38.2206764  83.3136368  10.2111149  39.6517258  83.7398071
  24.5844917  68.6704712  57.5461349  25.4832878  68.3429260  57.5128288
  24.4578362  69.1084366  56.7044830   8.1215687  31.3617134   9.2107592
   7.7242241  30.4972630   9.3159847   9.0005131  31.1822720   8.8768597
  76.8414230  37.5833397  10.8303137  75.9900818  37.6889000  10.4056797
  76.9319992  38.3604355  11.3818083  84.5257263  35.6115952  19.5133610
  84.4018707  34.7017021  19.7835236  85.4745865  35.7116203  19.4366570
  26.1503792   7.5052938  58.0474968  26.8271770   7.7858434  58.6635056
  26.0373325   6.5714788  58.2248154  47.4362679  33.6520920  52.9841118
  47.0928574  33.4335594  53.8504524  46.8498955  34.3354454  52.6594200
  25.4932690  19.7414570   0.3447528  26.1910343  20.3197212   0.6529180
  24.8456459  20.3317337  -0.0404609  14.7861347  49.9935722   1.6943971
  14.8375015  50.7460823   1.1050606  15.3146114  49.3189201   1.2680269
  52.1386681  40.5355530  36.8095436  52.6278801  41.2496834  37.2181015
  52.5035286  39.7413139  37.1997948  53.9500542  21.8160610  21.2487030
  53.1801720  22.3061771  20.9600792  54.3840599  22.3976288  21.8729191
  68.1742020  70.5286942   9.9832687  67.8370895  71.3171387   9.5578985
  67.3937531  70.0111618  10.1814842  32.6676025  45.6421394  82.1057358
  32.7569237  44.8461800  82.6298599  33.3448944  46.2283592  82.4431610
  67.5653687   7.8709521  32.0874481  66.6295319   8.0629854  32.1472168
  67.9596558   8.3776007  32.7974319  57.4512444  44.9935150   1.9815619
  57.1419792  44.8366203   2.8737335  57.8332748  45.8706703   2.0112743
  68.7704086  24.8627625  15.2640791  68.4992828  23.9504547  15.1620293
  68.7523575  25.2187939  14.3757391  56.5137978  31.7482681  10.4785290
  57.2935753  31.2110558  10.3386059  55.8868294  31.4347382   9.8267307
  43.1243820  23.2164345  65.3347244  43.1085358  23.9921150  64.7741013
  43.9138832  22.7449417  65.0689926  27.3154678  50.2639923  64.6022797
  26.9982510  49.5653954  65.1746216  28.2088680  50.0032005  64.3785553
  23.2711258  53.0230789  63.0602951  22.7248116  53.6088715  62.5362549
  22.9385796  52.1469765  62.8651199  61.7789764  62.8509865  70.1448364
  62.6109505  63.0146561  69.7006912  61.1458015  62.7429810  69.4351425
  75.8930054   3.7601364  54.1740913  75.4467773   4.0871520  54.9552269
  76.4021988   3.0115538  54.4848557  66.8750916   9.6455317  23.1387310
  67.7589874   9.2814932  23.1881313  66.5716324   9.6616697  24.0464096
  61.1060867  53.6826019  69.5487823  61.6951904  54.2075081  69.0068817
  61.6247139  52.9161072  69.7931976  77.1878433  20.3083286  20.4378643
  77.2153320  19.4159908  20.0925999  77.7969208  20.2983303  21.1762142
   9.9384298  58.7173424   5.3612037   9.9495325  59.6543388   5.1658912
  10.1831360  58.6623192   6.2849584  22.4993401  18.7520447  44.5092964
  21.7681160  19.2932148  44.2115097  22.9429665  18.4848595  43.7042885
  80.1586609  69.2310638  85.6684723  79.2267151  69.4495087  85.6683502
  80.5370789  69.7956009  84.9944305  74.4298172  69.3728867  70.5112228
  74.6709213  69.2154465  71.4240799  73.9790268  70.2171783  70.5247498
  72.5856400  31.0353699  60.5992393  72.4324112  31.6925488  61.2781143
  73.4792252  30.7310810  60.7577820  75.4689484  58.0149002  23.7837257
  75.5114975  58.9333839  23.5176182  75.2895966  57.5387077  22.9729843
   3.6223361  15.1679440  69.7260437   3.7126541  15.5571651  68.8562317
   3.8043296  14.2377729  69.5922852  74.3599472  24.3263226  24.2167454
  73.9355316  24.8911686  23.5709457  74.9491577  23.7747669  23.7021103
   0.9564549  45.1455956  84.5574875   1.1070319  44.2281380  84.3298340
   0.3607172  45.4657822  83.8801270  44.8111076  35.5153694  11.9808064
  44.4521523  36.3718872  12.2126656  44.4546776  34.9198761  12.6400347
  80.6659775   2.9430130  55.1285515  80.9562759   3.0131664  56.0379677
  80.4761810   2.0124891  55.0088234  15.3266306  10.7558203  12.1099300
  15.6384096  11.1793394  12.9097157  15.7303133  11.2563286  11.4008713
  26.0996456  67.2832718  43.6479874  26.6205330  67.2348251  44.4495850
  25.4975376  66.5416260  43.7084122  50.3282204  11.4151735  20.4310265
  51.2387505  11.7103968  20.4274349  49.8612099  12.0850344  20.9304466
  67.6356125  60.7402954  44.1664734  67.6145477  60.0018120  44.7751007
  66.7563705  61.1155739  44.2146988  47.5173988  55.3443222  13.7314625
  46.6062927  55.6018791  13.8721056  47.7923203  54.9697342  14.5683222
  68.6483002  41.5768204  73.4641190  67.8357849  41.4927826  73.9631119
  68.6934128  40.7751083  72.9431076   4.2690887  17.4824944  24.8418007
   4.5455346  16.6671257  25.2601109   3.7598131  17.9357109  25.5137119
   1.3239185  51.9526291  77.6652527   1.2083428  51.1811409  78.2199402
   2.2726901  52.0461769  77.5797348   4.3937044  31.6779766  39.5649033
   5.0171270  31.7564373  38.8428116   3.8822579  30.8963280  39.3559074
  15.3824759  40.9350967  61.7214050  16.2726059  40.7362099  61.4309845
  15.4942808  41.3169594  62.5919876   4.0256076   3.7384679  37.2783966
   4.1547937   3.7185173  38.2266273   3.7490389   4.6359296  37.0931816
  36.3793144   0.5896422  21.0268745  36.8127098  -0.0788998  20.4963551
  36.8708382   0.5994636  21.8481789   2.4472582  55.9882088   2.3284883
   2.0256631  56.4577332   1.6087409   1.8517082  56.1008453   3.0693424
  64.1264954  71.2230072  89.1821442  63.4063721  70.5933380  89.1479950
  64.1409683  71.6178360  88.3102875  54.3910904  51.6814041  81.9442520
  53.5577126  52.1001205  82.1596298  54.6917572  52.1368103  81.1578445
  58.1760483  12.3043613  57.2046928  57.7551613  12.7337646  56.4599113
  59.0288315  12.7329216  57.2776833  49.0418739  48.7841721  66.8004379
  48.4499474  48.1292725  67.1705322  49.2972603  49.3255272  67.5473938
  28.0977974  51.5995827  10.6030827  27.3059464  51.4809647  11.1276150
  27.8831081  52.3141747  10.0035000  86.4461517  58.1684952  40.6136932
  87.0428314  57.4502869  40.4030266  86.0389023  58.3946419  39.7774925
   5.7684164   3.5254848  15.6507168   6.0879283   2.6254797  15.7150173
   5.8463025   3.7414777  14.7214632  14.9794683  67.6929474  80.1161957
  14.6474247  67.9869766  80.9644470  15.3455992  66.8257523  80.2898331
  64.8341599  22.4379921  76.8533020  64.5830460  21.8077698  77.5285721
  64.0867004  23.0326672  76.7908401  66.9315414  51.8613892  33.3610458
  67.3276138  51.4375572  32.5996513  67.3144302  51.4093933  34.1129341
  32.7326050  62.2726288  38.8391342  33.3106842  61.8410950  38.2099762
  32.4064827  63.0436592  38.3750343  85.7230988  46.9358597   2.2796834
  85.2438431  46.1181030   2.4131763  86.4920654  46.6822166   1.7692044
  49.6707001  16.3384151  78.5320740  49.4899254  16.0399590  77.6407394
  50.5676079  16.0513515  78.7034988  73.2470016  70.1615448  23.6653652
  73.8187866  70.6234207  23.0522118  73.8237305  69.5389709  24.1081142
  43.0763092   9.9026947  67.9789047  43.9835777   9.6216946  67.8600006
  42.9189224  10.5146637  67.2599106  44.3662148  49.7034492   8.0925875
  43.4730453  50.0345917   8.1865454  44.6586914  50.0402946   7.2456965
  58.2581482  55.8001137  26.1292534  57.6840553  56.4562340  26.5244122
  58.9052200  55.6081009  26.8079758  86.1016998  36.4056015   1.5122900
  85.4687729  35.8570213   1.9756482  86.8527756  36.4563370   2.1035070
  75.7200775  71.5893707  28.0696831  76.2657547  70.8029709  28.0639114
  75.9030075  72.0139847  27.2315483  32.7571564   3.0299189  70.7145538
  33.5027885   3.1841600  70.1344910  32.7359924   3.7971034  71.2865753
  50.8715172  63.6375008  37.3646088  51.4579277  64.0393295  38.0056152
  50.8612366  62.7093010  37.5982170  32.2454948  62.9067879  44.2112732
  32.5815811  63.8027229  44.2353134  32.1374435  62.7164345  43.2794342
  25.8852730  54.3953400  76.2429352  25.2149296  54.9953613  75.9160538
  25.9256458  53.7004204  75.5858994  16.5052834  63.1175003  78.3007507
  15.9854298  62.7395401  79.0100632  16.4691811  62.4636040  77.6026459
  54.4335747  14.2838163  27.3857193  55.0255852  14.8643398  27.8639965
  54.9894485  13.8616581  26.7307224  86.2869492  16.0497246  84.8240128
  86.6355057  16.7334023  85.3961334  85.7233353  16.5174561  84.2077332
  44.2319870  36.6052017  36.1231003  43.6337357  35.8699265  36.2561302
  44.3186798  36.6744499  35.1723518  85.1927490  69.9140472  20.5881310
  86.0205536  69.4334564  20.5844498  85.2646866  70.5206451  19.8511810
  51.1741180  19.7522297  14.4358492  51.3173943  20.4324379  13.7778072
  50.8192253  20.2207890  15.1913204  63.7014694  17.4544468  23.6624794
  64.6335144  17.2429600  23.7153378  63.2749329  16.7956600  24.2104721
  40.3465805  43.0953979  10.8630466  40.4578133  43.6677017  10.1038828
  40.2448769  43.6950417  11.6021805  41.3861542  56.6500397  26.9306545
  41.8187866  56.5670052  27.7804585  42.0692062  56.4428444  26.2928905
  79.9014587  42.3986397  17.8694782  79.8163071  42.9101868  18.6740284
  79.2449036  41.7073212  17.9545860  45.2140160  56.1602364  23.0104179
  45.6289482  55.5469704  22.4038143  45.0652962  56.9491158  22.4890881
  48.8019333  31.5785294  73.9766693  49.2803116  31.5938263  73.1477280
  48.0018196  31.0903244  73.7824860  78.8040771  50.4823112   9.7171068
  79.0683670  49.7914963  10.3246908  79.4593506  51.1697807   9.8363867
  28.6479130  47.4112396  78.0330353  28.0014668  46.8322182  77.6292114
  28.8908558  46.9687462  78.8463135  36.4319000   4.9265537   8.9138041
  36.1819534   4.0089383   9.0221653  37.1330872   5.0607014   9.5514317
  34.6652336  65.1248550  83.4935379  34.5000763  65.7590942  84.1911774
  34.9033699  65.6589584  82.7357330  74.1612167  38.1388321   4.8518476
  74.7402573  37.5648117   4.3504038  73.4513474  38.3514481   4.2459469
  74.6421204  69.0250702  84.1093826  74.8315659  68.6565857  84.9722595
  74.0921478  68.3674316  83.6836090  75.5711899  54.2503090  15.6551151
  75.0315857  53.4597473  15.6638641  75.4655609  54.6220932  16.5308151
  14.4748745  59.0906563  70.4920044  14.0777292  58.2400742  70.6791306
  15.1984444  58.8916283  69.8978119  63.9716034   0.1853568  69.4533920
  63.5570297   1.0023342  69.1760712  63.7717896  -0.4347136  68.7520905
  46.2005692  32.3979645  21.4814682  46.2780304  31.4976139  21.7970657
  46.5386467  32.3679619  20.5864639  52.0097237  38.8295746  44.6591454
  52.0125160  39.6268578  45.1888313  52.7332840  38.3083611  45.0070381
   3.0558796  71.3058472  40.1103325   3.9067540  71.7308578  40.2180748
   2.8658161  71.3839264  39.1754456  81.3958969  61.4014015  50.6999016
  81.9474106  61.6578255  51.4390335  81.8435593  60.6466599  50.3175430
  86.1584091  12.4582319  47.3460350  85.8682556  11.8526030  48.0281334
  86.3678513  11.8962383  46.6000252  58.6335297   9.6762400  11.9075432
  58.4351921   9.6371069  12.8431511  58.3077774  10.5322008  11.6292496
  30.8202229  44.6632652  57.1935539  31.7433014  44.6166039  56.9445953
  30.5569839  45.5562515  56.9710464  78.8201752  10.4976587  44.8308754
  79.0820236  11.4093237  44.7022896  79.6315689   9.9993477  44.7330971
  81.3414154  69.3692551  49.9023323  81.8368988  68.5950089  49.6353683
  81.4997787  70.0067673  49.2061081  77.4055557  50.0258484  20.0414600
  76.9510117  49.1845436  19.9986782  77.8758240  50.0018997  20.8748264
  44.3780556   9.0574646  58.0921631  43.5338097   8.8271656  57.7042885
  45.0258789   8.6761293  57.4995918  49.7717896  25.0452271  20.4944801
  49.1173286  25.3206444  21.1363964  49.8272743  25.7769928  19.8799305
  55.5617294  13.5783682   6.2552176  56.4841576  13.8297138   6.3019457
  55.2828064  13.8523026   5.3814931  20.4552135  66.2277374   2.0803618
  21.3868389  66.4144287   2.1963499  20.0136356  67.0297699   2.3596337
  50.3056717  68.0296936  71.6637115  49.8265877  68.3811798  70.9132690
  50.9665794  68.6941452  71.8584900  79.8368683  12.9028759  43.9663658
  79.7013855  13.6474915  44.5523911  79.2522125  13.0703402  43.2272034
  20.1976032  11.0938969  82.0093231  20.5209045  10.9531822  82.8992157
  19.9128571  12.0077114  81.9996414  48.0719528  34.4516754  59.3362389
  48.6123695  33.8736610  58.7976456  48.0748596  34.0440369  60.2022934
  41.6716003  63.3760338  84.8241196  40.7604790  63.5755348  85.0392685
  41.9409332  62.7411003  85.4878616  59.8421097  64.5194244  32.6402817
  60.1610069  65.4151077  32.7511635  59.4299965  64.3065338  33.4775810
  50.9330978  20.3613586  69.0279694  50.1725235  20.0227604  69.5003128
  50.5607262  20.8755016  68.3115692  84.8633118  60.0033798  85.9618988
  85.3116302  60.8405762  86.0816650  83.9441299  60.2395935  85.8372192
  38.1607323  63.5273514  30.7885437  37.9541473  62.6453362  31.0977402
  39.0635643  63.4664040  30.4764328  33.4395752  62.6666222   9.4035101
  33.9399261  62.5041466  10.2031870  33.7547073  63.5150948   9.0920334
  17.2071648  21.8330383  66.5808105  18.0344162  21.3576202  66.6573868
  16.6776276  21.2985344  65.9890900   2.0342073   4.8708081  63.0303040
   1.4657030   4.6862659  63.7779541   1.9799913   4.0837936  62.4881783
  49.7372246  54.8746719  24.1710167  49.4634323  54.3907509  23.3918591
  49.1284370  55.6115990  24.2214928  73.6426468  71.7545166  45.8886948
  73.5214767  72.2732544  45.0934258  74.0795135  70.9568710  45.5901260
  85.0831833  55.1197853  46.9246864  85.6495438  55.8602562  46.7075081
  84.2532272  55.3177223  46.4908218  75.2043839   7.2244868  37.4670486
  75.7385178   6.7908516  38.1325531  75.5495071   6.9011040  36.6348534
   8.4143438  63.6599579  44.4088326   8.6365938  63.0715675  43.6872787
   9.0308037  63.4299240  45.1040230  43.9458351  16.8227901   7.2222371
  44.4488564  16.0120125   7.1458006  44.5852356  17.5172100   7.0635462
   7.3136964  49.9498253  37.6141090   7.8570437  49.2783165  37.2016983
   6.7828851  49.4708557  38.2505531   4.8672180   8.4552975  49.1926308
   3.9176266   8.4774761  49.0742416   5.2112546   8.9766073  48.4673004
  48.3223114  63.2475471  12.1733551  48.4478836  63.7426338  12.9828949
  48.6664391  63.8192940  11.4871206  49.8257713  23.0574856  13.6563892
  50.6649742  22.6097965  13.5489454  49.6430588  23.0019741  14.5943480
  17.7037468  69.3023300  47.6497116  18.6295147  69.1982574  47.8696136
  17.6549587  70.1540527  47.2156372  82.2493591  22.6424294  25.6534805
  82.4931641  22.6846371  24.7288132  81.5138550  23.2495441  25.7352009
  83.9244919  58.0589256   1.0448362  83.5419464  58.5822716   0.3405640
  84.8651733  58.0707130   0.8681718  52.8228683  36.5773354   2.0398703
  53.0489540  35.7786522   1.5631909  53.2261124  36.4647865   2.9006593
  80.1447906   3.7141376  64.5090561  79.8163223   4.3986721  65.0919342
  79.5554886   2.9737418  64.6531601  25.8542786  54.6243515  13.0674067
  26.7460651  54.8498154  12.8026190  25.5468292  55.3912201  13.5507479
  44.2161560  70.5522308  22.4717579  43.9667511  71.0918579  21.7215405
  43.4954720  69.9298630  22.5692730  33.4381676  38.4714241  80.7021408
  33.4359894  39.3039780  80.2298203  33.8113899  38.6825333  81.5579300
  77.1031723  35.6793137  37.6253014  76.6202621  35.7331963  36.8006058
  76.5988388  36.2192154  38.2338905  61.6179008  55.4914246  73.0758514
  61.7457962  55.7003708  72.1505356  61.1276360  56.2361755  73.4240265
  79.9922562  10.7774668  86.5065384  79.9909515  10.7044611  85.5521240
  80.6363068  11.4604282  86.6936188  54.8943138   9.9766417  50.1545067
  54.7783279   9.1400766  49.7040176  54.0249481  10.3770437  50.1436958
  35.3897057   5.2594633  81.0080643  36.2886734   5.3588734  80.6946945
  34.9780502   4.6735382  80.3728790  66.7211609  50.0117569  45.7851334
  67.2138748  49.6210823  46.5068245  65.8470993  50.1617050  46.1453743
  80.1111069  58.7780838  76.7522430  80.0282288  59.7234764  76.6273499
  80.5185089  58.4646225  75.9447861  64.1452789  41.4613609  78.8896408
  63.9538307  40.6101379  79.2833328  64.6326675  41.9333572  79.5648499
  62.5538788  65.1054001  14.8443193  62.1093407  64.3075790  15.1308460
  61.8443718  65.7112122  14.6302662  84.2174301  39.7402191  68.3813324
  84.6960068  39.9509315  67.5795822  83.3395233  40.0928841  68.2359314
  12.6668367  52.7573929  44.8635674  13.2205420  53.2980156  44.3002129
  12.0292788  52.3648529  44.2671890  15.3465090   3.9522920  76.9304276
  15.8056011   3.5936663  76.1709213  14.8806410   4.7160587  76.5900421
  33.7198944  48.5824966  79.4509506  33.6619720  49.2777557  80.1063004
  33.6590347  49.0387611  78.6116943   9.9471979  58.4929276  30.1355915
   9.7970934  57.5580139  29.9954662  10.8982220  58.5747681  30.2069111
  75.5186157   9.0527525  31.3638420  74.7225189   8.7096157  30.9579887
  76.1621323   9.0658550  30.6553612  84.0968018  21.1415100  77.6169434
  83.2691879  20.7755222  77.3049622  84.1573792  21.9956360  77.1891251
  17.5737305   9.5089178  88.2567368  16.8364601   9.0411425  88.6489792
  17.3429451   9.5865507  87.3310242  86.3410263  33.2839737   4.5111189
  86.6594467  33.7881889   5.2598553  85.7275391  33.8716393   4.0700827
  38.1985321  50.8187752  22.2326088  37.4919548  50.3087082  21.8366184
  37.9652214  51.7298317  22.0543575  63.4617920  39.6190796  21.5975018
  63.2485008  40.0018883  22.4484997  64.1988068  40.1399345  21.2785225
  79.3463821  39.8309059  37.5015297  79.5908432  40.3912735  36.7650146
  78.7783127  40.3799400  38.0419807  48.8789406  51.3816872  16.6825142
  48.4160957  50.7123108  17.1864357  49.4276810  50.8867455  16.0741177
  53.6992874   5.7026553  12.9545536  52.9618797   6.1437540  13.3763256
  54.0665550   5.1428123  13.6386013  79.3217010   9.3760366  27.3136368
  80.1472549   9.2956924  26.8358860  78.7108612   9.7453089  26.6758747
  32.5403404  64.5276337  72.2778854  31.7930107  64.6659317  72.8597870
  32.7754898  65.4054565  71.9772797  75.7167130  23.8883266  43.5193481
  75.1362457  24.6315727  43.6833000  76.5396729  24.1286907  43.9450150
  67.5383072  58.5056419  45.9626465  68.1176682  58.1480598  46.6354790
  66.7306519  57.9990654  46.0481339  67.4610901  44.9335632   2.5865574
  66.7203979  45.4984398   2.8068461  68.2293396  45.4158974   2.8921397
  57.5142746   9.4689655  60.9570160  57.4399300  10.4175806  61.0611038
  58.3251610   9.2409487  61.4116669  52.7500763  55.9843140  80.7091599
  52.5089493  56.3365784  79.8524246  52.2817688  55.1514397  80.7661133
   6.3452249  59.0516319  39.1332779   5.7354321  59.7642746  39.3243980
   6.8182302  59.3436508  38.3540306   4.2767820  18.8077488  54.2873001
   3.5931365  18.4541664  54.8563690   4.2880387  19.7451973  54.4804230
  48.0935402  28.4444504   3.6888974  48.9284668  28.5962410   4.1317110
  47.5816841  27.9296227   4.3127460  86.4388428  19.4300232  77.4824753
  86.9512558  19.8811703  76.8115616  85.7384949  20.0443401  77.7023849
  53.3077278  29.4328613  60.6725502  53.0178909  29.8423538  59.8573570
  53.8162270  30.1127930  61.1145401  67.1895981  13.2209702  52.4105759
  67.9939880  12.7231340  52.5566597  66.9540024  13.0341501  51.5018234
  85.2093735  66.4323196  53.4576302  84.2693100  66.3210373  53.3157082
  85.6189270  65.8582764  52.8103561  44.9855957  26.4640903  81.4070892
  44.7615242  27.3324718  81.0725174  44.7367554  26.4918194  82.3309555
  57.3278656  43.4623871  64.2723618  57.9014893  43.8847160  64.9117584
  56.4507675  43.5437355  64.6469498  46.6503372  46.8126259  11.5132399
  45.9266510  46.5272446  10.9555054  47.4298973  46.7034912  10.9686213
  75.8968277  42.3475342  56.9037399  75.9026031  41.6335068  56.2662697
  76.2903366  41.9696350  57.6902313   9.7411642  61.7684212  40.2741203
  10.0471487  61.0775871  40.8617897   9.7629662  61.3698540  39.4041176
  31.1290703  58.6946220  20.3928356  30.9799442  57.7915878  20.1126080
  31.5287685  59.1182213  19.6332054  52.6547318  20.4748878  80.9618454
  53.3382492  20.0048409  80.4842606  52.4609337  19.9161129  81.7144699
  26.6695271  66.6416855  74.0711517  27.1639023  66.0103073  73.5484695
  27.0805740  67.4847641  73.8801498  74.4030838  44.6853905  16.8355103
  74.5434647  45.2820892  16.1003418  73.7422485  44.0686531  16.5205956
  39.3625984  25.2808743   9.5411320  39.0267868  25.4091434  10.4282665
  38.6685524  25.6133175   8.9719124   9.1164913  57.8683319  43.7221947
   9.7009706  58.0393257  44.4606934   9.4823275  57.0897141  43.3024979
  53.0775070  40.9149666  52.9606972  52.2896347  41.0419464  53.4892502
  53.4235268  41.7979050  52.8306084  12.4236412   9.9467030  12.1591473
  12.4047155   9.3794327  11.3883820  13.3527822  10.0268373  12.3748007
   9.9788294  49.6869583  33.7969170  10.8501234  49.3016090  33.7042694
  10.0026875  50.1321983  34.6439247  75.2309418  38.7226982  24.2303505
  74.4792252  38.4122238  23.7256203  74.8459244  39.2178764  24.9533958
  48.3899498  23.7312717  85.6846008  47.5262718  24.0610886  85.9326096
  48.7062912  23.2772408  86.4656372  19.9477921  27.6692257   3.2337086
  19.7140484  28.5584393   3.4999688  20.8879356  27.7109356   3.0587089
  39.7195473  64.0720901  23.3069973  40.5644531  64.1608963  22.8659973
  39.9428558  63.9445267  24.2290039  74.9262695  49.4329185  50.5388412
  75.1306686  49.2905045  49.6146240  75.3589935  50.2588158  50.7553368
  80.2655411  44.8882561  77.4850616  81.0935822  45.3356094  77.3105698
  80.4418793  43.9698143  77.2810974  82.0401764  27.0731506  74.5860901
  82.8039856  26.5037670  74.6789398  82.3490906  27.8025780  74.0487442
  82.6348038  50.9899216  10.6522980  82.8548813  51.1071930  11.5764427
  83.4625626  51.1224594  10.1902704  56.3416595  33.5954552  69.6721878
  56.3494225  34.2409592  68.9654388  57.2660637  33.4482384  69.8722687
  79.5481339  48.3477554  67.9723740  79.1723099  48.9397202  67.3207932
  79.7196274  47.5387650  67.4903412  86.1188583  29.8263397  68.7111359
  85.8251343  30.4583836  69.3672485  87.0459976  30.0271339  68.5833435
  58.6065636   2.3769279  75.7262039  58.9003220   2.4984086  76.6290817
  59.3857918   2.5446224  75.1961899  44.4614334  37.1758003  81.3161621
  45.2725410  37.5446205  80.9664383  44.3994064  36.3093529  80.9141006
  17.3208733  45.5431709  86.7293930  17.1886101  46.4316521  87.0600586
  16.5206718  45.0763741  86.9702454   1.9221652  41.2205772  65.5479355
   1.9575603  42.1478348  65.3130341   2.0049050  40.7588081  64.7135773
  85.2611389  43.9443741  15.7204256  85.2406387  44.1544342  16.6540680
  85.8413010  44.6034698  15.3393202  62.8093109  29.3943329  70.8210602
  62.6021385  30.3287716  70.8328171  61.9578362  28.9609394  70.7628326
  12.0983629  70.9871826  58.2519226  12.5722256  71.4687042  58.9300270
  11.4973850  71.6308365  57.8767395  12.9129744  22.3224220  76.4764938
  13.8592501  22.3239994  76.6206894  12.7612457  23.0508251  75.8743057
  81.9698257  41.8388405   1.8470298  82.2106323  42.0565338   0.9465546
  81.1223297  41.4007721   1.7690895  62.0085487  66.1889648  67.8491135
  62.6336174  65.5187836  68.1254883  61.7668190  66.6393356  68.6584091
  44.7825813  11.0249767  22.1951523  45.6283569  11.3990116  22.4421234
  44.1381340  11.5759706  22.6393604  77.4648590  24.5866871  27.8608513
  76.9240189  23.8992882  27.4719982  77.4721985  25.2848396  27.2060528
  39.0862198  57.3278465  21.6362095  39.0042267  57.8024750  22.4633942
  39.1842804  58.0133896  20.9754143  73.2588577  40.1819382  85.3012772
  73.5949478  40.0625305  84.4130096  72.6177750  40.8882942  85.2218552
  52.5353584  28.6783886  53.1100273  52.9316711  29.2304726  53.7840958
  52.8246841  29.0646896  52.2834129   4.5493155  44.9187737  45.5386658
   5.4026752  45.2680740  45.7955627   4.5312734  44.0355148  45.9071274
  49.3140869  13.2617188  13.6644335  49.8188934  12.4485569  13.6775427
  48.5532150  13.0802059  14.2161198  42.8150673  13.7280083  65.6715317
  41.8824043  13.9420843  65.6948853  43.2472382  14.5606623  65.4814072
  76.4510269  56.9810257  80.7661514  76.7781754  56.8811798  79.8721542
  77.2206116  57.2341690  81.2759476  42.8264503  19.7136955  82.3977432
  42.6204109  19.5907536  83.3243790  42.2255173  20.4000072  82.1077652
  44.7685432  34.3834991  18.8414497  44.9780540  33.6992912  18.2056847
  43.9399872  34.1034393  19.2304134  62.6884575   6.3056664  25.2077579
  62.9253960   6.2805471  26.1348305  61.7493629   6.1207895  25.1954651
  73.8806610  62.0211525  17.0554409  74.2609253  62.7866173  17.4863663
  73.2905731  62.3860397  16.3959827  16.0417175  41.4181099  40.1368675
  16.9319019  41.4199181  40.4887199  16.1587620  41.4796219  39.1888428
  83.3844299  47.5481720  28.5555229  82.4405212  47.4388924  28.4400902
  83.6712112  46.7333717  28.9679413  60.3521309  13.8578491  56.8527832
  60.7766457  13.7816734  55.9982567  60.7332230  14.6458530  57.2401505
  59.7661362  36.8271446  78.6377106  59.8876915  36.3711395  77.8049316
  59.0599899  36.3486061  79.0719757  72.7262115  39.0548973  56.8274803
  71.8263016  38.8054466  56.6173363  72.6667557  39.9765358  57.0790329
  61.4059601  46.6601562  16.9008713  60.7574272  47.3496552  16.7586327
  62.0570450  46.7981300  16.2129135  21.9689388  35.5333824  73.7773743
  21.1448936  35.0911751  73.5733337  22.4369202  35.5647621  72.9429626
  52.6137581  19.8833961  19.8368969  51.9831734  20.3902588  19.3253441
  52.6495171  20.3295250  20.6830196  27.6107502  59.2128677  38.9548798
  27.8264027  58.6440659  39.6939278  28.3023872  59.0461235  38.3145180
   7.5282183  65.4104309  46.9920654   7.7385869  66.3431854  47.0362892
   7.0892410  65.3036575  46.1481895  18.3465214  51.5862465  64.3359604
  19.0258331  51.9393806  64.9104767  17.5299282  51.9483566  64.6798859
  11.5292444  15.6439829  56.3399391  11.7296600  16.4159622  55.8106804
  11.5908737  15.9511108  57.2444305  71.4700241  13.1140976  72.4181824
  70.6830139  12.9658709  71.8938980  71.4197311  12.4605532  73.1157379
  13.4702148  40.9782104  53.2803574  14.1454868  41.6565742  53.2881813
  13.7614269  40.3580704  52.6118813  76.2820587  70.9757004  59.3296738
  76.8518219  70.4573135  59.8978958  75.4685898  70.4733353  59.2835770
  84.6202240  26.0710354  37.4321404  85.2596054  26.5778008  36.9315262
  84.9001923  25.1617298  37.3271942  30.9644299  70.6963425  65.0628281
  31.4293251  70.5545502  64.2382050  31.6226101  70.5369720  65.7393112
  11.2806559  56.2614021  53.2309074  11.0306902  57.1843300  53.2750778
  10.4607725  55.7847328  53.3605652   7.2067571  65.0865936   2.8595424
   7.7989793  65.2489243   2.1252730   7.2587099  64.1419067   3.0048175
  15.2945938  29.3571396  79.3876953  16.2259979  29.3133488  79.1713562
  14.9963188  28.4485016  79.3471832   4.6596498  56.2414589  38.9728470
   3.8057187  56.4594803  39.3463478   4.9970989  55.5455132  39.5367813
  52.7495689  10.0557804  63.2162209  52.1320610  10.5294933  62.6589890
  52.6002235   9.1333046  63.0089378   1.3041151  41.3556023  77.2203293
   1.3143932  42.2586670  76.9031525   0.6362737  41.3501663  77.9060287
  78.1997223  66.7337723  81.0335007  77.7035828  66.0106583  80.6498566
  78.9680099  66.3167801  81.4234848  10.9704466  65.6855087  45.8791351
  10.7133169  64.7648163  45.8297119  11.3726120  65.7758331  46.7430420
  74.6415253  29.6272202  10.7717657  74.6890335  29.7608624  11.7183990
  73.9667358  28.9579449  10.6579332  49.7742538  41.6315193  33.4354553
  48.9728432  41.1533508  33.6483650  50.3220482  41.5399971  34.2150536
  73.4900055  17.5880833  31.1537895  73.2210693  17.3221760  30.2744713
  74.3064728  17.1130199  31.3084641  53.1844749  52.2585220   2.2874596
  52.7584267  51.5690918   2.7967689  53.2965965  51.8781776   1.4162543
  61.6681671  38.0930099  35.1417465  60.9560318  37.5053864  34.8891716
  62.3604584  37.5101471  35.4535713  44.0028610   2.5776167  73.7263641
  43.3239899   2.8513525  74.3431549  43.6393089   2.7805550  72.8644638
  56.8169441  38.4813652  23.8742180  56.4261971  37.6078148  23.8528156
  56.0935287  39.0725136  23.6657753  83.1827240  57.3231239  22.5345440
  83.5736465  56.8239174  21.8174648  82.4832764  57.8289337  22.1208248
  83.5499802  66.9340210  74.1093826  83.9490433  67.3204803  74.8888931
  82.7290497  67.4134674  73.9978485  25.1771374  48.6123314   7.6842909
  24.7162056  49.3774643   7.3402734  25.9062901  48.4795914   7.0785289
  50.4184990  71.6476669  19.9874535  50.4324570  71.0709839  19.2235985
  49.5021286  71.9109879  20.0720501  32.7229919  52.3905869  59.9479332
  33.6519775  52.6194267  59.9770927  32.3766785  52.6873856  60.7894859
  23.5994968  12.1039610  74.0294571  23.2044964  11.6020870  73.3164825
  23.9176979  12.9041281  73.6114731  81.9085007  65.4063644  46.8305779
  82.6808090  65.8327332  46.4591255  81.5763931  64.8538208  46.1230278
   8.7940245  42.2829399   8.5615215   8.4258871  41.7618790   9.2751083
   9.3101130  42.9592171   9.0003052  21.8222561  14.7715178  70.9814835
  21.6576328  13.9896355  70.4544296  21.0131969  14.9016027  71.4761963
  39.0828743  38.5369530  16.1707764  38.4823914  39.2488708  15.9498129
  38.8885422  37.8523293  15.5306559   5.2855706  24.6583843   5.0250626
   4.9028816  25.3199787   4.4488029   5.6308222  23.9930553   4.4297733
  60.3482857  63.0184593  87.0416260  60.5431862  63.4432259  86.2062759
  60.6863747  62.1284676  86.9424057  40.5442162  49.3191910  72.6302872
  41.3195839  49.0244904  73.1079788  40.7520638  50.2153473  72.3658371
   6.2206712  27.3400936  23.8485432   6.1826682  26.5552692  23.3018818
   6.0390530  27.0244198  24.7337532  24.0163918   2.1100960  83.6559830
  24.2367592   1.6435763  84.4622269  24.4459877   1.6078392  82.9635849
  27.0928154  48.1986084  70.2220688  28.0477619  48.2383003  70.1697998
  26.8892155  47.2643051  70.1789932  56.5654411  64.3260040  64.4730301
  55.8278008  64.5642242  63.9114532  56.1791077  64.2152939  65.3417740
  41.4662704  56.7910919  47.6205635  40.5661850  56.6028976  47.8863907
  41.9952583  56.1501198  48.0954971  13.0471001  46.1795845  28.2082214
  12.4318390  45.4490700  28.1447296  13.8185501  45.8857956  27.7236748
  10.5161104  10.6735144   2.3961899  10.7123775  10.5660820   3.3268721
  10.0732784  11.5203228   2.3409913  78.7421951  58.2934189  82.0491638
  79.4851608  58.7252579  81.6275558  78.2124329  59.0116959  82.3950806
  86.7617493  70.8599396  87.8995972  86.2520981  71.4778137  88.4237366
  87.0242920  71.3606644  87.1272125  40.8579674  31.4693203  85.8503571
  40.5295334  32.1948853  85.3193970  41.6970329  31.7812233  86.1893463
  65.2039108  32.6552963  16.5175953  65.2941589  31.8443146  17.0179863
  65.3013916  33.3504028  17.1684093  39.4931755  62.0348663  38.1837769
  39.1355705  61.3794746  38.7827873  40.1607590  62.4897270  38.6972618
  40.1704903  52.6209373  32.2566147  40.4127541  51.8099289  31.8096180
  40.5971832  52.5600281  33.1112823   3.4188454  46.1673126  47.8371429
   2.5021315  46.4257851  47.9323311   3.4782186  45.8184357  46.9477654
   6.8472819  19.3438129  67.1905670   6.6007652  18.4190235  67.1756210
   7.7195325  19.3528385  67.5846863  18.8130627  17.3530064  72.8928528
  17.9445724  17.7494869  72.9618454  19.2630539  17.8759289  72.2293091
  82.5359192  57.4889069  71.5578995  81.7230530  57.4701500  71.0528030
  83.0166245  56.7139854  71.2669601  39.2212601   2.3525155  16.3025780
  39.8387604   2.3686819  17.0337849  38.5714340   1.6955699  16.5523415
  18.6334515   3.5347435  14.1118279  18.8857651   4.2407546  14.7069063
  18.3062611   3.9838789  13.3324337  78.2035294  41.0504227   7.6232390
  77.7587891  40.2630997   7.3092995  78.0000687  41.7178345   6.9679523
  59.4115448  54.1496239  39.6176834  58.5179596  54.4381332  39.4319420
  59.9443855  54.9378777  39.5129395  44.9676437  12.2320147   0.2891348
  44.5423203  11.4624929   0.6675084  45.7992973  11.9027071  -0.0516583
   3.2563822  58.4765778  34.0821877   3.7978601  57.7079620  34.2617950
   2.3768709  58.1237373  33.9473038  82.0738678  13.2494001  83.2118912
  82.7654343  13.4018431  82.5678864  81.8361664  12.3295965  83.0948944
  76.3659210  25.5938683  67.2592773  75.8653717  24.8265724  66.9819031
  77.0141830  25.7202282  66.5664368  59.8276978   0.3902227  18.0292339
  59.3758850   0.5116206  18.8643150  59.4214096   1.0278285  17.4421883
  64.4504623  52.3389168  62.1472855  63.7747116  52.8783112  62.5579567
  65.1386871  52.9591904  61.9067955  63.0745964  41.6174545  10.5225401
  63.5855560  40.8080864  10.5311279  62.6198997  41.6047211   9.6803293
   1.4459814   9.1400938  42.9596443   0.8346260   9.1210489  42.2233620
   2.2098866   9.6095791  42.6245880  86.4209671  48.3543472  57.8188858
  86.9215469  48.0804710  58.5874176  87.0057144  48.9517174  57.3525772
  19.3560505  55.1429100  49.0253220  19.6974316  55.8507652  48.4788475
  18.6406975  55.5446625  49.5183716  25.3481464  13.6049805  59.2270088
  25.5086880  12.8688469  59.8174019  24.4591694  13.4620266  58.9021797
   6.1484513   2.0924046  43.7545547   6.1272855   2.7372508  44.4616318
   5.3957696   1.5259582  43.9243774  30.7495995  46.9953918  32.7923050
  29.8137989  46.8109894  32.7116661  30.9128437  46.9977837  33.7354813
  58.3694954  42.7090988  40.1093102  58.1642303  43.5586472  39.7189713
  57.9076958  42.7128830  40.9477348  61.9715652   2.0749445  48.9355888
  61.2185173   1.5400491  48.6845093  61.6956673   2.5144110  49.7399406
  23.7475128  16.3448792   7.0163321  23.9073009  17.2874336   6.9684687
  24.2965260  15.9735060   6.3257537  38.4996567  30.7225933  16.3946075
  38.9582405  30.5980263  17.2255192  37.6157913  30.9900246  16.6465950
  32.4486313  66.4361343  31.1414318  32.0645943  66.7152939  30.3102779
  33.0965958  65.7757111  30.8960552   3.8057017  27.2803535  16.6097698
   2.9879510  27.7486420  16.7777634   3.8388748  26.6054859  17.2877712
  22.0163708  11.2142334  77.1921616  21.5361137  10.8252449  77.9231033
  22.8485928  11.4933949  77.5738754  26.5653648  35.6531258   5.9096532
  26.8748474  36.4908180   6.2542233  27.1421852  35.0020256   6.3091235
  26.8654194   9.1081820  68.6290588  26.2196522   8.4973345  68.2739792
  27.1362743   8.7149267  69.4586487  56.7058029  15.5877905  55.4402466
  56.5817833  15.0736017  54.6424637  55.8675804  15.5253096  55.8981934
  66.0283966  41.0743752  74.3916473  65.2449493  41.1736031  73.8507233
  66.0415039  40.1464691  74.6262741  44.1917572   0.6329049  16.3551178
  44.6601601   0.1778973  15.6552610  43.8320007   1.4137340  15.9342709
  32.6600075  51.3114128  10.3640079  32.6581078  51.7216873   9.4991941
  32.7258301  52.0440292  10.9765205  26.3568821  61.2805023  73.9726791
  26.2563076  62.0909920  74.4719009  25.6862755  61.3338470  73.2917404
  38.6985970  12.2176514  63.4912949  37.9521828  12.2779579  62.8950882
  39.4622879  12.3725491  62.9354019  82.6089401  31.2168369  23.6341667
  82.4586563  30.9711189  22.7213306  83.2612915  31.9159050  23.5897446
   4.7409739  47.4394913   7.8995867   4.9969845  46.7510910   8.5134230
   4.7559333  48.2424736   8.4203825  61.4306488  68.6555023  51.2508888
  60.9421043  67.8350677  51.3175545  61.9787369  68.5454330  50.4738998
  80.3634186  36.2256927  66.5298157  80.8166122  36.0531273  67.3550797
  80.0272293  35.3716660  66.2580490  20.7231560  37.6594238  10.8530169
  20.9755707  38.0219917  11.7021723  21.5117531  37.7360191  10.3159132
  78.6929321  27.6586494  62.0815277  78.2196503  27.6543827  62.9135208
  79.4827423  27.1456642  62.2526283  38.2368202  34.0430450  57.8800735
  38.5851707  34.8944397  57.6154671  38.4326744  33.4645691  57.1430283
  62.8213158  19.0498009   3.3643384  62.0635033  19.5528851   3.0662532
  63.0732574  18.5238571   2.6052990  53.2211990  33.7917290  12.5270061
  52.6432724  33.6924362  11.7704506  53.8343391  34.4808350  12.2712259
   7.8204694  34.3789864  53.8603706   7.2597671  33.9384956  54.4989700
   8.5718231  34.6820641  54.3701210   3.5808749  46.1509895  66.6380157
   3.6229677  46.4676857  65.7357025   3.5066159  45.2002983  66.5549545
  37.7051353   1.3045558  12.4586639  36.8795662   1.6156604  12.8299866
  38.2656517   2.0801907  12.4376068  18.7114487   2.3810182  25.6129284
  19.2222061   2.8802183  26.2502327  17.8804531   2.2074456  26.0551395
  80.1231003  63.9252853  31.1865120  79.2848816  64.3725128  31.0699024
  80.7570724  64.4835052  30.7362843  14.3558197  55.5176430  76.9456940
  13.9221983  55.4816818  76.0931015  13.9403610  54.8219490  77.4552383
  86.3872223  61.3451347  38.7197266  85.7851868  61.6634445  39.3923798
  87.2365341  61.7118759  38.9654999  25.0913601  35.3316612  73.7434158
  25.7088318  35.8581314  73.2356796  24.2438259  35.4888611  73.3272324
  85.2094879  11.6668806   4.5369511  85.6052170  12.1633167   3.8205855
  85.7347412  11.8937178   5.3043394  14.5106277  48.4053116  50.0459595
  13.7731714  47.9086647  50.4005470  14.1632471  49.2871437  49.9120598
   2.1209064  20.5533428  51.4264259   2.1900899  21.1008244  52.2085457
   1.3130298  20.8425980  51.0022812  19.7337646  63.4640274  35.5969849
  19.7028942  63.8802032  34.7355461  19.3220253  62.6100044  35.4652824
  29.1431713  13.7264738  66.7369308  29.5331917  13.7247200  65.8628006
  29.7976494  13.3025436  67.2920685  74.8971863  62.5596962  27.4693909
  74.5288239  63.3211060  27.9174919  75.7089386  62.3736115  27.9412689
  72.7262573  16.7586327  80.7368317  71.8974991  17.1963120  80.5423584
  72.7516403  16.7074471  81.6923294  22.4903584  32.7014618  60.7825050
  22.7450638  31.8867645  60.3493500  23.0955276  32.7799797  61.5199585
  21.8513603  62.6112671  50.5149460  21.5487156  63.4366150  50.8936806
  21.5586147  61.9422035  51.1337242  70.2768402  40.2444916  34.6773109
  69.5512924  39.6878510  34.3945274  71.0476608  39.8668365  34.2537003
  33.2086143   1.7867829  86.7960892  34.0216522   1.8825319  86.3000717
  33.4848099   1.7946970  87.7125473  56.7032280  47.4664154  33.3868675
  56.4360619  48.3164062  33.0370560  57.6573219  47.5195389  33.4426460
  79.6192398   5.2240047  13.4612103  79.7119522   5.5498896  12.5659809
  80.2263031   4.4856400  13.5113897   7.2545147  28.3083973  57.6047707
   6.6844287  28.9881687  57.9641380   6.6542664  27.6794014  57.2043991
  20.7405186   0.7283515  19.7986565  20.0310211   1.3652813  19.7140102
  20.3294201  -0.1148385  19.6082363   7.2826700  65.9811935  79.6258621
   7.6551609  66.5628967  80.2885132   7.6762052  65.1278152  79.8078003
  60.5406303  61.8534012  27.9074306  59.6974716  62.1110458  28.2801609
  60.9344521  62.6753769  27.6150379  68.3580704  37.8539505   9.0043545
  68.3986359  38.4694786   8.2724314  68.3757095  36.9902191   8.5921841
  13.2490940  55.1268654  74.4697723  12.6191282  54.7067566  73.8842087
  13.7800694  55.6778870  73.8947296  82.9506454  45.0025520  74.1288605
  82.3845978  45.5428772  73.5776215  82.6876221  44.1032104  73.9333191
  58.4409332  32.4139137  48.1717415  58.0916252  31.6528759  48.6354637
  58.8388176  32.0504913  47.3806381  59.0816002  44.3656349  61.0478363
  59.6724014  44.9639587  60.5904617  58.7803192  44.8617783  61.8089561
  42.8383331  13.7886477  86.3051300  42.9170456  14.2247238  87.1535797
  43.3502655  14.3335018  85.7073898  71.5544128  13.5671034  82.9019623
  71.8102264  13.8842201  83.7681198  70.8822937  14.1830587  82.6102753
  51.1098213  65.6058807  72.4308929  50.3796959  66.1963120  72.2450562
  51.8326340  66.1864014  72.6691513   0.7115943  15.3968248  80.4184723
   1.3021889  16.1148949  80.1908646   1.0566639  15.0552092  81.2433701
  31.6339188  49.5989304  57.9312630  31.1046619  49.7619400  58.7119980
  31.7384186  50.4609489  57.5284767  65.9907837   9.4547977  81.8712234
  66.9370041   9.4536839  81.7266541  65.7074966  10.3267822  81.5962219
  46.7949791  -0.1435122  11.2332258  47.2027931   0.4633770  11.8509684
  46.0223503   0.3227708  10.9140730  67.4136734  56.7591248  26.7753181
  67.7894211  55.9399185  26.4529095  66.6437836  56.9024734  26.2249012
   3.7626565  20.4121799  88.9315338   3.2018249  21.1347446  89.2136612
   3.2775288  19.9967232  88.2185898  28.9254074  12.8658457  74.5056686
  29.3887196  12.2235508  75.0432816  28.0157490  12.5679379  74.5072479
  28.3822556  20.9639492  69.0654602  27.6497707  21.4796066  68.7281189
  29.1529274  21.5080223  68.9033356  53.6006622  13.5117159  87.4500046
  53.0917130  13.3568382  88.2457581  54.0481758  12.6815109  87.2865372
  64.3890915  14.3779984  10.1590252  65.0329361  13.8574696  10.6393766
  63.6621475  13.7751694  10.0028734  75.1187210  44.2448502  66.7895203
  74.3768463  44.8199234  66.9769745  75.7109070  44.3683205  67.5313492
  41.1802101  55.7446518  42.4212494  40.3046036  55.6440849  42.0478401
  41.2391510  55.0552483  43.0826759  32.7926979  69.6402283   5.5904703
  32.7627869  70.4838028   6.0418119  33.2328033  69.0544815   6.2064610
  55.5341606  14.6297855   3.5722964  56.4285583  14.8054705   3.2800367
  55.0519447  15.4293747   3.3616791  72.6297760  39.6842575  29.3580132
  72.3612442  38.8185463  29.6656895  71.9495087  39.9384727  28.7344398
  63.6705475  22.4935169  32.6920853  64.3875351  21.8636971  32.7661362
  63.0381012  22.2154388  33.3545952  27.3367939  26.7485180  71.7480392
  28.1422310  26.9454689  71.2697983  27.3121414  27.3960247  72.4525604
  69.6818161  58.2119370  86.1264725  70.5204544  58.6658592  86.0435257
  69.7137146  57.5260696  85.4595337  31.3180370  41.4307785  64.2065430
  31.7884636  42.0570107  64.7567902  30.6729298  41.9607048  63.7383118
  69.4947357  47.1306496  26.9323196  69.7558212  47.6669159  26.1836624
  68.7126160  47.5628777  27.2754002  36.8855057  50.8387794  24.7322025
  37.6626892  50.3804893  25.0518723  37.2311592  51.5396233  24.1794205
   1.3626773  33.3422356  52.3536530   1.3226370  34.1953239  52.7859344
   1.3656101  32.7096252  53.0720024  31.6863766  54.0194283  73.0468216
  31.3056335  53.3510094  73.6164551  32.5715408  53.7035522  72.8653412
  45.8290749  11.6659269  83.4536743  45.1191177  11.0903101  83.1693115
  45.3866997  12.3954086  83.8877182  47.2462234  58.5109482  79.2844925
  47.1871758  58.5357590  80.2395477  47.9708138  59.0999031  79.0739441
  33.8601151  24.0560818  75.5179977  34.7344971  24.4425220  75.5665283
  34.0135345  23.1117706  75.5492020  10.7565079  38.2431679  39.5812149
  10.4115791  37.6300125  38.9321404  11.6902514  38.3049355  39.3798676
  49.6885109  55.7011490  64.4157944  49.1125793  55.7410736  65.1792984
  49.5927696  54.8061714  64.0900955   9.8873043  46.0723648  30.0583630
  10.0979958  45.7666626  30.9406242   9.1951761  45.4825897  29.7594357
  10.6526537  23.2434025  22.5818310  10.6009903  23.9896412  21.9845943
   9.7411947  23.0447559  22.7963371  50.9021873  70.2288284  17.7657986
  51.5755043  70.7793045  17.3659840  51.1127357  69.3421631  17.4730148
  79.1688232  16.9219227  57.7513924  79.7693863  17.1710072  57.0488853
  78.2982712  16.9998074  57.3611298  52.9956741  32.3865585   5.4079556
  52.9097939  33.2626457   5.7838936  53.9257584  32.3068962   5.1962352
  76.9272995  40.5022774  58.6842728  76.1758652  40.9087486  59.1159592
  76.6168137  39.6328812  58.4313354  62.0763435  41.5979156  38.6693878
  62.3908272  40.8381767  38.1793594  61.6362000  42.1398506  38.0145531
  23.1185989  62.3110123  85.3063354  22.7294979  62.6453552  84.4982224
  22.4893131  62.5433578  85.9891586  39.3278046  44.4553833  69.0862961
  39.4585152  44.9089203  69.9190292  40.1453629  44.5928116  68.6078110
   4.8844523  45.7196198  85.0906754   5.0255175  46.5353546  85.5712051
   5.7644238  45.3723679  84.9447327   4.3238912   7.6699295  83.8606796
   4.2676330   8.1797791  83.0525208   3.4284253   7.6571383  84.1986313
  73.3457108  65.5432816  40.0712433  74.2868423  65.5814362  40.2416611
  73.1259384  64.6147766  40.1475372  77.9959335   5.9669909  46.1662827
  78.6425858   6.3522792  46.7575722  77.5351181   5.3219848  46.7028008
  68.0793533  25.2976665  35.2327309  68.6555710  24.5399017  35.1327477
  67.2018051  24.9229374  35.3082924  83.1107254  12.1226997  79.0996017
  82.6058884  12.6758366  78.5034409  82.6689148  11.2740498  79.0708923
   1.7663580  62.1187820  40.0362816   2.1651547  62.8812141  40.4556770
   1.4639479  61.5758171  40.7642708  12.9241400  44.5817375  43.8483696
  12.0563259  44.4561195  43.4645081  12.8179617  44.3338242  44.7667923
  60.0335770  25.3772736   0.4432633  59.4853935  25.3831196   1.2279239
  59.4193382  25.2351742  -0.2769795  25.1957245  14.2496901  41.7610168
  26.1063862  14.5136223  41.6296120  25.2530975  13.3788786  42.1542473
  73.6915588  47.8865280  82.6045151  72.8410492  47.6001511  82.2715530
  74.2314835  47.9939919  81.8214645  76.4003525  54.9705887  30.0841484
  76.7901993  55.5018539  29.3898811  75.9507370  55.6023636  30.6453419
  68.3415146  51.0696297  84.8705978  69.1075821  51.1748199  85.4347839
  68.5679703  51.5410042  84.0688782  76.9294586  57.1977692  11.0902977
  76.2005005  57.6572914  11.5070601  77.1283951  56.4748154  11.6852760
  72.2170181  25.3160973  56.7634811  72.8278198  25.9180832  57.1886559
  72.2688904  24.5147228  57.2843857  84.5118484  15.4372425  67.9069672
  84.7410507  15.7520037  67.0325394  85.2533340  14.8904505  68.1666870
  51.6758308  25.2156506  75.1762161  51.1458359  25.4866352  74.4266129
  51.4917564  25.8710384  75.8491287   5.1002102  49.3547134  72.6394501
   5.6356821  48.7746010  72.0981827   5.1121306  50.1925926  72.1767960
  41.5510521  70.9291077  71.4516373  40.8988380  70.3730927  71.0253830
  41.7523842  70.4771042  72.2710266  20.9177208  12.5781279  55.9413643
  21.5798321  12.8558035  55.3083229  20.2166901  12.2053146  55.4067650
  79.5059814  28.0290699  45.8281441  79.3314972  27.9347248  44.8917236
  79.6627350  27.1356239  46.1337776  21.4187355  19.3174953  80.5956955
  20.9302597  18.4944534  80.6107330  22.2860432  19.0873890  80.9289474
  58.3201027  57.6094284  74.1510239  58.2191124  56.6758461  74.3366318
  57.7453842  57.7682991  73.4022293  61.6059990   8.4880276  85.1133881
  61.7834206   7.6990595  85.6255188  62.3900070   9.0261116  85.2230682
  46.4992294   4.1020670  87.1731033  47.0062981   4.5314937  87.8620911
  45.8738136   4.7673798  86.8859634  65.4283066  54.8718605  62.3310280
  65.4066620  55.0677261  63.2677231  66.3533707  54.9373398  62.0939560
  63.0867805  44.8120384   7.7624459  62.2329979  45.0354958   8.1330614
  62.8858185  44.2189674   7.0384889  69.6840897  45.7748528  54.5851593
  69.8452835  45.0516129  53.9792099  69.6185303  46.5474625  54.0239067
  58.7963829  70.8611755  15.6988001  59.4030190  71.3314133  16.2707329
  58.4365807  70.1666870  16.2505779  81.6137848   7.8995824  45.7530441
  81.6110611   8.5060577  45.0124969  81.0849762   8.3353214  46.4214211
  15.0485439   5.0405788  88.9219818  14.9882994   5.7957697  89.5070343
  14.2094631   5.0267529  88.4615631   8.0672913  55.5873718  66.7816544
   7.9184828  54.6897354  66.4844437   7.1972299  55.9086609  67.0183029
  48.3169975  31.0399837  19.4599857  48.8874054  30.2985992  19.6630020
  48.5852661  31.7237072  20.0738144  68.2193298  19.5737896  71.2142258
  68.8269577  20.1977100  70.8170624  68.0773315  18.9130993  70.5363235
  83.5646591  70.4959030  26.6983070  84.4403076  70.4380493  26.3160400
  83.0069885  70.0047913  26.0949478  69.3653717  20.1839867  28.3719349
  69.9667358  20.3968639  27.6582947  68.4983215  20.3945847  28.0253811
  46.0615158  39.4407387  48.2745628  46.7128258  40.1340408  48.1679955
  46.4588470  38.6734772  47.8626595  11.4054747  45.2287674  32.7656517
  11.4445696  45.3692970  33.7116737  12.2022943  44.7385368  32.5632057
  54.8799400  49.7991219   3.2622848  55.6591797  50.0057716   2.7462294
  55.0895195  50.1040039   4.1450953  47.1427383  11.5020952  68.2355194
  46.5611153  12.0081940  68.8028030  48.0198555  11.6720533  68.5790482
   0.8490769  42.0458794  62.8246651   1.7055476  42.1902122  62.4223480
   0.4684937  41.3234749  62.3251495  86.4919662   8.8439760  61.8730125
  86.4698105   7.9374027  62.1793861  86.9843674   8.8076973  61.0529747
  62.0084229  21.7014942  12.9641190  62.6969032  22.3071251  12.6894598
  62.4386559  21.1168156  13.5880461  32.0849380  41.7311707   8.4458714
  31.3784447  41.6694870   9.0887499  32.3401642  42.6536369   8.4582462
  21.3560181  48.4102898  43.5095100  21.4956131  49.1735840  42.9490395
  21.8046646  47.6958313  43.0572968  26.4411602  50.7424545  70.9682236
  26.8927517  49.9291191  70.7428665  25.9055061  50.9398117  70.1998749
  36.9332352  44.8868561  30.8529091  36.4599037  44.1182556  31.1714058
  36.8579369  45.5253639  31.5620403  73.5309372  65.1464462  71.0614929
  74.4678955  65.3192749  70.9694519  73.1069107  65.9067917  70.6636276
  31.5678501  32.7668304  80.6555099  31.2265530  33.2311440  81.4198074
  31.5221348  33.4075851  79.9458771  29.3408203  53.3277893  81.1298981
  29.0122395  52.6593704  81.7311401  28.5751305  53.8655319  80.9279633
   9.2736568  56.5127602  72.1682053   8.9491329  56.1684151  71.3361359
   8.4878645  56.8087502  72.6277161  23.5633068  46.4106636  26.9282494
  23.9715424  47.1013756  26.4062424  23.3721046  46.8269386  27.7687187
  59.8474846   4.7993350  78.5374527  59.8152618   3.8493989  78.6506577
  60.7617912   4.9840627  78.3226242   1.5908300  66.7226257   5.8684111
   1.5003716  66.9382553   4.9402132   0.9355156  66.0418320   6.0211129
  84.0912247  13.4032135  81.2633743  84.3925934  14.2563934  80.9511414
  83.9082336  12.9071293  80.4654770  78.9169617  43.0829201   1.6590685
  78.8801117  43.9787979   1.9941416  79.3835602  43.1575470   0.8266354
  25.3930893  37.1477470  83.3415222  25.9579277  37.5031052  82.6552963
  24.6970329  37.7975159  83.4391632  40.6951447  20.7066803  60.6401939
  41.6065483  20.7910824  60.3600998  40.6975441  19.9625626  61.2422867
   7.4016886  68.4195557   3.3952107   7.1294661  67.5822220   3.0196981
   6.6675177  68.6832809   3.9498923  19.9159222  53.1696472  56.8452187
  20.2834854  53.9638290  56.4574013  19.1386261  52.9835243  56.3185310
  10.6908674  48.5041504  55.5935249  10.2268696  48.0991096  54.8608017
  10.1249123  48.3501053  56.3499603  78.3337631  49.8686485   7.1582518
  78.0486374  50.7777061   7.0658083  78.7070618  49.8230476   8.0384789
  13.3712835  39.2785187  32.1998596  13.2631893  38.4656487  32.6936111
  14.1339350  39.1210556  31.6432648  78.5922470  27.7994041  18.1308308
  78.0923157  27.1400223  18.6119900  77.9304504  28.3029842  17.6568432
  58.7687988  56.3702087  20.4717369  58.2337151  56.3512497  19.6782894
  58.4189224  55.6628990  21.0135250  84.2611847  13.3696356  71.6641541
  84.1086884  14.1098394  72.2515793  83.8933334  13.6493635  70.8258972
  29.4491215   2.5266299   6.6929436  29.6295490   3.4485409   6.8766775
  29.9458847   2.0484147   7.3568468  82.4774780  61.9220276  31.5245438
  81.8413391  62.6362305  31.5628853  82.8483734  61.8840485  32.4061508
   4.1116195  43.5978508  71.8778305   3.7535257  43.1730728  71.0983658
   4.9953880  43.8619461  71.6220169   8.4688282  11.8935823   4.2733698
   8.7837925  12.4961767   3.5996408   7.5949388  12.2161360   4.4936147
  36.7537193  11.7974901  81.5986710  35.9142456  11.3558569  81.4703293
  37.0912971  11.4366808  82.4184875  60.6715126  64.3935242   0.4991194
  61.0697823  65.2162018   0.7833866  61.2761078  64.0493240  -0.1583199
  60.1594238   2.9174759  30.5478916  60.9774742   3.0137041  30.0602779
  60.2572975   3.5039821  31.2980003   2.5768828  61.4985847  37.3860626
   2.9898887  62.3500786  37.2424736   2.0472269  61.6191483  38.1741982
  68.6956329  65.3882217  43.6250572  69.3059998  65.2269440  44.3445549
  69.2444305  65.3879700  42.8408051  12.7832575   5.1001234  43.0075569
  11.8354959   5.0250335  43.1186485  12.8925476   5.4919243  42.1410828
  40.1028824  69.9420013  40.1844444  39.4930000  70.2216721  40.8671341
  39.6688957  69.1988754  39.7653465  62.1666336  37.9759865  28.6436253
  62.0163574  38.4660530  29.4520073  61.3045006  37.9245605  28.2309284
  27.6463490   2.0498290  12.4775219  28.2113552   2.3489223  11.7651005
  28.1670513   1.3897926  12.9351826  17.1670818  23.1576538  15.1251059
  16.4837379  22.5533657  15.4151249  17.2133102  23.0300140  14.1775818
  23.0235023  30.0416183  19.9603405  22.1349564  30.2901745  20.2151699
  23.5516663  30.2065601  20.7414112  13.0379629   9.1039829  73.0858231
  13.7567787   8.5533724  73.3962479  12.9261227   9.7614574  73.7724457
  63.4385414  62.2666130  59.1941986  62.7060242  62.4349442  59.7869186
  63.0272903  61.9581108  58.3867722  65.1025772  66.3661346  12.8282518
  65.7186813  66.7164536  13.4716253  65.5423203  65.5946884  12.4708567
  15.7096500  69.9189377  34.4714928  15.2920294  70.7710571  34.3461456
  16.1444874  69.7403488  33.6376724  72.5337906   5.6514826   6.3482413
  72.5509491   6.4070592   6.9356432  73.2324677   5.8230381   5.7168550
  62.8166389  39.3952026  17.2793484  62.4474602  38.5651207  17.5808430
  62.9492455  39.2710686  16.3395405  44.1615868  59.5302544  60.4450378
  44.3152275  58.7064476  59.9824715  43.3000641  59.4217148  60.8478165
  25.3745728  21.3418274   8.2793789  25.7552319  21.7713013   7.5132957
  25.4628601  21.9847927   8.9829636  32.7173080  48.7296524  25.9375286
  32.2964516  48.8434334  26.7896824  33.2992287  47.9789619  26.0561237
  49.1196671  40.5280228  21.6690521  49.0867996  39.9005165  20.9469795
  49.2725868  39.9908524  22.4464149  56.3648224  27.9518261  67.7808533
  56.7693405  28.6179619  68.3366089  57.0805244  27.3546505  67.5631790
  75.5213318  69.1468811  73.0416183  75.5923920  70.1011429  73.0654602
  76.3029175  68.8369980  73.4991455   5.1902723  20.3007202  31.5094643
   4.9611053  21.2164860  31.3510723   4.3853731  19.9072266  31.8464069
   2.7625058  23.0820751  89.2974472   2.4662549  23.8893814  89.7178345
   3.0945470  23.3638115  88.4450378  28.3824539  19.9738979  54.7499275
  28.5167007  20.3365078  53.8742981  28.8710651  20.5589180  55.3289261
  30.4586849   8.0774937  12.1526480  30.3865986   7.2121906  11.7497997
  31.3882732   8.2958832  12.0863132  18.1967239  47.2813416  75.6726913
  17.7500839  48.0839386  75.4032822  18.0086880  47.2050552  76.6081314
  59.5699615  48.1797600  88.0863876  60.4366913  48.5814819  88.0261459
  59.3014793  48.0518913  87.1765518  18.1863537  30.7022552  84.8765640
  19.1258755  30.8675003  84.9554596  17.7974567  31.1744537  85.6127853
  75.5940247  26.4819927  17.2187786  76.1988449  26.7888584  16.5433178
  74.7576904  26.3822250  16.7639942  11.2204103  27.3387527   6.8194604
  10.8643713  27.4622326   7.6993585  10.4657507  27.0819511   6.2895813
  74.7873230  40.8806534  19.7864799  74.7773743  41.3816528  20.6020336
  75.4419327  41.3198814  19.2435322  39.8689842  56.6947784  18.5494671
  40.2948380  56.2633934  17.8086643  38.9471588  56.7490425  18.2974281
  36.7912674  16.3794250  76.1248398  37.6353989  16.5848446  76.5266800
  36.3854370  15.7548952  76.7260818  25.1818810  70.8595505  16.5065651
  25.8265038  70.1537704  16.4558907  24.5336170  70.5469818  17.1376610
  58.8256950  56.3265800   3.7084894  58.8097458  56.7364807   2.8436439
  59.6294327  56.6526909   4.1133218  31.0143166  52.3569641  57.1747894
  31.3240089  52.8122406  57.9577637  31.6460228  52.5923500  56.4952507
  16.0673656  30.3336391   0.4029657  15.3260899  29.7302189   0.3517177
  15.6887207  31.1940479   0.2225211  70.1251526  55.0204697  10.0865755
  70.8076859  54.4110680   9.8054867  69.4355850  54.4601364  10.4426107
  11.6708927  64.0689697  16.1239128  11.8779135  63.1382713  16.2086353
  12.5123911  64.4855576  15.9379930  74.1698380  25.0012016  75.0812988
  73.7923813  24.7661343  74.2336578  74.5240936  25.8807030  74.9501190
  50.7773857  38.5194168  62.4882584  51.2779427  37.7928352  62.1171112
  50.8157387  38.3781776  63.4342003  25.7974796   3.0025525   4.8808761
  26.0568447   3.6490893   5.5373449  26.6204910   2.7291689   4.4757266
  19.6372261  62.9275742   7.8292975  20.4912357  63.3561172   7.7722950
  19.6455841  62.4891129   8.6801281   4.0919719   2.6153066  51.3021812
   3.7127554   3.3403413  50.8054390   3.8530085   1.8332535  50.8046646
  28.7994690  62.7883644  47.2166367  28.3403721  62.7476654  48.0555687
  28.2080479  62.3584785  46.5988579  31.2462330  54.2125587   9.0906420
  31.0325661  54.3716164  10.0100327  32.1500130  54.5142822   8.9991188
  59.6691170  10.1541357  80.3707352  59.7973099   9.8213453  81.2590179
  59.3543129  11.0496998  80.4935913  49.6381569  16.2311535  58.1262321
  50.4872627  16.6543465  58.2533417  49.0774498  16.9210167  57.7713699
  62.1277084  38.4048615  57.8744164  61.3751717  38.9331207  57.6082115
  62.3044624  38.6765289  58.7750740  74.3214111  57.2045097  51.3320236
  73.7360229  56.8935776  50.6414642  75.1573257  57.3512268  50.8893509
  21.7512856  46.4567184  19.6780930  22.4459400  46.5152321  19.0221500
  21.5595074  47.3664780  19.9056664   6.8506894   5.9588156   5.2698617
   6.3808737   5.6898537   6.0592699   7.7515960   6.0964785   5.5625181
  73.8315125  54.8790894  71.2715073  74.2473450  55.2522163  70.4942780
  74.4494476  55.0543365  71.9812088  70.4785690   2.4722407  76.8774414
  70.6838455   2.5668666  75.9473114  70.6044006   1.5404729  77.0569077
  39.9048920  42.1490097  27.8283329  39.8261261  41.2183533  27.6187973
  40.5298920  42.1793671  28.5526867   5.4347563  46.9663620  51.4926224
   4.5090642  46.9847794  51.2497482   5.5205584  46.1936188  52.0509567
  74.6108704  38.1971512   9.3624411  74.8448181  38.6261902   8.5393820
  73.6788712  38.3847427   9.4738646  58.5593681  19.8680325  27.4495354
  57.8556023  20.5130329  27.3794041  59.2305450  20.3021755  27.9761028
  81.5154953  25.9389286   2.1783144  81.3271332  26.4259682   1.3761023
  82.4093704  25.6179028   2.0593128  75.0468063  15.8014498   5.6375742
  74.1475906  15.6892719   5.3292623  75.5837860  15.7010641   4.8515644
  49.5079727  28.3438892  59.6189499  49.4676132  27.6304817  60.2558556
  48.7873116  28.1663761  59.0144882   6.6689191  27.0375271  69.1297531
   6.0730581  26.3299675  68.8837128   7.4932885  26.5961742  69.3343353
  31.5510693  34.7650681  78.5222778  31.1173115  34.7517166  77.6690979
  31.5122433  35.6813545  78.7963943  26.1458149  70.4641113  41.3881226
  25.3866577  70.1174164  40.9193802  25.9566269  71.3964233  41.4940605
  46.4436874  47.7964973  23.2286263  47.2511215  47.2902222  23.1393566
  46.0180473  47.4335403  24.0053654  55.5147171  62.1171837  46.8662682
  55.3725929  62.7080193  47.6058235  55.2203522  62.6139374  46.1028404
  81.3991547  27.3272152  32.0236855  80.9625702  26.8149490  32.7042847
  80.7338028  27.9483795  31.7275620   9.3522034  55.6108093  86.4596100
  10.1135073  56.1891975  86.5056229   9.2887192  55.2283669  87.3347855
  83.2179947  41.0883598  77.6910934  83.8060684  41.7886658  77.9738846
  82.3585434  41.5058403  77.6337814  47.3421707  53.3456421   7.9024329
  46.8676872  52.8343468   7.2469373  47.5999336  52.7050171   8.5652971
  71.3769302  41.4114304  83.2700577  71.5619431  40.5787811  82.8356705
  70.4621506  41.3411407  83.5429535  30.5889187   5.2245836  54.7038078
  30.0798054   4.5127892  54.3160133  31.4977207   4.9306054  54.6414795
  62.8923988  18.7414188  33.1333580  62.0017738  18.9585857  33.4087906
  63.0291328  17.8477287  33.4477654  64.7335510  47.2586403  58.7628326
  65.5481186  47.7569046  58.6961327  64.9844360  46.3598404  58.5496521
  39.8341484  28.1530228  72.2617950  40.3506126  28.9460087  72.4055634
  39.0369453  28.2903519  72.7734985  65.2061310   8.7963419  16.4556808
  66.0858459   8.4201031  16.4278736  65.3398438   9.7302809  16.2940922
  11.5554237  68.1249237  66.8800278  12.0779486  67.3270798  66.9615631
  11.8063660  68.4899063  66.0314789  80.3641663  69.5812302  63.5702667
  79.8449783  69.0608063  62.9572144  81.0697632  69.9465790  63.0365181
  25.2894707  58.5576019  11.4902458  25.8829708  58.8177299  12.1947489
  24.4417439  58.9223595  11.7443018  83.3810730  22.4132576   6.9404559
  83.4506302  22.3170147   5.9906502  82.9314423  23.2491684   7.0642023
  66.1763611  37.4190254  45.8959923  66.8951950  37.3713684  46.5262680
  66.4500504  38.0902443  45.2708588  42.7399635  42.1931877  38.3919029
  42.2608261  43.0217476  38.3798485  42.4753609  41.7753983  39.2114601
   7.5244608   5.1211543  29.0186825   7.2302847   4.9864817  29.9195461
   7.6599078   4.2375903  28.6763363  44.9754868  36.8137360  26.3351917
  45.7646942  36.4158897  26.7027493  44.3657265  36.8607063  27.0715485
  18.8072796  46.1480370  56.4972725  18.3464775  46.5237694  55.7471275
  18.1995106  46.2537231  57.2291756   1.4537588  62.8314056   1.0826267
   0.9228161  63.6191902   0.9654582   1.1912377  62.4906349   1.9377229
  36.9757576   3.0484040  15.0580320  36.5501060   3.2833092  15.8825779
  37.9014854   2.9573686  15.2838039  64.8057251  52.0851936  16.1784191
  64.0085526  52.5890541  16.3423405  65.0378799  52.2920036  15.2731209
  50.4152336  35.2290459  51.1282921  50.5722694  34.8558197  50.2609558
  50.6411133  36.1545486  51.0352631  70.8489761  48.2119141  32.1267967
  71.1543045  47.4968109  32.6850357  71.4680099  48.9236870  32.2893143
  32.5154228  47.1064758  86.0807495  32.9191971  47.1422615  85.2136154
  33.0469170  47.6949272  86.6169052  56.6129456  19.6988449  45.9268341
  56.2175789  20.4314804  46.3992348  57.2095184  20.1108418  45.3018570
  71.0672073  38.4866409   3.1395681  71.6131439  37.7087669   3.0251262
  70.9676285  38.8414536   2.2561512  82.3877716  57.9648056  53.2608490
  82.1029205  57.2645149  53.8479500  81.9033585  57.8094482  52.4500198
   6.1211753  19.1610680  69.7731094   6.7286563  18.7219467  70.3684006
   6.6183209  19.2723408  68.9627380  57.3245506  38.7697525  41.0303001
  57.2895164  37.8132591  41.0191994  57.2539406  39.0012817  41.9563866
  52.2724533  49.7902870  11.8281498  53.2062073  49.9049606  11.6515551
  52.2425766  49.2931175  12.6455603  13.1453600  29.9819622  72.5642242
  13.5679264  29.2506065  73.0145493  13.8609562  30.5850201  72.3630447
  52.4269867  65.3702545   4.0581369  53.2803650  65.5451965   4.4548326
  51.8106003  65.4081421   4.7894816  60.5615082  46.3992424  72.5227280
  59.9400101  47.1202354  72.4220352  61.2228127  46.7357559  73.1274338
  52.3779030  37.4810562   5.0316763  52.5387993  38.3937874   4.7923713
  51.4320335  37.4329910   5.1704216  76.2420654  57.5240059  26.6499996
  75.7369308  57.4904480  25.8376331  76.3584213  58.4585457  26.8212547
  39.1687164  71.1696854  87.9483643  39.1743355  70.4179382  88.5408859
  39.2605209  70.7874451  87.0756149   9.3239956  28.4179153  70.5177536
   8.8717318  28.7593765  69.7463379  10.0236092  27.8698711  70.1622009
  51.8781204  35.4269676  31.4646282  52.1618538  36.2583199  31.8448696
  52.5860062  34.8160172  31.6692371  56.6261406  48.0839958  36.5638847
  56.2429314  48.7103271  37.1779594  56.4302711  48.4455719  35.6995163
  70.1105576  56.7301903  84.0188141  70.1578064  56.9818001  83.0964813
  70.5817413  55.8982544  84.0645676  46.1846123   0.4437704  56.6079750
  45.4256973   1.0254732  56.6515999  45.8255615  -0.3976611  56.3263588
  25.4719791  59.9125443   5.9445572  25.1095562  59.0416412   5.7820501
  25.3290253  60.0608521   6.8793302  72.2513962  63.2105255  15.4328012
  72.1792145  63.9769287  16.0017033  72.6885071  63.5365257  14.6461029
  66.6795578  20.3607502  43.8096390  65.8111801  20.3136578  43.4097328
  66.6071396  21.0614891  44.4576759   3.7242701   1.7239563  24.6896343
   4.2697754   1.8978680  25.4567127   4.0933752   2.2787704  24.0024834
  36.9875374  65.6687469  29.7852440  37.4680061  64.8988037  30.0894947
  37.5237541  66.0202789  29.0745201  29.3928547  49.2049561  82.9120560
  29.8456078  48.6926918  82.2421036  28.9559364  48.5517006  83.4584885
  59.8522644  57.2175865  55.7143326  60.1060677  58.0878372  55.4069633
  59.5552139  56.7624779  54.9263802  28.2331085   6.7780743  50.4809837
  27.6901646   7.1170902  51.1926804  27.7865410   5.9800019  50.1983337
  81.6310272   5.4515228  80.1159058  81.2695923   5.0593386  80.9107513
  81.6041412   6.3941126  80.2803268  27.5911884   9.3317490  22.1336803
  28.1190872   9.5822887  21.3755341  27.3867092   8.4079943  21.9884300
   0.8356860  46.1252098  26.2837715   0.9125326  45.2262383  25.9641266
   1.7151505  46.4901886  26.1859722  11.7059231  12.0160208  20.0945969
  11.5465679  11.0828524  20.2361374  10.9890089  12.4537439  20.5535793
  83.5463181  47.4244614  81.3408661  83.2672348  46.6252060  80.8941803
  82.8596497  47.5900459  81.9868546  69.8984756   7.3428335  80.1845398
  70.7391663   7.7048712  80.4645462  69.8953094   7.4523859  79.2336349
  71.9173508  64.0725861  27.2639828  71.1464233  63.5346031  27.0837498
  72.1971207  63.8045845  28.1392727  54.3944054  52.2083092  57.2018127
  55.2129631  52.6918449  57.3131218  54.1492577  51.9449844  58.0888252
  86.5698700  56.6424065  68.0039215  85.9453583  55.9343681  67.8461380
  86.8247833  56.5371056  68.9205246  69.8470306  34.1497040   3.1008961
  69.7401810  34.7105446   2.3326035  69.7104568  33.2618866   2.7702010
  64.3167267  20.4874821  71.9967499  64.4456940  20.7223549  72.9156799
  63.7944221  19.6858559  72.0254517  34.1291237   1.0637089  59.6810608
  33.6781845   0.2446162  59.4761887  34.7011833   1.2167639  58.9290276
  31.9893150  43.3154488  53.2046318  32.6986313  42.6883965  53.0635376
  32.4123459  44.0655746  53.6224670  12.2838497  24.5476131  74.9476547
  12.8557730  25.0978794  74.4125443  11.5158033  25.0933723  75.1164246
  44.5579376   3.3849380   0.9924437  44.0374985   2.6583252   0.6497948
  45.4648361   3.0904098   0.9086369   5.1928415   7.2210302   7.8546081
   4.8822074   6.3156390   7.8569064   6.0368142   7.1858282   8.3048334
   8.8977661  17.4561939  74.9537430   9.2174339  18.3515759  75.0648041
   9.6912117  16.9232368  74.9024200  31.0199871  43.6557846  27.1131573
  31.7198048  44.0497475  27.6340027  30.4572678  43.2238235  27.7557983
  31.5105286  19.0301762  80.7648239  30.9925632  19.7786808  80.4687119
  32.1856232  19.4127693  81.3252716  83.4220200   1.5055259  27.3444729
  83.4384308   1.3266926  28.2846756  83.6522293   0.6701884  26.9377251
  45.3078270  19.7488136  72.5584335  45.6408691  18.9752579  73.0133286
  45.4913597  20.4748116  73.1546555  49.8329277  13.1398497  55.8717461
  49.5080261  13.5985136  55.0969582  49.3443909  13.5238466  56.5998344
  63.0627060  19.3822231  18.8923168  63.3813934  19.4873333  19.7887669
  63.2905655  18.4817371  18.6611538  60.7493095  58.9598083  81.6108551
  59.9862823  59.3791962  81.2131958  60.5994911  58.0226250  81.4864655
  65.5220566  28.3692513  82.7068481  65.8602219  29.2511425  82.5514526
  66.1300659  27.7942638  82.2421417  73.2206726  36.4270439  82.6267929
  73.5546646  37.2810707  82.3523483  73.3541565  35.8618736  81.8658752
  32.2200203   4.0935459  20.9987488  32.4354668   4.7290182  20.3161163
  31.4526310   4.4625988  21.4359550   1.6968621  28.7299995   9.0163231
   1.0189312  29.1759663   8.5086279   1.4916741  28.9409294   9.9271679
  36.1127129  62.9203835  60.9787178  35.2872200  62.8562317  61.4590034
  36.3844337  63.8314247  61.0900841  33.3372765  44.7763023  28.0519409
  33.9432373  45.5150528  27.9945736  33.8986549  44.0180473  28.2136002
  43.3744049  69.1400299  69.7481689  43.9415817  68.7621765  70.4203110
  43.1572876  70.0112076  70.0800323  75.6320343  56.7232780  20.7769165
  76.1625290  55.9266052  20.7879715  76.2692795  57.4344673  20.7108727
  10.0261021  16.3814411  22.1957397  10.1641474  15.9817772  21.3369942
  10.1885633  17.3141556  22.0547371   0.9698148   7.9857497  66.0399475
   0.9506950   8.5511351  66.8120880   1.0124127   7.0976181  66.3944016
  62.9940338  11.4842243  41.9890175  62.3720169  12.2038813  41.8821564
  63.8536530  11.9042301  41.9592857  25.7393379  23.2687187  65.0859146
  26.0743179  22.7333260  64.3666229  25.9451294  24.1681156  64.8310318
  21.2573147  24.4288197  26.6959820  21.1031208  24.3093452  25.7588692
  21.4126472  23.5445156  27.0278111   8.3723326  19.4015102   2.0796793
   7.6873198  20.0582123   1.9542551   7.9651284  18.5769329   1.8141817
  78.3006134  67.0826263  67.3885880  77.3469696  67.1297607  67.4562988
  78.4850464  67.2718811  66.4685898  28.6624317  57.8103828  35.8749237
  27.7254925  57.6379471  35.7819481  28.8172493  58.5879135  35.3385391
  20.2331314   8.6164675  71.1197205  19.3444424   8.6468916  70.7654037
  20.5109310   9.5320129  71.1486130  40.0217819  46.0762596   6.2848673
  39.8869553  46.9063911   6.7419634  39.1380920  45.7602005   6.0966511
  64.9565735  39.7500648  59.6894875  64.1125259  39.3413429  59.8812256
  64.7573242  40.6823959  59.6040993   6.2130632  26.2182655   7.6687508
   6.0090513  25.5074444   7.0610123   5.4165883  26.7486134   7.6930528
  83.8557434  36.4119530  75.5367889  84.1096191  37.1834908  76.0432510
  83.5167007  35.7984657  76.1886444  85.0626068  24.4096565  30.1296291
  84.6107407  24.0134640  29.3845901  84.3586884  24.7104473  30.7043133
  66.2365875  67.0480499  48.2975769  66.7114639  66.7523727  47.5208549
  65.9950180  67.9530640  48.1005287  25.2890739  45.5358505  29.4972363
  25.9516754  45.7173080  28.8307056  24.6334686  45.0049706  29.0449295
  12.6427002  41.4677429  66.2899246  12.7302780  40.5409088  66.0673370
  13.3100691  41.9051361  65.7612076  19.5413570  60.1058540  21.8464108
  20.3596478  59.7120667  22.1490021  18.8740368  59.7541466  22.4356613
  57.5312653   5.6469154  24.3171959  56.8529053   5.2925153  24.8920479
  57.8132896   6.4535637  24.7484894  74.1333313  66.8410721  74.3319244
  74.5494385  66.6272659  75.1670151  74.4771805  67.7057114  74.1074219
  49.4304314  43.0184174  22.2295303  49.2250328  42.0960617  22.0768719
  50.3774490  43.0769958  22.1031876  72.6867828   7.1277404  70.6491013
  71.8905640   7.6188574  70.4464417  73.3091965   7.7920694  70.9449158
  16.5620289   1.9767523  85.1970596  17.0653419   1.1844306  85.0096207
  16.5476780   2.0309298  86.1526184  66.7696228  69.2898102  58.9409065
  67.1311951  68.4096756  58.8366699  66.5228958  69.3395538  59.8644218
  79.8007126  69.9415970  52.0302391  79.2031326  69.2184753  52.2205620
  80.1102905  69.7687988  51.1411209   4.4077220  59.8543968  45.0043564
   4.8080611  60.7193413  44.9158478   5.0375133  59.2566223  44.6015434
  21.4502583   4.7542362  12.5892382  20.9831142   3.9190843  12.6122808
  22.3030205   4.5625238  12.9794617  78.1065674  22.2157917  64.8859024
  77.8020248  21.8811684  65.7294159  79.0476913  22.3438797  65.0047073
  62.2137260  11.1665592  28.1079082  62.0727959  11.3347692  29.0396137
  61.8159332  11.9168291  27.6662197  36.7993927  61.4447098  56.1406555
  37.5476685  61.7796936  56.6347160  36.4113426  62.2214279  55.7377129
  27.1372871  64.9566879  25.5190258  27.2458286  64.9410477  24.5681286
  26.2864265  64.5449295  25.6697731  68.5831375  15.2204437  41.2370720
  69.2343369  15.7660694  40.7960892  67.8182220  15.2486629  40.6623154
  33.7648201  41.3796234  53.9536400  33.2532806  41.5354042  54.7475510
  34.0192604  40.4585571  54.0095444  38.0814934  60.8488846  32.0487518
  37.4699745  60.1128654  32.0723076  38.0039406  61.2524757  32.9132347
  22.1086273  35.6965141  60.8871498  22.0553017  34.7909622  60.5815926
  23.0427475  35.8451271  61.0340042  44.4157944   8.6665325   8.0031891
  44.3876572   7.9082789   7.4196720  43.5685234   8.6576443   8.4484854
  85.5692978  53.3102264  56.6273575  85.1707993  53.5821838  57.4540787
  85.3631668  54.0187225  56.0176239  58.1928291  10.3950157  41.0565491
  57.8492889  10.9905167  41.7225761  58.9239731   9.9511871  41.4862862
   6.9101877  46.8218956  67.3111725   6.4149861  46.4286804  66.5925674
   6.6211200  46.3460541  68.0897903  46.6254997   6.2369800  39.7874184
  46.0289803   6.9835854  39.7328491  46.6299171   6.0012426  40.7151260
  26.4419727  39.8488235  60.0695305  25.8248234  39.5377083  59.4072914
  25.9028263  40.3461838  60.6845016  47.5550842  43.3292809  80.8310547
  47.7850151  44.2582855  80.8486710  47.0254364  43.2285843  80.0401230
  28.7333469  62.9652061  31.8978729  28.3999100  62.3428459  31.2515583
  29.1014042  63.6782837  31.3760605  33.7187462  39.0929642  14.5634165
  34.2270164  38.5291367  13.9803314  33.5990067  38.5710983  15.3568592
  25.1566277  33.5837975  71.3394547  25.9748592  33.1254158  71.5307999
  24.7135620  33.6462860  72.1856384  67.1303253  23.1259651  32.5854568
  67.6254349  22.3252945  32.7587204  67.3526001  23.3544369  31.6828918
  63.0376663   9.6016331  72.1588211  62.1063995   9.4066257  72.2634354
  63.4335365   9.3312464  72.9873199  70.0468597  46.6535645  74.5490265
  70.2699661  46.9125366  73.6549454  70.7951355  46.9371033  75.0742950
  77.9782715  19.3376999  87.1695251  77.7167435  18.4662018  86.8723221
  77.5599823  19.4345455  88.0250244  80.9298172  38.7768326  52.8138428
  80.6865768  39.1714287  53.6513176  80.4096222  39.2513618  52.1654167
   8.6183805  71.5943375  40.2810936   8.4100571  70.7672729  40.7156105
   8.8119135  72.1990967  40.9973640  49.1286850   2.5019560  27.6744118
  49.8978348   2.9504175  27.3229542  48.3866844   3.0235248  27.3684139
   1.6353489   2.1776025  62.5796204   0.7717078   2.4269242  62.9085503
   1.4707985   1.8588835  61.6921654   6.0863347   3.3259096   9.5019751
   6.9881368   3.2263322   9.1969032   5.5621634   2.8462474   8.8605700
  41.6601486  25.5707207   6.6622334  41.7463303  24.7365055   7.1236339
  40.7202110  25.7516022   6.6679530   7.1521339  62.8560982  32.0635681
   7.5520029  61.9868393  32.0905342   6.8797288  62.9662666  31.1525841
  11.5067282  68.3893661  48.7729111  11.2726574  68.8196564  47.9505424
  11.8192101  67.5237122  48.5098114  49.3942184  55.0930099  20.2379093
  49.4021301  55.9046135  19.7304897  49.5221634  54.4025803  19.5873966
  25.1522408  62.1822853  57.4991722  25.4974918  62.2435303  56.6085052
  25.9154854  61.9744377  58.0381393  65.5009079  39.0604439   7.1185431
  66.4158936  38.8437042   6.9394908  65.0984192  39.1339493   6.2531934
  51.3329086  66.5065460  78.5026703  50.3856163  66.3889389  78.4317169
  51.6599426  65.6520767  78.7840118  14.2031593  56.9567337  72.6948318
  14.8027811  56.5601082  72.0628662  13.3978109  57.1063232  72.1995850
  67.0327606  56.9320946  58.0300674  66.5107422  56.2635803  57.5864334
  66.4014587  57.4126244  58.5655823  37.5617790  48.2751770  80.7157288
  37.3555908  49.0581207  80.2051239  36.7211494  47.8296509  80.8210220
  70.9587555  21.4485817  51.8838234  70.4383698  20.8453655  51.3532066
  71.0620651  21.0008755  52.7235374  13.0134258  36.1843643  60.2809029
  13.6614466  36.8717194  60.4353180  12.2992105  36.3885498  60.8845863
  69.6964951   0.9173846  71.8735428  69.2343369   0.0794996  71.8492279
  69.5618286   1.2905613  71.0024338  55.0864029  17.2106056  72.0305634
  54.8844032  16.2935467  72.2161179  55.2090225  17.2416096  71.0817490
  15.4904327  71.4448547  77.4403381  16.1229553  71.2997665  76.7367096
  15.5002928  70.6303177  77.9429932  82.8259811  49.7221909  20.7664509
  82.3897705  49.7104759  21.6183987  83.5140457  50.3811951  20.8587074
  70.0909576  43.5660782  24.9916286  70.7333145  44.2716026  25.0680695
  70.6017685  42.7641068  25.1018238  12.1658497  55.7420692  42.7388268
  12.2502747  56.3669395  43.4589958  13.0204363  55.3134193  42.6922302
  21.3013687  53.3993263  28.9688282  22.0823097  53.0614128  29.4072037
  21.3613377  54.3491478  29.0711708  49.0569496  27.8305626  15.4190102
  48.5924339  28.6364040  15.1930075  49.0581589  27.3197346  14.6095133
  83.6088867  66.6763916  27.3063297  83.9359665  66.9434128  26.4472885
  84.3146515  66.9023819  27.9121761   6.7550387  69.5847778  71.4565506
   6.5553341  69.4055099  70.5377426   6.8610301  68.7194901  71.8518600
  15.9390745  67.7387772  84.9780502  15.3156328  67.0461273  85.1966629
  15.5557718  68.1745300  84.2168503  14.9080400  61.3764801  79.7374496
  14.6543617  60.4564972  79.8116684  14.3581200  61.7205315  79.0335693
  56.0417938  20.6384907  81.1893997  55.7147369  21.1025200  80.4187241
  55.5566788  21.0187607  81.9217148  82.6877136  22.9975967  79.5186615
  82.1047974  23.0221176  78.7598190  83.5065536  22.6355324  79.1800842
  11.2573538  58.2949181  66.4313736  11.8260107  58.7916718  65.8430710
  11.0252829  58.9163284  67.1214676  34.9044266  13.7272549  88.3064117
  34.9823265  14.5489302  88.7911911  35.5374222  13.1424437  88.7229996
  74.5820084  24.1338158  60.6958618  75.3877716  24.2590866  61.1971474
  73.9590302  23.7771301  61.3290291  42.9613304  16.9962616  69.7345200
  43.6727486  16.5035114  69.3254852  42.5245132  17.4362469  69.0052567
  71.6358414  61.1174889  -0.1498771  70.8134766  61.0477333   0.3349768
  72.2128220  60.4752693   0.2634995  47.1138000  41.3861809  60.3802872
  47.9806442  41.0034904  60.2447701  47.2144890  41.9389076  61.1552620
  28.1535702   3.7600362  14.4567461  27.8147888   4.6547370  14.4878874
  27.7652817   3.3842669  13.6666451  43.6244698  51.7773323  77.2153854
  43.4122963  51.2386246  76.4531479  43.0600471  52.5457115  77.1302185
  69.2584457  62.0072060  26.6013355  68.4179993  61.5501709  26.6328926
  69.8227463  61.5121346  27.1952209   0.6745310  70.8045654  56.3761559
   0.3565593  71.0671921  55.5123520   0.1719500  70.0177765  56.5873604
  41.0786743  65.6181946   0.3963028  40.7322464  64.9365997  -0.1795880
  41.6304703  65.1467743   1.0204157  16.0419102  53.7109032  73.2489014
  15.5169230  53.3726234  73.9742889  16.5140400  54.4554214  73.6217422
  49.9470711  59.7353897  46.3246155  49.5204468  59.9100418  45.4857330
  49.5420303  60.3538208  46.9326553  46.6304893  11.1415930  71.9565125
  47.0703392  11.5793962  72.6852722  47.2525558  10.4739323  71.6675644
  69.4848633  13.8823652  38.8425369  69.4237595  13.4003925  38.0177917
  69.7491379  14.7655258  38.5848236  49.0996857  61.5653877   3.9973242
  49.1102867  61.6892242   4.9464202  48.6987419  62.3647232   3.6559486
  64.7889557  67.6289139   4.0215278  64.8297272  67.8888397   4.9418592
  65.5027390  68.1114578   3.6045172  46.8628693  52.8121796  68.3620911
  46.4954643  52.6776962  69.2356796  46.4592094  52.1304512  67.8249359
  14.7664833   7.3842592  85.8927612  13.8193893   7.5223241  85.8792572
  14.9460001   6.8776760  85.1006927   4.0656495  -0.0116395   2.6388798
   4.5636187   0.7488444   2.3390081   3.2728362   0.3589315   3.0266371
  71.3912201  44.0379753   2.8010495  72.0216370  44.0577393   2.0810370
  70.6623764  43.5151024   2.4669585  47.2574692  51.7376175  39.4713135
  47.8641472  51.0109024  39.3296814  46.3894653  51.3359833  39.4327393
  75.5159073  47.8980408  25.5837765  74.9479294  47.1349564  25.4773121
  75.1049957  48.4068069  26.2827358  49.5129852  43.8229828  68.5734787
  49.9132156  43.0549393  68.9811096  49.9600449  44.5678062  68.9754791
  49.3903160  17.0703526  67.9776840  49.4235992  17.5874043  67.1728363
  49.9479523  16.3131256  67.7991333  86.2400742   4.1182199  35.0086899
  86.9058380   3.5089619  35.3277397  86.2914429   4.8638310  35.6067352
  59.0797539  51.7491417  85.0287247  58.8879395  51.2307129  84.2472763
  58.3223839  52.3265152  85.1249619  35.5065727  48.8991814  31.9801941
  35.1673698  48.7940369  32.8690796  36.2571983  48.3066750  31.9386292
  47.0795593  62.2941628  85.5569916  46.5115433  63.0289650  85.3253555
  47.4447556  62.5330238  86.4089355  25.5780869   1.1997628  21.7127781
  26.5276146   1.1677542  21.8294125  25.2272625   1.2002777  22.6033688
  44.5181236  33.4168434  10.3023224  44.5445824  34.3281136  10.5940752
  45.4178658  33.2234001  10.0391226  68.5183945  13.7906389  71.3810654
  68.0279617  13.9230394  72.1923447  68.1970749  14.4738979  70.7927246
  41.4490356  33.1558037  61.5845871  41.0791016  33.8557930  61.0466309
  41.2006836  33.3852425  62.4800797  79.9352036   8.2616539  77.9345703
  79.0112686   8.3710575  77.7096176  80.1406937   7.3640490  77.6732025
  78.9261627  35.2659492  55.4670563  79.7654266  35.0217781  55.0768623
  79.0710144  36.1455307  55.8157501  79.5673141  13.8810778  25.3522568
  80.1215363  13.4431620  25.9982414  78.7273254  13.9967146  25.7964191
  74.0317917  22.8401394  21.2050629  73.6837997  21.9592304  21.3433990
  73.2581024  23.4035091  21.1890373  27.6861649  45.8619347   1.1084441
  27.1522999  45.4739075   0.4151493  28.3873043  46.3186302   0.6436173
  58.3385811  23.9376221  30.1101246  57.7286224  23.3793125  29.6279736
  58.5053940  23.4628410  30.9243660  65.6816864  40.9960403  36.2612648
  65.9782410  40.6687965  35.4120293  64.8078537  40.6209450  36.3706245
  58.0881577  29.2735310  61.0629539  57.5574684  29.1209583  61.8448257
  58.2822113  28.3971710  60.7304344  37.5392189  60.8223457  85.0433197
  38.0729141  60.8996048  85.8341599  38.0982552  61.1593704  84.3432312
  18.8112965  66.2122269  50.3796806  18.3969212  65.8913956  49.5786896
  18.3417797  65.7690125  51.0863266  86.3968735  54.4154968  64.1875534
  86.4626236  54.8102722  63.3180351  86.9999390  54.9254723  64.7283554
  15.2060537  52.8612938   1.6244854  16.1470413  52.6970291   1.6860424
  14.9487743  53.1152802   2.5107872  30.1727657  45.8404999  25.6250172
  30.2465668  45.1370926  26.2700005  29.6091118  46.4911156  26.0436134
  82.8237381   8.1789589  28.8526096  83.1121445   8.9093513  28.3052711
  83.6126480   7.9033556  29.3193989  60.3062401  20.3510475  71.3458176
  60.1669884  20.8849869  70.5636749  59.5227776  20.4948711  71.8766022
  21.4263039  68.6066437  22.7726994  20.6912994  68.0720520  23.0730648
  22.1060028  68.4720306  23.4330959  85.5674515   4.3919740  49.8993645
  84.6694107   4.7113466  49.8112793  85.8103714   4.1136408  49.0163269
   2.5388844   5.8403215  46.6148033   1.7056155   5.9556117  46.1580734
   3.1464105   6.4193811  46.1545525  78.1817245  50.0134811  54.5051346
  78.1762466  50.2631378  53.5810814  79.0974731  49.8067818  54.6919670
  52.4699059  16.7735157  74.1955032  52.1150627  15.8868151  74.2593765
  52.1294479  17.1085625  73.3660049  32.7439919  66.9210129  77.1090012
  32.2471428  66.1966019  77.4892502  32.5059242  67.6801529  77.6412277
  53.0928078   5.3358908  63.7018242  53.2484550   5.9438853  62.9790878
  53.5501900   4.5354776  63.4441986  72.0227432  14.1635790  28.3368378
  72.0020828  14.4296780  27.4176006  71.6695709  14.9157743  28.8119221
   6.0809035  63.3628006  11.8364754   7.0359826  63.4061432  11.8831425
   5.8787050  63.5216179  10.9144526  41.0718956  58.4180794  24.4323559
  40.2832222  58.5729866  24.9521904  41.5678749  57.7727432  24.9361229
  68.4296188  26.5134697  37.7481728  69.3034515  26.1948147  37.9742317
  68.1297150  25.9212856  37.0585289  14.1181049  21.1449051  63.1853561
  14.1938486  22.0400620  63.5157928  13.3042889  21.1436672  62.6814384
   4.7475467  66.4359360  26.7472134   5.2931056  66.4404831  25.9607162
   3.8868444  66.1512222  26.4400291  61.9999695  28.1048489  43.3798370
  62.1278267  27.1607323  43.2874908  61.0495491  28.2173653  43.3962288
  81.7253494   2.6534989  62.6118965  81.4531708   3.2515020  63.3079872
  81.1189957   1.9159015  62.6791115  42.0611267  69.2044830  30.1128674
  42.6899452  68.7607880  30.6820374  41.2955284  68.6299667  30.1080418
  13.9935293   5.4510846  53.2948151  13.1838226   5.9573426  53.2291756
  14.4430304   5.8159919  54.0570641  73.3027573   1.9595633  39.3597679
  72.4496765   1.5402665  39.2471619  73.7616348   1.4036053  39.9895096
  66.8825684  43.2309113  76.2027893  67.6169357  43.6613503  75.7649918
  66.6866379  42.4727173  75.6523438  21.5980568  49.0261726  35.7929001
  21.7523518  49.3064766  36.6950378  22.4704189  48.9910049  35.4004936
  15.2480993   3.3799441  21.4217186  14.6503124   3.1770892  22.1412544
  14.8366804   4.1160460  20.9688148  16.0570049  32.3787041   4.9588566
  15.3573990  32.8760300   4.5352426  16.2769890  31.6914711   4.3299298
  74.8886185  68.1957016  59.3943291  75.4104843  67.4142990  59.5768280
  73.9812012  67.8964767  59.4517059  22.2846622  31.1385555   5.7826619
  21.8006229  30.3630028   5.4990158  23.1983261  30.8543644   5.8088083
  34.1875114  28.7946968  74.5531311  35.0596008  28.9435310  74.1876984
  33.7225113  28.3080101  73.8725891  83.3606796   4.5948577  44.9567375
  84.0600128   3.9441278  44.8957520  83.7416306   5.3086286  45.4682503
  49.8025703  35.0495224  65.6806946  48.9491920  34.6285820  65.5768280
  50.1066856  34.7649689  66.5425415  10.2520227  42.3435287  52.5972633
  10.9913177  42.9450722  52.6856880  10.5266733  41.7242699  51.9210091
  20.0517025  48.5019722  65.6892548  19.8425350  48.6752167  64.7713928
  20.2140694  49.3670998  66.0653229  45.4475784  57.3551750  59.1951828
  46.2919731  57.6317940  58.8392143  44.9830246  56.9810677  58.4465408
  57.6584930   1.9659010  40.7525482  57.3355522   2.8232245  40.4751701
  57.1426086   1.7560296  41.5310364  69.5975113  37.3319092  37.1213379
  70.2906723  36.9981079  37.6908379  69.1537323  36.5474014  36.7990952
  22.9341908  28.7679272  12.9663019  23.7417011  28.5488071  12.5013847
  23.0047283  28.3040066  13.8005877  23.2650738  44.0200500  44.2030106
  24.0383625  44.5482140  44.4012566  22.6549435  44.2119751  44.9151459
  20.6862106  32.8093529   8.0138664  20.9666443  33.1141205   7.1509042
  21.1339417  33.3892975   8.6298485  20.4305286  22.5151806   5.1554508
  20.5730972  23.4587784   5.0810971  21.1418610  22.2090721   5.7180648
  52.0893211  43.0061035   9.0429544  52.9830780  42.7620850   8.8023596
  51.5340004  42.4352760   8.5119114  40.3635406  25.5118942  74.8756638
  41.0145531  24.8465252  74.6527328  40.8112869  26.3446140  74.7262115
  50.4721870   3.5395598  57.2749901  49.7854347   2.9695435  57.6209412
  51.2710228   3.2446642  57.7121811  52.9939651   6.5520053  83.0215302
  52.8503456   5.6056571  83.0161819  52.1769981   6.9163246  83.3622131
  51.2149048  52.3577309   7.7262287  52.1424484  52.3159752   7.9589329
  50.7572250  52.3664742   8.5668745  53.2484398  60.9115143  41.9886665
  53.6150703  60.5125313  42.7777328  52.4508553  60.4113121  41.8157883
  46.9724579  37.5948601  31.7929668  47.8138351  37.1787529  31.6054401
  46.6934547  37.9600830  30.9533234   4.0761938  58.7019539   4.3269782
   4.3037691  58.6949463   5.2567053   4.7323294  58.1394234   3.9155424
  55.0970879  33.1614113  59.4230804  55.4084778  33.9341011  59.8944778
  55.6458893  32.4466476  59.7458191  71.0398712  69.3111649  62.6775360
  71.1907196  69.0234833  61.7771378  70.1640854  69.6971588  62.6621017
  20.6674843  23.7164001  88.8818741  19.8543854  23.2136650  88.9304581
  20.9730244  23.5914326  87.9833984  48.7243462   2.2290440  31.1325111
  48.7500763   1.8428993  30.2570343  49.4492569   1.8131167  31.5991383
  11.2417288  53.7285690   7.8673482  10.3750868  53.9286652   8.2210770
  11.2216864  54.0738297   6.9748101  12.9383440   5.3896227  75.7910690
  12.4803143   6.0001326  76.3687515  12.3814354   4.6112695  75.7752304
  40.8954010  19.4475250   5.1334682  41.2005348  20.2333679   4.6800599
  40.8969879  18.7668667   4.4604645  76.1623688  10.4322767  67.1086807
  76.7857361  10.4308052  67.8350677  75.4857864  11.0548229  67.3749466
  18.1689510  32.8851471  88.2282410  17.6867065  33.7097015  88.2897720
  18.5146828  32.7435455  89.1095200  12.9469061   2.0029588  34.8576546
  12.4520779   1.7620523  34.0744972  13.7539625   1.4917842  34.7977104
  45.7889900  34.8308754  71.3199921  45.9324455  35.4504776  72.0353546
  45.1327095  34.2218781  71.6585922  23.6608906  70.0686340  55.3161888
  22.7277069  70.0675888  55.5292625  23.7767448  70.8326797  54.7513504
   3.6110966  69.2412720  58.5710602   3.4476309  69.3144531  57.6307640
   4.5212040  69.5177917  58.6781807  26.1793690  45.8464203  17.6824875
  26.0966187  46.1640244  16.7833157  26.8287449  45.1451454  17.6299915
  32.2296181  62.2580070  41.4726944  32.4026794  62.3569298  40.5364799
  32.4366798  61.3422508  41.6590919  51.2546616  32.7540665  55.2754173
  50.7814369  33.2672882  54.6205177  52.0038223  33.3006783  55.5125084
  62.8079605  20.9665737  47.6052704  63.4201698  20.3061180  47.2808800
  62.6151390  20.6943016  48.5024452  69.4678421  15.6062651  20.0932045
  70.2922592  15.5682669  19.6083050  69.2511444  16.5380859  20.1245594
  65.9165192  16.5395851  86.8873901  65.8692551  16.9206371  87.7641983
  65.1248169  16.8503227  86.4482040  56.1080132  39.5755043  17.5936203
  55.5480385  38.8142090  17.7455750  56.7865105  39.2585793  16.9974403
  64.2488708  32.1781349  62.5850525  65.1987381  32.2792931  62.5238342
  64.1166382  31.6149044  63.3476257  77.3660583  53.0613136  72.0116882
  76.7536316  53.7764778  72.1840363  78.0595398  53.1781120  72.6610413
  26.0597725  64.1972961  41.7099457  26.8430595  64.5444412  42.1367760
  25.9483871  64.7442780  40.9323616  71.8701248  69.6412048  76.1432190
  71.9266357  68.6859894  76.1679382  70.9398117  69.8227158  76.0097733
   1.5693920  57.6867371  87.1521759   1.9262409  58.1705666  87.8970261
   0.6289622  57.8628616  87.1805267  19.2347603  20.6992798  81.1726761
  19.9300671  20.1266689  80.8488007  18.8167381  21.0394897  80.3816299
  70.6299515  29.4674759  83.1760864  70.9187469  29.0567036  82.3611679
  71.2521744  30.1808052  83.3183594  84.0790710  28.4155598  19.8240566
  84.7495499  28.9956894  19.4633121  84.4587860  28.0886860  20.6396542
   1.7458588  22.0880852  16.5189648   0.9321014  21.7481556  16.8910904
   1.5838377  23.0244312  16.4039097   1.0313158  32.7327232  38.5996323
   0.4028850  32.9408035  37.9082489   1.5693401  32.0319481  38.2312889
  30.2627831  60.6498413   0.0574317  30.1255417  60.4402008   0.9812535
  29.8306084  59.9391289  -0.4162184  60.2984695  43.5165100  68.0129776
  60.4052582  42.8340454  67.3503494  61.0301552  43.3821106  68.6153107
  30.7842388  27.8682804  11.1017361  30.6591034  27.6164894  10.1867638
  31.7341862  27.8823814  11.2185020  11.2668066  71.5645065  86.4405823
  10.5390186  72.0396118  86.8416290  11.5292759  70.9250717  87.1027527
  59.1410446   2.4614182  37.6142998  58.6138687   1.8370105  37.1158714
  59.4692612   1.9571939  38.3587875   0.8633643  53.8151474  33.0310478
   0.8092436  54.3850479  33.7981987   1.5636004  54.1943398  32.4999046
  13.6695271  69.2390213  17.5474777  13.9351654  69.2776642  18.4662685
  13.0221481  68.5347061  17.5147438  13.3763742  51.2738266  13.3210907
  12.7207603  51.7193871  13.8576336  13.1622324  50.3445663  13.4038181
  82.2194443  27.1577320  86.5574646  81.5164642  26.6448555  86.1587067
  82.5588684  27.6956520  85.8421555  57.2582245   3.5089209  13.2948494
  56.7783165   2.7997479  12.8670721  56.5818748   4.0259752  13.7323828
  71.8694534  31.7138691  37.8826065  71.4134674  31.0798302  38.4360542
  72.4148788  31.1794128  37.3054657  62.9683304  26.7956982  68.3595200
  63.5961838  27.2788601  68.8967209  63.2712898  25.8883896  68.3947067
  63.9056816  57.7615433  64.1394272  63.0017433  57.8603554  63.8404884
  64.1657333  58.6418114  64.4109573  24.9401741  47.5091820  87.9676437
  24.2866955  48.0769653  87.5592041  25.2168026  47.9864807  88.7498779
   1.3164636   7.1088881  18.7890511   1.8354094   7.9099383  18.8614807
   0.5072460   7.3042035  19.2615452  74.4541626  44.6114502  72.0444489
  74.1420288  44.3615494  71.1747589  75.3701782  44.3340874  72.0589981
  58.3366852  15.2446594  13.9668493  59.1549568  15.7056875  13.7821360
  57.8070946  15.3719788  13.1797314  84.3558350  37.4313049  53.1945305
  85.1398010  36.9883308  53.5191803  83.7293091  36.7248955  53.0374184
  79.3469467   5.2838836  74.2852936  80.0990982   5.6562662  74.7455444
  79.7243271   4.6217461  73.7061691  82.2872086  49.2919617   8.4662218
  81.4669800  48.8010635   8.4164991  82.1981659  49.8279419   9.2542763
  10.9941750  39.3165741  56.8394203  11.1401091  38.5829086  56.2422028
  10.2644224  39.7995834  56.4516144   3.9589012  43.3660622  10.8821611
   4.4265847  42.6611214  11.3300056   3.4493165  42.9224396  10.2041082
  23.6114445  34.9955559  66.1585770  23.0346394  34.5679321  65.5255966
  23.6670341  34.3776817  66.8875275  58.8443451  31.7466564  84.4245071
  58.8958015  30.9287853  84.9191513  59.6224937  31.7388363  83.8671417
   6.4595671  65.3270340  14.9403381   6.4451957  65.7761307  15.7855225
   7.3845272  65.3084106  14.6947079  24.5621357   3.6000960  81.3643036
  25.0967979   3.3964715  82.1317062  23.7330952   3.1488757  81.5234299
  16.9109325  36.5012894  48.1503067  16.2045460  36.7900200  47.5724792
  16.5265980  35.7886009  48.6607933  69.6603317   0.6036786  54.9678001
  69.2103348   0.7507853  55.7997208  68.9625702   0.6157843  54.3126526
  33.3080597  53.7595749  82.4191742  32.8621025  53.4066925  81.6492233
  33.1655998  54.7046356  82.3663025  21.2721710  24.6805325  81.3873672
  21.3464527  23.9648476  82.0186386  20.6311569  24.3702126  80.7478104
  10.9021349  62.7227516  32.6738243  10.9602432  63.5938377  32.2813072
  11.7489395  62.5958672  33.1016731  63.4578590  15.9218254  71.0634766
  62.9511185  15.8395853  70.2555923  63.0163956  16.6154919  71.5535431
  38.8946648  52.9792557  41.4906158  38.4290924  52.2942581  41.9704666
  38.2479286  53.6762505  41.3803329  43.3588715  45.6292000  50.5877686
  42.9461098  45.0133667  49.9822807  43.7605896  46.2885284  50.0219612
  18.3993969  58.4738426  18.4150200  17.8245564  57.8117599  18.7989922
  18.1974602  59.2753792  18.8977165  83.7047119  18.0655613  61.3841515
  83.1905136  17.4305420  61.8827362  84.2337189  17.5323582  60.7907906
  59.8566246  51.4054832  13.3523340  60.1788101  51.6313438  12.4797440
  59.6239967  50.4791145  13.2893925  56.8200989  42.0231476  84.0259247
  57.3716507  41.6576576  83.3342361  57.3605423  42.7023773  84.4294128
   6.3128476  20.7683868   0.4705357   6.1654077  21.6651516   0.7710435
   5.4560075  20.4759884   0.1597939   2.8395116  27.2517033  55.7149658
   2.4635379  27.6818771  56.4829636   3.7123079  27.6351814  55.6289291
  15.5815382  67.7352829  48.5453224  16.3711433  68.2206650  48.3062553
  14.8605146  68.3152924  48.3004990   5.4863000  45.5034599   9.8297272
   6.0056224  44.9591713   9.2378769   4.9926515  44.8775177  10.3595762
  74.6054535   9.5218401  39.1533165  74.7203217   8.7652254  38.5783615
  75.1595612   9.3334103  39.9107323   0.4277445  18.3403034  67.9342346
   0.6943597  17.8497581  68.7117386   1.2319616  18.7595119  67.6280746
   3.8754337  64.6453476  13.6238174   4.5886087  64.7458496  14.2543039
   4.3037434  64.3387451  12.8245821  64.1637878  57.8958549  11.1036215
  64.2291336  58.7428703  11.5446730  63.4287415  57.9968033  10.4988489
  54.1382484  64.2726669  67.3393936  54.0100708  65.0808105  66.8426895
  53.2927017  64.1124268  67.7584381  72.5605774  71.2654648  88.3939514
  73.4410629  71.3561249  88.0295944  72.6271667  70.5280914  89.0006332
   2.5695984  32.5266457  11.3235540   2.2269623  32.5762901  12.2159481
   3.4342761  32.9338493  11.3759899  30.3386269  34.9565964  71.2028351
  29.7917480  35.3763428  71.8668823  29.7152653  34.5434608  70.6053619
  47.4868126  18.4688034  82.5697861  47.3102875  17.8592434  83.2863770
  47.3633575  17.9478588  81.7763062   1.5872633   2.3649685  77.3771820
   1.7672325   2.5212777  78.3042221   1.8293893   1.4495345  77.2372208
   2.6421087   2.1694562  84.5498428   2.7402430   2.0205433  83.6094055
   3.3763313   2.7387853  84.7800903  49.5138206  44.2407532  32.5005798
  49.5688248  43.3397102  32.8189011  50.1549149  44.7198296  33.0256615
  22.7561474  12.7542858  59.2259064  22.3354683  12.0578079  59.7300682
  22.0291424  13.2697802  58.8766785  85.4707108  11.3535347  21.0936337
  85.3367538  11.3926449  20.1466599  85.9263916  12.1683636  21.3049221
   2.6283717  57.2882347  67.6696320   2.6068020  58.2381401  67.5536652
   1.7077821  57.0260391  67.6701279  18.7344398  33.4579659  22.8244019
  19.1073856  33.9343719  23.5661430  18.9345741  34.0038948  22.0640488
  35.1932945  31.9134102  11.6951790  34.3031693  31.5656509  11.7497387
  35.5630836  31.7626286  12.5650949  12.7891045  45.4994469  39.1141281
  11.9678097  45.2776451  39.5528870  13.4042978  44.8250961  39.4022636
  31.4661522   1.4514464  21.6845741  32.1780052   0.8261999  21.5483227
  31.8125439   2.2830160  21.3609447  57.0350952  15.4295282  79.3458252
  56.7373657  16.3327713  79.4541855  57.4643517  15.2177610  80.1747589
  85.8685226  24.4911060  64.1609039  86.6180649  23.9002457  64.2337036
  86.0178680  25.1519012  64.8371201  71.5587387  66.4948578  14.8038054
  71.9014893  66.6808472  15.6779699  72.1421738  66.9695663  14.2117863
  30.8184509  44.5582237  47.0685692  30.3296146  45.2088470  46.5646248
  31.4187641  45.0739326  47.6069946  40.7386589  32.4541855  15.7010355
  39.9395790  32.0473518  16.0359840  40.8704300  32.0520325  14.8424644
  71.6421051  53.2383652   2.5404828  71.8049393  52.8855362   3.4152565
  71.1572266  54.0489616   2.6956027  30.7361279  18.2681007  69.2498245
  29.8439121  18.0021667  69.4722290  30.8173046  18.0764847  68.3155212
  47.1170082   4.7191324  19.6741581  47.3690109   4.9846644  18.7897263
  47.3366356   5.4725842  20.2221603  77.5214691  68.5353241  79.1960297
  77.6706848  67.7916412  79.7798996  78.3549500  69.0059662  79.1898270
  47.4356651  55.6370201  68.7577438  46.9317017  54.9860725  68.2693634
  47.4746857  55.2902718  69.6490784  56.3305817  11.9582558  35.9367142
  57.1984329  12.2779999  35.6900826  56.3204575  12.0060825  36.8926659
  86.1799622  22.0255623  66.2329483  85.4877548  22.4144516  65.6983032
  86.0540543  22.4066162  67.1019592  45.8245049  57.8715286  70.7027969
  45.3968925  57.4998589  69.9312820  45.5418587  58.7859497  70.7161026
   9.4368744  46.6608429  61.2485504   9.0177898  47.3772659  61.7253494
   9.6695213  46.0259972  61.9261055  81.5634308  16.9839993  83.8137283
  81.2731857  16.1480713  84.1787109  81.3144226  17.6323242  84.4724350
  41.7852058  55.7940979  80.0662460  41.7403679  54.8568726  80.2555313
  42.3318825  56.1536598  80.7648773  23.0660172  46.0572853  68.5824585
  23.1539326  46.5040321  67.7404861  22.2288361  45.5970230  68.5231247
  33.3526840  43.2056999  83.5318985  33.1675339  42.5300331  82.8796539
  34.2915306  43.1252594  83.7002106  12.0316124   4.8835182  28.7187138
  11.2022057   4.4819446  28.4597626  11.9838924   4.9374909  29.6731987
  86.2510986  54.5766716  16.5556793  85.8161469  54.6046181  15.7034664
  86.3518143  53.6433372  16.7426872  76.2150421  70.0571976  77.0013657
  76.7193985  69.7542877  76.2463074  76.3731537  69.3964767  77.6756668
  47.0166702  35.8695831  19.1655331  46.2910080  35.2453728  19.1638622
  46.5950356  36.7268677  19.2248936  14.8390465  44.8800812  75.7081604
  14.8566580  44.2405396  76.4201355  13.9698029  45.2769585  75.7641602
  62.9468307  15.0102968  84.4343262  62.1836472  14.5239229  84.1225204
  63.1838417  14.5823212  85.2570648  14.2792158  13.2091684  82.8077240
  13.6104136  13.5464907  83.4036636  15.0109158  13.8195572  82.8986816
  36.6397285  50.9325714  69.9604492  36.6992073  51.8676949  70.1559982
  36.9695625  50.8536110  69.0653458  50.2261658   6.2277045  26.3631744
  50.9839935   6.7524257  26.6212368  50.4813538   5.8321204  25.5297337
  18.1822376  52.0084076  37.1226501  18.4055977  51.5094833  36.3368912
  19.0217705  52.3366127  37.4446716  62.7425957  62.2771492  66.7908401
  63.1848793  62.0309448  67.6032486  63.1156960  61.6948547  66.1290512
  11.5222263   9.2694798   0.3093406  11.3185778   8.3342972   0.3231836
  10.8679247   9.6656322   0.8848264  40.9484787  68.3876648  81.4624405
  41.3356285  68.2139282  82.3204422  41.6982155  68.4623260  80.8720627
  71.4070816  69.1994705  21.6884937  70.5710831  69.1834030  22.1544075
  72.0207596  69.5894852  22.3110085  69.6279907  27.7791729   6.6443639
  70.4899902  27.9713192   6.2752023  69.6570435  28.1501122   7.5262899
  20.1819057  17.8865623  75.2243347  20.8265953  17.2160130  74.9985657
  19.5526543  17.8662357  74.5033188  24.3114796  40.9665604  54.0962219
  24.8870945  41.5085793  54.6357727  23.5375328  41.5106087  53.9504509
  48.2887192  54.4981766  71.3512268  48.0820656  55.3405952  71.7560272
  49.2294083  54.5395050  71.1790924  70.4046097  68.8832474   9.5191317
  69.7723465  69.5095444   9.8715878  70.3785019  68.1469421  10.1302013
  37.7276001  12.4393425   3.8687050  38.1233063  13.2689371   4.1359501
  37.2745590  12.6426964   3.0503933  65.2129822  66.6461029  38.7924118
  66.1440964  66.4359818  38.7209396  64.7767487  65.9882660  38.2509422
  51.9877129  57.4098511  14.9283285  52.2026329  57.0155525  14.0830078
  52.6323357  57.0440788  15.5340500  57.3707466  64.4895859   4.4645486
  58.2784615  64.4331055   4.7630277  57.4161873  64.3131027   3.5248573
  35.9508934  55.6444702  79.7205353  35.1333542  56.0871124  79.4926605
  35.7414513  55.1465034  80.5107269  28.5098915  36.5031548  10.6950893
  28.5195332  35.5460091  10.6976414  28.7333603  36.7473259  11.5932398
  26.1964169  58.4169807  16.8140774  25.3173218  58.7606163  16.9732475
  26.3558235  57.8192711  17.5445328  85.1909866  64.6789780  41.6424675
  84.4342194  65.0300751  41.1731377  85.1263504  63.7310829  41.5260696
  66.5017395  27.9707699  45.0041275  67.4575195  27.9972706  45.0490189
  66.3071365  27.9238548  44.0680923  64.7886963  47.3191261  65.1089935
  64.9379654  47.4803352  66.0406418  63.8437843  47.4225883  64.9964066
  58.3065796  35.3643951  19.6982708  58.8229561  36.1641998  19.7977600
  58.5141106  34.8469734  20.4763718  20.2740631  52.7462578  32.3100815
  19.5424385  53.0927200  32.8208885  19.9041195  52.5822563  31.4426289
  75.4690247   0.3629096  79.8949203  75.6835022  -0.3734719  79.3222351
  74.6750717   0.0868805  80.3528290  46.2181664   1.1852365  34.6703644
  46.9004021   1.8334192  34.8454247  46.6761131   0.3448681  34.6876450
  41.8847313  15.5253906   5.3282661  42.5537987  14.9834709   5.7464857
  41.9701195  16.3799973   5.7508636   1.2452915  64.4086838  36.1059456
   1.6099930  65.0772552  36.6857986   0.5419043  64.0070648  36.6160278
  21.5816517  68.6797028  32.3748245  22.4330158  69.0482788  32.6105423
  20.9600792  69.3891144  32.5379524  83.7553635  61.7144661  22.2763081
  84.2831192  61.5100021  21.5043621  82.8792496  61.8831978  21.9296360
  49.7501183  38.5579376  10.6980858  50.2187347  38.8346519   9.9106464
  49.6099319  37.6189842  10.5758467  34.3687401  49.8196526  83.4081421
  34.4021530  48.8634911  83.4375992  33.5045967  50.0399399  83.7559509
  34.6142273  34.4541435  86.8806229  33.9266548  34.2341194  87.5091705
  34.1581459  34.9208717  86.1803436  73.4845352  68.5968246  67.6422806
  73.8050385  68.0121231  66.9555206  72.8763275  69.1835327  67.1927490
  25.9869213  17.9912357  57.3162613  25.5566597  18.8157825  57.0899162
  26.6335201  17.8602219  56.6227341   6.2031384  33.5689697  73.1398315
   6.4652629  33.9937706  73.9565735   5.2970448  33.8467598  73.0054474
  77.8512421  12.6201382  61.8915558  77.9499435  13.3551245  62.4967728
  78.4396515  12.8270731  61.1654816  73.1049042   2.2687914  14.8145456
  72.2975540   2.2012711  14.3047867  73.4670792   1.3827797  14.8080320
  60.1253700  70.0144806  47.0067749  59.5331841  69.3828888  47.4149895
  61.0014496  69.7030258  47.2341805  57.4228477   6.7617569  35.8409157
  57.1371422   5.8487439  35.8090897  57.3791580   6.9942017  36.7684326
  36.4950142   2.5174592  60.7110519  35.8778687   1.8152164  60.5055809
  36.4429779   3.1092603  59.9605217  66.2240448  48.7695999  71.5417252
  66.1141052  47.9520226  71.0562286  66.9329605  48.5882492  72.1587982
  50.4354172   9.6935425   9.3496675  50.9829025   8.9994211   8.9826717
  50.8700676   9.9340582  10.1678743  74.7054901  46.7376442  65.1399918
  74.1165161  46.5026436  65.8570175  74.1723328  46.6416473  64.3508453
  83.0367737  13.2302704  74.2976608  82.1217575  13.4232540  74.0933609
  83.3558273  12.7477312  73.5350418  28.9777660  62.7141876  74.9095535
  29.0626945  62.3819313  74.0158997  28.0340176  62.7374229  75.0677719
  75.8246536  70.3547897  68.0392151  75.2567902  69.5842285  68.0384064
  75.3577652  70.9958267  68.5752335  72.3594131  21.8746109   3.8107061
  72.1225204  21.9756107   2.8887987  73.1924515  22.3382664   3.8961270
  74.5703812  44.5968933  61.1713600  73.9571609  44.5303879  60.4393959
  75.4213486  44.7435036  60.7583351  84.3984604  45.4500809  48.3060112
  84.6494217  45.2864227  49.2151146  83.6482391  46.0413780  48.3673820
  78.8203354   5.4505172  66.4196243  79.5033951   5.4214315  67.0895615
  78.0003128   5.4475574  66.9133682  44.2408714  51.2842903  27.3628902
  44.0934258  50.3880692  27.6650219  44.5648499  51.1850052  26.4676743
   0.6508151  59.2777214  23.7597561  -0.1805131  58.8614197  23.9873867
   1.2729294  58.9377823  24.4029083  69.5262985  21.8557262  41.8226509
  70.0488434  21.4664497  42.5238190  68.9264297  21.1591053  41.5559883
   3.6030369  24.9883156  58.0635452   3.8532522  25.9117641  58.0340843
   4.3874660  24.5374718  58.3760262  47.8543434  46.2209625  63.6780739
  48.3161430  46.6160889  62.9385796  48.2026291  46.6725082  64.4468613
   0.5300594   2.5107932  66.8719330   0.5895748   1.6042141  66.5705948
  -0.3215463   2.5635693  67.3057709  12.7951040  20.0042171  56.9450378
  13.6640539  20.3810024  56.8065071  12.3447819  20.6391144  57.5021248
  20.9589958  25.5025501   7.9487967  20.1583958  24.9783649   7.9264212
  21.0719604  25.8058357   7.0479698  71.5315628  29.4340992  49.1201019
  71.0084229  28.6349030  49.1820984  72.1991501  29.3366489  49.7991142
  35.8808212  43.3084526  77.5205231  35.2031517  43.9575386  77.3316269
  36.5817032  43.8086624  77.9385986  62.3747902  11.7184401  66.6009140
  62.7255402  12.6075878  66.5497208  61.7796211  11.6523829  65.8541641
  82.4711761  17.7040024  25.2957726  82.7686996  18.3696327  24.6755695
  81.5604477  17.5391369  25.0515976  72.8269196  33.1818123  73.1146088
  72.6872177  32.6062317  72.3626633  72.1622543  32.9129601  73.7487793
  29.0373631  54.8015900  87.7955246  28.7446613  54.1361389  87.1728363
  28.2896519  55.3927155  87.8834534  32.2485809  47.2956047  42.6295547
  31.7984982  47.3101921  43.4742126  32.0570831  48.1493378  42.2413483
  55.6656876  46.7660065   4.6025877  56.1940994  46.0471535   4.9493756
  55.2154160  47.1232109   5.3680248   1.7739666  48.3433571   2.7011955
   1.1574235  48.4183464   3.4295380   1.2674741  47.9336967   1.9998566
  28.2589188  36.0282860  88.7524490  27.4862633  36.3191376  89.2368469
  28.9899235  36.4803963  89.1737137  32.5395546  62.0638924  88.7800827
  31.9528980  61.3550682  89.0439606  31.9924698  62.6422997  88.2486954
  48.4805641  42.1413460   4.7409172  48.9970627  41.8191261   4.0022464
  48.5044594  41.4282875   5.3790445  56.5364799  23.1232510  15.7241240
  56.7433128  22.7912807  14.8504829  57.3558922  23.5089951  16.0339603
  21.8366451  31.3323193  72.8118973  21.8765640  31.6530018  71.9108963
  22.7454453  31.3475571  73.1120377  56.1826591   5.3380799   1.9199769
  55.9316139   6.1675339   2.3264420  55.6100655   5.2624302   1.1566639
  36.4046898  16.0108376   3.4107361  37.2822189  15.7087536   3.1763813
  36.5085564  16.3966942   4.2805400  71.7265930  46.6475830  16.8910580
  71.2895355  47.0776138  16.1560116  72.6599731  46.7262650  16.6940041
  59.4400826  14.6753016  18.2082958  60.2302017  14.7896566  18.7363777
  58.8498230  14.1694851  18.7668438  86.9494171  27.2706814  83.1858139
  86.5082779  26.6626568  82.5925674  86.6033859  27.0540619  84.0515900
  68.9343643  11.7618341  88.4848404  68.0021667  11.6087332  88.3305283
  69.1418839  11.2249174  89.2496185  46.0159569  52.5078239  34.9784279
  45.3640099  53.0279388  35.4481926  45.5192490  51.7772713  34.6099129
  43.0582352  55.9465599  64.5094147  42.9827232  55.8204994  63.5635605
  42.3993454  56.6094284  64.7160568  60.5914345  45.5071640   8.1405544
  60.5429153  46.4391594   8.3533154  59.6932526  45.1916466   8.2402906
  73.6761856  28.2243919  19.2718124  74.0181122  27.5050945  18.7408428
  72.8895569  27.8658333  19.6827621  54.6577492  29.2745037  13.1195974
  54.9666367  30.1804962  13.1197090  54.5243263  29.0668297  14.0444221
  13.3115520  41.4593735  38.4872742  13.4278297  40.5094719  38.5073013
  12.5476332  41.6189003  39.0415421  25.4085274  69.3143082  72.4118958
  25.9105034  69.2022552  71.6046143  25.6564121  68.5653534  72.9539795
  61.8373528  18.2215919  71.7465057  61.5098572  19.0707245  71.4499359
  61.5428047  18.1552448  72.6548462  14.8267355  26.9603367   5.1262264
  14.4906197  26.2177944   5.6281104  14.8963385  26.6317501   4.2298908
  82.6826324  16.8293877  19.2425404  82.2966919  15.9902868  18.9911537
  83.5845490  16.6160793  19.4818707  70.5396271  68.2278748  85.9610672
  70.5426483  69.1482544  85.6981659  69.9743347  67.7974243  85.3196716
  43.1596260  55.4550972  34.0959511  44.0152740  55.8439903  34.2772255
  42.5583534  55.9156837  34.6812401  13.7085381  42.2253189  68.6599655
  13.5015678  43.1349106  68.4453964  13.1978111  41.7098083  68.0357590
  11.2750969  26.6259747  10.6584101  11.6004143  26.1019020   9.9264612
  10.3223276  26.5569611  10.5975809  10.2403355   3.8887296  61.2486038
  10.0189924   4.8098407  61.3856926  10.7712936   3.8859558  60.4521713
  33.4299164  69.4794617   2.8041477  32.9581985  68.7042694   2.4995396
  33.2872391  69.4901352   3.7505946   2.2788310  55.0628738  15.0763092
   1.4398347  55.4647903  14.8509665   2.6128616  54.7240601  14.2457314
  47.8248367  43.5511818  40.3442421  48.0439987  44.2620850  40.9465866
  46.8781013  43.6233444  40.2229309  37.0759468  51.0068550  67.1512909
  37.2830009  51.8003731  66.6576385  37.9157448  50.5572472  67.2452240
  21.4215851  22.3278065  82.9440689  20.8404045  22.9490643  83.3828125
  20.9119129  21.5193062  82.8912201  84.3160782  48.9898224   1.1604961
  85.0793839  49.3349991   0.6974075  84.6446686  48.2183685   1.6221462
  81.4671402  17.1800213  74.5237427  81.7076645  17.1193733  73.5992355
  80.6549606  17.6865578  74.5271912  15.6238384  60.6838493  53.2606316
  14.7141123  60.7690735  53.5458832  16.0451641  60.1743660  53.9528313
  43.5654106  53.2551346  72.8221054  42.8983498  53.9158478  72.6357803
  43.0828514  52.5358353  73.2295151  40.0005455  70.5594101  53.2753563
  40.7125206  70.0480347  52.8908806  40.1600456  70.5207901  54.2183838
  68.3717651  65.7938232  10.5565567  67.6732178  65.2259064  10.8817139
  68.1696625  65.9149323   9.6288080  57.9762535  57.6141472  83.8655167
  58.8933029  57.3429184  83.9066162  57.5224991  56.8663216  83.4768066
  49.5537910  50.1125221  58.3940468  49.5441017  49.1564445  58.3487206
  48.6539497  50.3508606  58.6170197  10.2272902  30.9633636  83.7544327
   9.6096563  31.2065487  84.4440918  11.0318909  31.4314156  83.9775391
  11.5103092   0.7710674  16.1922283  12.1553745   1.4082032  16.4991150
  10.9167805   0.6547968  16.9341431   3.7196410  17.7134781  32.0771790
   4.0571065  16.8638802  31.7933941   2.9711123  17.8775940  31.5035915
  72.0649948  29.0613194   2.6039531  71.5900955  29.7214985   3.1087961
  72.9703979  29.3718128   2.5955005  47.3511887  64.7644882  88.2360001
  46.6171494  64.1583710  88.3362198  48.0679436  64.3548050  88.7204132
  48.5721016  41.8698425  63.7695961  48.3541946  40.9771461  63.5015678
  48.9914322  41.7677727  64.6239853  14.2041101  38.8723831  49.1718102
  14.8950701  39.5260582  49.2790947  13.5262251  39.3211365  48.6665154
  71.0224915  23.2710285  83.8007050  71.7266235  22.8044643  84.2509689
  70.2684250  22.6847649  83.8632736  70.0009918  54.6599731  26.3998623
  69.5733643  54.0427856  25.8061905  70.4115906  55.3029900  25.8217888
  12.6891708  34.0493851  63.7159233  13.6244106  33.9645119  63.5305710
  12.4240799  34.8433800  63.2516708  55.1516495  40.2127037  68.4862671
  56.1002083  40.1174965  68.5722961  54.8945770  39.5148811  67.8836136
  31.4967556  34.5665970  57.7129059  30.9536228  34.3318100  58.4653130
  30.8706818  34.8300476  57.0384750  27.0191383  25.9285469  75.7790298
  27.8811398  25.5601463  75.5854645  26.4007664  25.2675838  75.4676208
  69.5832901  51.4342804  53.3146820  70.2164078  51.8113365  53.9256020
  69.4980164  52.0903053  52.6228828  52.2133980  38.5375748  68.7389679
  53.1177177  38.2953644  68.9383850  51.8558998  38.8374710  69.5747223
  45.5823898  46.5123138  52.7568245  45.2784691  45.9592209  52.0371323
  46.1606865  47.1512184  52.3401604  41.2863159  55.1871834  16.5395622
  42.0424957  54.6510887  16.7783623  41.6254883  55.8045502  15.8914471
  29.9023819  43.6535034  75.5494995  29.8554745  43.8187561  74.6078415
  30.0515690  42.7106400  75.6200714  60.2359505   1.3652157  62.6409721
  59.5871277   1.7773745  63.2113953  60.5446930   0.6074921  63.1377296
  47.9286880  12.2100706  50.7825737  47.4404030  11.6879120  51.4190941
  48.4775124  11.5750074  50.3224487  25.5382290  31.1845875  58.5198174
  25.9429684  30.3209610  58.6008377  24.7005768  31.1002140  58.9752846
  40.5457039  67.5496140   2.2981057  40.6240273  66.8970490   1.6022248
  41.4409180  67.8575363   2.4395640  65.0188217  11.6305084  15.9443789
  65.1977768  11.8754463  16.8522415  65.8633652  11.7166052  15.5021505
  48.1027222  63.3293266  37.7527199  48.8547058  63.0886459  37.2115860
  48.1278038  62.7135468  38.4851265  75.6142197  16.8823147  58.7518845
  76.0273819  16.0558796  58.5018196  75.9905777  17.0890293  59.6073685
   7.5816693   4.8219995  81.0422363   8.2354202   4.2108722  80.7025833
   7.9318957   5.6879606  80.8332291  21.1317463  68.7280579  20.0259132
  20.4788380  69.4274979  20.0529213  21.5098610  68.7192917  20.9052219
  79.9170227  33.0082092  84.5576324  79.9201126  33.2136459  83.6227417
  78.9939194  32.8691673  84.7692566  61.1619072  56.4549942  70.6456375
  60.2690201  56.2974510  70.3387833  61.6477966  56.6938820  69.8562927
  57.3196678  34.6111259  26.9236526  57.0123825  34.6877632  27.8269444
  58.2403984  34.8701324  26.9610920  32.4679298  59.4108810  42.5683174
  32.5730171  58.6979904  41.9382591  33.1227379  59.2324371  43.2433128
  67.2314529   7.7952862  13.2976437  67.2672195   7.2381110  14.0751448
  67.7857742   7.3490272  12.6574774  54.9467049  14.3883591  63.4022255
  55.3855362  14.4668465  62.5551720  55.4892921  14.9009352  64.0014725
   6.4849439  16.7581692  54.2735748   6.6642237  17.3503647  55.0039139
   5.8355856  17.2208157  53.7439270  59.4486885  59.9281082  25.6914635
  59.5291328  60.2409706  24.7904205  59.5510292  60.7141800  26.2279797
  37.3041344  31.1412029  61.2959747  38.0448494  31.1925831  60.6918755
  36.7793922  31.9169006  61.0980492  69.6690674  54.5552597  38.0146866
  69.1612701  54.3510170  38.7999611  69.9399796  55.4654503  38.1346512
  15.2046366  30.8980236  69.0803070  14.5412169  31.3656960  68.5729675
  15.9058981  30.7220821  68.4530029  47.0374069  67.4022446  52.9615707
  47.0876198  67.4728165  52.0082970  47.8934135  67.7003021  53.2692223
  19.1210632  34.6705933  83.2398682  18.5735798  35.3111687  82.7858276
  19.2181797  33.9524460  82.6145172  72.4710464  35.6086502  63.5946388
  72.5768738  36.5541878  63.4898186  72.7760239  35.2401352  62.7655334
  44.7628326   0.2338011  74.2914810  44.4499588   1.1369972  74.2406998
  44.0315781  -0.2916015  73.9667511  39.0367050  70.0319519  15.8591843
  39.6146622  70.0368958  16.6221886  39.5915680  70.3254166  15.1365213
  81.2094193  12.3733463  10.2216969  81.7322159  11.6479177   9.8801355
  80.3870544  12.3262949   9.7341146  43.4572411  41.0414352  33.6532822
  42.8126831  41.4252625  34.2478027  44.1587105  40.7333336  34.2270813
  55.5866318   4.5418668  82.2964935  54.6532936   4.3486209  82.2083664
  55.6758194   4.8935199  83.1822815   5.0822945   2.2426195  65.5557632
   4.4216862   2.8672328  65.8552399   5.8909774   2.5264971  65.9819946
  13.9413424  67.6871033  60.1251907  14.1457758  68.0654755  60.9803352
  14.4042740  68.2445679  59.4997635  58.1934052  44.8786812  41.8780861
  57.6200447  45.6364708  41.7630081  57.7412453  44.3315582  42.5203018
  10.8388329  35.2410736  72.6199570  11.1971035  34.3673172  72.7762299
  11.6013899  35.7772598  72.4025955  31.3435383  65.6467590  42.5673981
  31.1904907  65.8124695  41.6371574  31.6038113  66.4967194  42.9224396
  67.0793610  49.3329430  18.9879398  67.3827057  48.8019295  19.7243080
  67.4902115  48.9350319  18.2204094  32.9330826  31.8961506  76.5828552
  33.0032883  30.9919338  76.8889465  33.7371902  32.0435867  76.0849609
  78.9263000  40.5790253  44.9028931  79.1395645  41.3707275  44.4089775
  79.0155029  40.8376694  45.8201599  66.8204117  44.4542389  32.4076195
  66.5371628  43.6780891  31.9243069  67.1791077  44.1094971  33.2253723
  41.1012230  52.7993088   0.2004853  41.8477478  52.7443352  -0.3960963
  41.0686073  53.7203331   0.4590946  69.2376938  21.3448429  33.0543671
  69.4307022  20.7852955  32.3021126  69.4931717  22.2228985  32.7715569
  17.0974960  38.2363319  51.4503822  16.6662884  38.9551811  50.9882698
  17.7452755  37.9058609  50.8279686  29.3824291   0.4210853  75.3112183
  29.1200943  -0.3980055  75.7313385  28.9725056   0.3889171  74.4468307
  82.6226120  67.5145645  39.7494202  83.1697083  68.0794601  40.2951431
  81.8357697  67.3645325  40.2734451   1.6268846   3.4277542   2.9770262
   2.3629339   2.8502007   3.1792510   2.0302181   4.2787790   2.8058224
  50.8900261  59.6745872  41.0841217  50.0304222  60.0321960  41.3064461
  50.7051239  58.9862709  40.4451637  80.1715088  24.9599972  58.2535439
  80.0062485  24.0424824  58.0365486  80.1135712  24.9944820  59.2083664
  57.9182968   8.6325998  74.1677017  57.9671898   9.2899475  73.4736328
  56.9931450   8.3894768  74.2025833   3.7751260  56.6955986  81.0924759
   4.1180334  56.8715858  81.9686432   2.8399041  56.8887138  81.1580429
  43.8003082  53.6292915  24.0874004  44.1460800  54.4256401  23.6842842
  42.9006119  53.5694313  23.7661572  64.8388672  66.3072433  81.2414551
  65.1916885  66.8160858  81.9714050  65.3645859  65.5074081  81.2308350
  14.0567493   3.0886433  62.2921333  13.8420267   3.2448769  61.3725052
  14.8582411   3.5907378  62.4395905  24.0114422  57.4013290  76.9916153
  23.5365753  58.2202072  76.8495865  24.3611526  57.4781227  77.8793335
  44.0536270  53.9253502  16.3267097  44.5541611  54.5195503  15.7675858
  44.4083099  54.0666885  17.2044659  86.4825134  34.8362885  22.7810612
  86.3901367  35.7861786  22.7075405  87.3960266  34.6659966  22.5514507
  37.9730644   0.4666235  83.8283997  38.5039749   0.1244988  83.1091537
  37.8631248  -0.2777364  84.4200745  39.2645187  57.1992645  56.2004890
  39.3569374  56.2633209  56.0224457  38.8642960  57.2394676  57.0690727
  37.6151619  21.5618229  88.1154480  38.4543839  21.1066418  88.1843414
  37.8401413  22.4899960  88.1795425  83.3859100  21.0727615  35.5932846
  84.3373795  21.0119762  35.5082359  83.0645142  20.2189178  35.3036461
  63.0445404  13.1842690   8.2455120  62.8119164  12.4969673   8.8697996
  63.5772858  12.7390223   7.5865984  48.0918694  62.7796555  42.1828651
  48.1167526  62.3323021  41.3369980  47.2300415  63.1953697  42.2086945
  65.6792374  60.3309784  48.8517570  66.5334167  60.3338165  48.4197807
  65.8098221  59.7997017  49.6371994  73.8473587  64.2043076  60.5054474
  74.3476868  63.7268791  59.8436661  72.9321365  64.0327225  60.2837296
  35.4856071  41.0009041  35.6344643  34.7834587  41.4223518  35.1388855
  35.9910240  40.5244751  34.9758263  50.9084969  57.0304642  61.6246605
  50.3381538  57.2581558  62.3588905  51.6955872  56.6721420  62.0349350
  44.7540207  42.4451027  36.5029182  44.8744278  41.4955101  36.5054932
  43.9169998  42.5816002  36.9467621  27.5854053  14.2357016   3.3781612
  27.8677578  13.8957920   2.5290608  26.9289265  13.6083612   3.6810014
  82.4255905  20.7023125  13.5609436  82.9151154  21.2216549  12.9230728
  81.6844940  20.3521919  13.0665512  51.3340454   5.3798404  24.0396938
  52.2714577   5.5525017  24.1273270  51.0497169   5.9558816  23.3300705
  69.0564957  20.1372375  19.5376415  68.4104462  20.4307480  20.1800556
  68.9763184  20.7603264  18.8154488  83.4959793   4.8046761  68.0861435
  83.8278580   5.3927712  68.7645493  82.7118225   5.2412410  67.7533722
  41.1366615  27.2672501  82.2381897  41.8577347  27.8228226  82.5342026
  40.7691460  27.7321148  81.4864807  40.5390511  41.0422325   8.8463097
  40.2189865  41.4761543   9.6371965  41.4506302  40.8268929   9.0434847
  12.8828239  13.2024326   2.0655739  13.0932465  13.3054724   2.9936564
  12.4783392  12.3369169   2.0063496   4.1355615  36.0424919  28.0298367
   4.2218733  35.2461128  27.5058517   3.8810282  35.7312431  28.8984966
   8.0379343   0.5275864   4.1000328   8.4852877  -0.0469316   3.4787147
   7.8037958  -0.0453409   4.8302145   6.5880375  12.1359444  48.8793602
   6.9913125  12.1062632  48.0117645   7.3212962  12.0432491  49.4876137
  68.6905975  68.1596375  66.8949432  68.1672363  67.4590225  67.2841263
  68.9079742  68.7328491  67.6300735  73.2298584  57.1891556  17.6683159
  72.7698898  56.6783867  17.0021458  73.2790375  58.0719681  17.3016357
  82.3970718  25.2996864  56.7578812  82.4340210  24.4333382  56.3525314
  81.5470276  25.3224411  57.1973610  42.2302742  68.3653946  83.9315491
  43.1387711  68.6266098  83.7811127  42.2905464  67.4702454  84.2651672
  86.3630981  42.0089912  86.6243057  86.1524963  41.3989906  87.3312531
  87.1036987  42.5155258  86.9577103  40.3109627  13.4377127  68.4735718
  41.0236053  13.1370087  69.0374451  39.6059570  12.8074827  68.6219101
  84.9606094  45.0981178  18.3581905  84.7129440  45.9265671  18.7687550
  84.3168106  44.4682846  18.6823311  46.2373505  60.3758316   1.7531021
  47.0873337  59.9430885   1.8336732  45.7493477  59.8319740   1.1347952
  50.7884331  18.9531994  78.5864487  50.1831970  19.6440411  78.3168945
  50.3479805  18.1396294  78.3408127  38.5385170  68.4820175  62.1863937
  39.1814194  69.1475601  62.4312820  39.0641937  67.7272720  61.9213371
  44.9407845  30.7781620  88.6113892  44.5824432  31.5482235  89.0527802
  44.1989670  30.1778107  88.5371246   4.9953146  51.0625763  29.5525990
   4.3808279  50.9199142  28.8326759   4.8078732  51.9512177  29.8549461
  73.0376511  23.3550472  33.5359230  72.1534271  23.3822403  33.1703606
  73.5927505  23.0943260  32.8009949   4.6308703  61.2713699  48.5910378
   4.1955976  61.2284088  49.4424629   5.1756530  62.0569000  48.6399155
  19.5343876  43.8839722  79.6431885  19.5829964  43.0702400  79.1414795
  20.1406116  43.7524681  80.3721771  32.5307770  24.9111786   5.9482970
  32.5308418  23.9817257   6.1770916  32.4444389  24.9231892   4.9950743
  48.8827400   6.9025092  77.6442413  48.8116913   6.8520975  78.5974731
  49.6505165   6.3714051  77.4328766  76.4371567  43.0959358  14.2073803
  77.3058548  43.3898621  14.4816246  76.4929886  42.1404305  14.2186565
  61.3950043  40.4158783  83.1996613  61.8106041  40.7227631  82.3938522
  61.7530632  40.9811592  83.8841248  74.2894669  45.5204506  19.5161724
  73.3336334  45.5579453  19.5509644  74.4835205  45.1530342  18.6538620
  16.3937092  70.9036560  45.0179634  17.2803249  71.2190628  45.1930656
  16.2164021  71.1751785  44.1173668  76.2283249  36.4424782  77.5681839
  76.0879059  37.2108192  77.0148621  76.8417892  35.8996162  77.0730133
   9.8111506  56.0183754  78.1561890   9.3275766  55.1976624  78.0622635
  10.5479994  55.7983322  78.7261581  46.7777443  39.2935638  10.7556362
  47.7274475  39.1992989  10.6820698  46.5717621  38.9668770  11.6314669
  82.2245331  20.6135197   3.2691631  81.7557220  21.1489468   2.6290293
  81.9959106  19.7124462   3.0410547  22.1991673  37.7216225  86.8154449
  22.7412186  37.7415199  86.0267639  21.4433613  37.1865578  86.5731735
  39.7845612  22.5136070  78.4230347  39.5073433  21.8504429  77.7909012
  39.5347061  23.3460484  78.0219803  85.8634872  62.9460793  71.1530228
  85.4372559  62.1558113  70.8212967  85.2878265  63.2525520  71.8536835
  67.3685455  22.1049557  65.1318512  67.5662308  21.3484154  64.5797653
  67.1854553  22.8118134  64.5129395  17.3581600  60.6334610  87.9249115
  17.4375763  61.5195045  87.5715637  17.9425602  60.1054153  87.3809662
  67.4305801  12.3615942  73.9526825  67.3141556  11.9340343  73.1042328
  66.7062149  12.0354166  74.4866638  38.0816803   9.2008095  11.8552885
  38.1486511   9.5902576  10.9834642  38.9636612   9.2759380  12.2195663
  69.1308441  31.8110638  86.2688065  69.9643097  32.1375847  85.9297714
  69.3600159  31.0059528  86.7330322  75.5423355  31.0597630  73.0199127
  76.3715897  31.2906055  72.6012573  74.9032059  31.6566162  72.6306610
  33.7648582   5.7612715   4.3691835  34.6098633   5.3530068   4.1807156
  33.6452408   6.3997784   3.6661668  63.4129448  -0.3589407  54.8487549
  62.8327560   0.3865701  54.6943932  64.2444839   0.0352254  55.1122169
  40.6871109  33.6649246  83.8030167  40.4881172  33.8709373  82.8896790
  40.0346069  34.1521454  84.3060989   5.6492310  56.2360954  87.1669159
   5.1424565  57.0369987  87.3009491   5.9529181  55.9955177  88.0421982
  56.0519257  56.1689377  54.8637009  55.4880753  55.5595245  54.3873329
  56.1649513  55.7671928  55.7251320  73.4931793   2.4101555  10.6654081
  73.6094360   1.5673023  11.1039448  72.5685654   2.6216512  10.7942305
  72.1969604  36.9124756  29.7319050  72.5852051  36.6567230  30.5686188
  71.3452835  36.4757423  29.7195950  49.7347488  42.8704224  38.3374405
  50.6106300  42.8486137  38.7229156  49.2002296  43.3322678  38.9833679
  32.1036072  62.9134521  50.7925339  32.8196487  63.2879868  51.3055992
  32.4240723  62.9241486  49.8906326  68.8348999  45.3866196  19.7874451
  68.6285858  44.8032417  20.5177441  68.4577484  44.9540138  19.0213928
  42.5193443  54.6458244  77.6259613  42.7386436  55.5768776  77.6617279
  41.8727074  54.5251808  78.3213272  65.7535324  52.8156967  44.6328468
  65.5338440  51.8860550  44.5717506  64.9245682  53.2684097  44.4776230
  74.8023300  27.5157986  61.1015358  75.5527191  26.9397335  60.9555969
  74.7794952  27.6437855  62.0498657  51.6780014   7.6032033   7.9616995
  52.6238327   7.5550318   8.1006804  51.5832710   7.9857755   7.0894060
  38.4219208  65.9154816  10.1062374  38.6036873  66.8433990   9.9573431
  38.6651955  65.4889145   9.2845993  21.5915432  56.8321953  18.2189636
  21.7630501  57.1988716  19.0863514  20.8345833  56.2602844  18.3460941
  59.1628723   3.1214449  46.9830780  59.7795296   3.0203440  46.2579918
  59.2419090   2.3071737  47.4800148  10.7780647  24.9362297  72.3071671
  11.2660170  24.1856899  72.6460190  11.3588982  25.3236866  71.6523819
  79.8019485  12.6731205  47.9167099  79.2872467  12.9908381  47.1748390
  79.3394165  13.0020218  48.6875000  73.9918823  63.5693512  48.0180359
  73.2996216  63.7497673  47.3820724  74.6216354  64.2795563  47.8945084
  16.3402157  59.0649376  36.8264465  17.2928581  58.9765549  36.8563347
  16.0167885  58.1643753  36.8016243  74.8984222  70.1071472  51.7602730
  75.1320724  69.1923752  51.6026764  75.5210648  70.6076431  51.2329674
  64.3111038  14.8360338  41.8724709  64.9145660  15.2988844  41.2912331
  64.7178040  13.9801302  42.0075836  27.9114857  56.4833107  29.6610489
  27.3715649  56.2867966  28.8954773  28.6420383  55.8675232  29.6033554
  85.6230392  47.4254761  65.8554459  85.0560455  47.5491447  65.0942230
  85.2290802  47.9684219  66.5382614  13.7851210  41.7032013  45.0328979
  13.4534245  42.5509834  45.3286629  14.2286711  41.8946075  44.2065430
  11.6333542   1.2949524  61.5065689  12.1867390   1.8671950  60.9750290
  11.2125959   1.8834321  62.1333733  56.1020966  39.4590416  37.7418175
  56.8890572  39.5253677  38.2826691  56.0167160  40.3219032  37.3363419
   0.9120219  38.1921158  20.5437202   0.4754503  37.9774017  21.3680592
   1.3013169  39.0532036  20.6960621  25.2801819  42.4613152  14.0971994
  24.6205235  42.3656998  13.4102192  25.4123707  43.4063492  14.1724558
  56.4765015  62.4918518  14.5938311  57.2771568  62.9967918  14.4516611
  56.0184212  62.5277405  13.7541256  77.6827393   8.5495195  84.7205048
  78.2863159   8.5095243  83.9786606  77.3177948   9.4337034  84.6849442
  79.4433517  17.2633743   4.0459919  79.6109695  16.3619938   4.3210430
  80.3089523  17.6712723   4.0217152  37.3503380  58.6125107  78.3743439
  37.5444794  57.7124786  78.1126480  36.4833374  58.5631523  78.7769623
  55.9211578  48.3787155  26.2495117  56.0877266  48.9138260  27.0254917
  55.8095245  49.0125275  25.5409565  75.7509232  59.7844467  59.9676208
  76.2505035  59.7434464  60.7830811  75.4832687  58.8799400  59.8049698
  68.4455185  46.4769821  68.4066467  68.8822937  45.6722069  68.1277237
  69.1491928  47.1231537  68.4661102  86.2724991  64.8002853  61.0007286
  85.3961258  65.1763229  60.9182510  86.2977982  64.1053162  60.3429985
  16.8827381   6.7384510  76.0455780  17.5393085   7.2570028  75.5805435
  16.4472561   7.3655167  76.6229630  54.7020874  57.6223183  33.4418068
  55.2364616  58.2006035  32.8975067  54.4481544  58.1638985  34.1890984
  76.0147629  60.9069061  55.4607697  75.1088638  61.1548309  55.2760887
  76.3789749  61.6597862  55.9263382  30.5745544  56.9002876  42.6022072
  30.7270756  55.9554558  42.6184769  30.7521439  57.1560173  41.6970596
  52.1447639  49.4165955  35.6559677  51.5319786  48.7013893  35.8268585
  52.1021805  49.9614143  36.4418373  58.4645882  46.8067665  80.8926392
  59.2019920  46.3198700  80.5246735  57.8172607  46.1350822  81.1072083
  86.9061737   7.9085307  41.0200844  86.8271637   7.4740906  40.1708183
  86.0696411   7.7403874  41.4538727  50.7454796   2.4493823  37.0329590
  51.0781212   1.5805062  37.2579803  51.3113556   2.7452052  36.3198662
  75.6991501  62.5600853  20.7745342  74.8884811  62.1394386  21.0610714
  75.4279938  63.4319496  20.4871998   1.0379258  69.7809372  14.5507259
   1.5968279  70.3448181  15.0854197   0.7091207  69.1212234  15.1613770
  41.5295639  11.8693933  74.9217606  41.8933640  11.8694201  74.0363922
  41.5799179  12.7834415  75.2014236   0.8413060  13.0789623  64.4772797
   0.0202420  12.7187166  64.8124008   1.2244012  12.3663588  63.9657478
  17.8416100  47.6828766  78.4863663  17.6034298  48.5764656  78.7333450
  18.7647533  47.6057587  78.7273788  53.9546394  66.0275879  16.3113232
  53.6485977  66.4181900  15.4927893  53.6711998  65.1146622  16.2617416
  84.2544556  38.8797455  14.1779852  84.0021820  39.1887932  13.3078833
  84.4980316  39.6742363  14.6530447  31.5605412  49.1956215  23.1538296
  32.2815819  48.8475876  22.6292305  31.7478218  48.8996162  24.0446377
  78.3169479  29.1628017  12.7706928  77.7060089  28.9964008  12.0528536
  78.0787048  28.5226116  13.4412355  59.1061630  22.1616802  69.6941071
  59.1133385  21.6495800  68.8854446  58.1776581  22.2815704  69.8934479
  84.6568069  32.1013985  46.5824089  84.4851685  31.4219379  45.9304085
  85.0936584  32.7982979  46.0927887  47.0392151  34.7355232  66.7824783
  46.3399048  34.9010315  67.4147720  46.5944481  34.3450203  66.0302048
  29.9679661  71.2943115  68.1835098  30.2400246  72.0350113  68.7253342
  30.5102406  70.5653000  68.4846954  23.7218056  58.2596283  36.9276466
  24.0813751  59.1462746  36.9559593  22.8774338  58.3575363  36.4875526
  57.2282524  53.7151871  84.8624649  56.8755302  54.2791252  84.1741409
  56.6095619  53.8062057  85.5871506  37.1625061  66.4334259  41.9628983
  36.9552040  67.3448181  42.1693535  37.3715668  66.4410248  41.0288391
  86.5947189  14.7518473  34.6247139  87.1258545  14.8690357  33.8370628
  86.9162140  13.9373875  35.0113983   9.1077719  35.1370964  57.1442986
   8.9319029  35.6136894  57.9555664   8.7206869  34.2730942  57.2853622
  45.0964317  57.9247704  50.1876144  44.6809044  58.4313622  49.4898071
  45.9895782  57.7766953  49.8768120  47.1431274  12.0375795  19.0475636
  47.2565651  12.8621435  19.5202789  47.6680222  11.4056606  19.5388851
  79.0292206  62.9229660  88.7231064  78.9981842  61.9689865  88.6510162
  79.0136795  63.0926094  89.6650238  60.3309784  50.3132324  70.4511032
  61.0257759  50.8966179  70.7563019  60.4355164  50.2933922  69.4998398
  26.9483013   2.5443439   8.0927982  27.6243801   2.6091232   7.4182973
  26.4862423   1.7306030   7.8914037  19.7081051  53.0911865  41.9860573
  20.6357117  52.8569298  41.9560356  19.5954571  53.7156410  41.2694016
  52.4673500  25.8376160  88.6938248  51.7779808  25.1812954  88.7950287
  53.2225800  25.3442993  88.3736725  76.8979416  65.3981705  22.1677971
  76.3512573  65.3264542  21.3853474  77.1119843  66.3293152  22.2259083
  24.8687115  60.2512779  19.4205494  24.5910645  59.3391876  19.3354740
  24.2786541  60.7360802  18.8434639  65.9184341  33.7620354  85.8645401
  65.5544281  33.0406723  86.3777313  66.5305405  33.3413963  85.2606964
  29.6620045  49.9567337  62.8138580  30.1380749  50.6655388  62.3812141
  28.8447227  49.8815536  62.3212814  65.2962799  58.7240639  59.4281044
  65.5270920  59.2998962  58.6991463  64.3497391  58.6054840  59.3492317
  76.3941956  29.0413952  36.6038628  75.6891327  29.4035606  36.0672455
  76.4152222  29.6002922  37.3806686  44.3244019  67.6327515  13.2099686
  45.2129707  67.5286179  13.5503101  44.1993370  68.5800171  13.1526890
  81.9025803  45.3152199  30.5298576  81.8472366  44.4356842  30.1562500
  81.3006287  45.8385391  30.0006866  41.2182732  34.6130447  17.3008900
  41.6851807  35.3582878  16.9229450  41.3527489  33.9028969  16.6733246
  29.2988091  38.9942131  30.2058659  30.0207901  38.4813385  29.8426418
  28.7469597  39.1989594  29.4510326  59.3130989  44.9962654  76.3900604
  59.8804665  45.1777153  75.6407928  59.7592812  44.2944145  76.8639374
  78.8818512  58.0885086  48.5422401  79.2385864  58.6675262  49.2158165
  79.1793900  58.4700394  47.7163239   0.6970499  63.6844711  58.5101624
   1.0053262  63.3230858  57.6791382   0.7675120  64.6326752  58.3998375
  20.1458454   8.4317141  16.7832603  20.0889912   8.6151886  17.7209892
  19.9959145   9.2790012  16.3639069  79.2112427  54.1222343  88.3877411
  79.6051407  54.7065010  87.7398834  79.7803497  53.3526192  88.3935547
   3.4385936  57.8655319  55.7538300   4.0801625  57.2045708  55.4935341
   3.9567540  58.6562309  55.9039574  57.5444641  51.5924835  49.7267113
  57.6832199  50.8504906  50.3152924  56.6016121  51.7536430  49.7626419
  39.2736053  56.1249428  29.9427547  40.2056198  56.0419388  30.1444721
  38.8904228  55.2984619  30.2365875  40.1699524  60.8012924  59.3784866
  40.0836220  61.3166466  60.1804771  40.9688225  61.1308365  58.9668579
  84.4403763  67.1784058  66.6534576  84.2389145  67.8975906  66.0547867
  83.9376221  66.4373474  66.3153687  26.8797626  45.5897522  60.8162117
  26.8157139  46.0620842  59.9861298  27.0637150  44.6850510  60.5634117
  70.4114456   3.0437777  69.0488739  71.2630463   3.2506196  68.6638565
  70.1700974   3.8326554  69.5343170  46.9605827   6.7515330  53.9913712
  46.0797005   6.5214090  53.6958733  47.5349617   6.1387839  53.5321770
  77.8413620  13.3296633   2.3879952  77.9648132  12.3805313   2.3998761
  77.8559952  13.5614910   1.4594084  11.8054914  64.2816544  52.9235916
  12.4347401  63.6832466  52.5208626  12.1184959  65.1542740  52.6852989
  19.6306915  25.7053375  77.3338699  20.5000668  26.0704136  77.4986115
  19.6008472  24.9090843  77.8642654  24.2486534  50.7778206  40.1357803
  24.6735744  50.6119080  39.2942657  24.6028137  51.6201172  40.4209862
  58.9596214  10.2550240   0.9165852  59.1559753  11.0407600   0.4063928
  58.8950920  10.5657454   1.8196464  68.6007309  62.0547905   0.6927741
  68.1031723  62.7121315   1.1791606  68.7246323  62.4412575  -0.1741315
  69.2377319  27.2314110  40.6843491  69.2921295  28.1216545  41.0318222
  68.2989197  27.0613155  40.6073227  52.3870087  20.0709476   1.0257008
  52.5798340  19.3076935   1.5702122  53.2419243  20.3590908   0.7058136
  63.2050972  25.8106537  56.2798729  62.9369469  26.4163857  55.5889168
  62.5157013  25.1468277  56.2972679  79.2019348  10.3025169  17.0996895
  79.3802032  10.5337076  16.1880970  79.8243790  10.8250322  17.6054268
   9.2934332  29.3897648  75.9216919   8.8655281  30.1681671  76.2783661
   9.2366419  29.4989796  74.9724426  58.5439720  51.6658325   2.9361005
  59.1085014  52.3253899   3.3392386  58.8956223  51.5573463   2.0524695
  48.5206566   9.3226452  57.4377785  49.1289291   8.9305487  58.0642738
  47.9464226   8.6020823  57.1783981  59.8880463  15.5875177  66.0785751
  59.8556938  14.6512613  66.2750702  60.8129272  15.7643423  65.9066315
  75.9471512   4.7195497  64.7778473  76.6248245   4.8699560  65.4369202
  75.2289505   5.2969680  65.0366974  33.3434334   6.5466413  39.7589912
  34.2234688   6.7090182  39.4192772  33.4358253   5.7607393  40.2975578
  86.5923004   8.9523468  49.0573959  86.3128281   9.7162552  49.5619469
  85.7877426   8.4550953  48.9102173   9.3043795  60.9840965   9.4781513
   9.1862383  61.0079651  10.4277325   9.7525320  61.8043594   9.2718544
   2.8552885  23.8920689  41.3602562   3.6351812  24.3546810  41.0536804
   3.1970685  23.1277008  41.8241081   6.0205841  42.5113258  67.2155228
   6.9423380  42.6969452  67.0362320   5.8279500  43.0035934  68.0135193
  28.0501461   8.4611702  60.0928116  28.9134502   8.5259695  60.5011520
  27.4779015   8.9790277  60.6590195  14.1355209  59.5142441   3.7434292
  14.8901138  58.9864082   4.0046005  13.5447598  58.8932114   3.3173444
  31.2663536  53.2765465  15.6515493  30.5813274  52.9199791  15.0860128
  31.8100986  52.5210342  15.8746490  47.4769707  58.6670647  41.0196342
  47.8045502  58.7124176  41.9178925  47.1011696  57.7898254  40.9457474
   1.5767866  23.5235920  74.4957123   2.4373994  23.1068916  74.4516830
   1.1468530  23.2721958  73.6782837  25.9786396  47.0836601  49.3012886
  26.6842155  47.6791153  49.5539246  25.8820210  46.4953918  50.0501823
   9.4147663  35.2480240  77.1341324   9.7810450  34.3719864  77.2550812
   9.7220898  35.5187721  76.2689819  58.6277924  48.4846954  44.2188263
  58.3340530  49.0731888  43.5233994  59.2891159  47.9324379  43.8018227
  73.2267456  65.8146591  80.8607712  72.9259415  66.0319595  81.7431107
  73.6298447  66.6212845  80.5396957  31.7184067  44.5862007  10.5504036
  31.0613995  43.9323769  10.7893314  31.7177448  44.5877228   9.5932055
  62.1002579   3.4271376  61.7775269  61.8834343   4.1696992  62.3412857
  61.3736153   2.8156037  61.8968849  39.4642334  68.9124451  75.5288010
  38.6497955  68.4390106  75.6984787  40.0388947  68.2629242  75.1236877
  36.2976646  56.0147896  57.1147614  36.3517609  56.9670219  57.0337563
  35.4007072  55.8497047  57.4053497  81.2000427  61.8257713  20.7143822
  81.3342819  62.7682686  20.6148052  80.2766037  61.6915169  20.5011597
  12.2157288  39.1886406   3.2040114  12.5491762  38.3268471   3.4537225
  11.2825880  39.1546173   3.4145405  60.0282249  30.5986748  59.4633179
  59.6704674  30.8366852  58.6079865  59.9182930  29.6491127  59.5131035
  40.4765282  23.7707176  64.2040558  41.2571144  23.8518848  64.7520828
  40.2939682  22.8312836  64.1848907  20.1128922  54.2028732  24.6748924
  20.5504055  54.5366859  25.4580784  19.2614803  53.8974190  24.9879837
  58.1557503  70.2573929  84.6212997  59.0409775  70.5120850  84.8815536
  58.1846428  69.3016281  84.5774612  16.8102322  21.9604225  28.0354958
  17.1365509  22.7514782  28.4644241  17.4776459  21.7492790  27.3826485
  77.1947937   8.7934093  33.6111641  77.8751831   9.4229918  33.3725624
  76.4197083   9.0849600  33.1310883  59.9411697  65.6259995  63.4795341
  60.6955757  65.9735184  63.9552841  59.2445030  66.2632904  63.6368446
  60.0352325   2.1889689   6.4986329  60.2173691   1.3490179   6.9199877
  60.0252686   2.8205369   7.2178369  44.3811493  63.7721291  75.0295410
  44.6784439  64.0401993  75.8990173  44.3253555  62.8178482  75.0791550
  74.3130188  50.0403175  87.1249466  74.3627090  50.0821037  88.0799408
  73.9687500  50.8949203  86.8653946  84.8984756  70.7941818  69.2609482
  85.4570770  70.1222839  69.6517792  85.3171616  71.6215744  69.4983444
  22.7981453   3.1476982  39.5553055  21.9073029   2.8290086  39.4101524
  22.6850758   3.9536541  40.0591698  30.2947922  52.5861702  39.8703995
  29.3512306  52.5041618  40.0089493  30.3851147  53.3243027  39.2677078
  10.3952198  38.8762703  18.6921883  10.4270744  39.2819061  19.5586033
   9.5420685  38.4433365  18.6616383  56.4170189  19.6141014   3.0612411
  56.3280678  20.4155312   3.5770223  55.9377136  19.7951832   2.2527201
  58.8622360  40.1275063  39.0647774  58.6673584  40.9604645  39.4942360
  58.4953270  39.4647522  39.6498985  14.2759857  50.4285011  82.5654755
  14.7290125  49.9639473  83.2691727  14.7916355  50.2378998  81.7818832
  75.3838196   5.0235944  29.6173363  76.1611176   4.8675146  30.1536999
  74.6972580   5.2406192  30.2480202  30.9911747  60.0887222  84.2034607
  31.7891140  60.4703255  84.5693893  30.4068680  59.9890251  84.9550476
  56.5506210  44.4289207  51.5595932  56.6533852  44.9634438  50.7722168
  55.9947357  43.7002182  51.2835236   8.1209497  55.0710144  21.0361042
   7.5262599  55.2425270  20.3059273   7.6281376  55.3343277  21.8133011
  70.1747894  25.2684708   4.7545390  70.4116440  24.5226574   5.3058090
  69.7947235  25.9037132   5.3613739  72.5612946  11.0905075  19.2120190
  72.9384766  11.1528387  20.0895615  72.0076218  11.8673754  19.1335621
  33.6557465  14.5316744  82.3839722  34.2750740  14.3187399  81.6858902
  32.9003639  14.9036989  81.9287567  85.8041000  56.0005798  82.5500565
  85.1899338  56.5379868  83.0502777  85.8233261  56.4038086  81.6821442
  68.2586823  -0.1110668  77.9784622  67.3338318   0.0862043  78.1266708
  68.6931915   0.1550375  78.7887878  54.8194809  52.0721054  44.3776512
  54.8319359  51.5920105  45.2056503  55.5721130  52.6611176  44.4309654
  67.0591431  63.1107788  28.3899879  67.0066376  62.1741028  28.1999397
  66.5672531  63.2179298  29.2041111   3.7968450  68.4451904   6.7345729
   3.1042178  67.8939133   6.3704414   3.9130628  68.1243362   7.6288762
  73.5066910  22.4398823  43.9164200  73.1832199  23.0920105  44.5379715
  74.4201355  22.6838474  43.7669830  61.9671936   1.0177861  77.2625504
  62.7092285   1.5535883  76.9823151  61.7892838   0.4458022  76.5159454
  79.0006943  12.3850298   8.8059273  78.2743683  11.8278494   9.0856380
  78.9377975  12.3990526   7.8508987  15.7875071   8.8547230   2.6540732
  16.1288548   9.5817680   3.1747651  15.2996140   9.2754612   1.9461390
   0.8082465   9.0692368  21.6471634   0.1612854   8.5010462  21.2290344
   0.3677678   9.3973913  22.4310799  79.6192093  57.5368347  10.2544451
  79.8667679  58.4613876  10.2423277  78.7327576  57.5309525  10.6155539
  28.5436707  28.5516510   9.8453197  28.8128719  28.4634762  10.7596436
  28.3134651  27.6622581   9.5765848  48.0092888  53.0479584  52.8591995
  47.2206116  52.6978683  53.2735138  48.1240921  53.9120979  53.2545700
  81.8124619  32.5671387  45.4173164  82.1683197  32.3598976  46.2814064
  80.9522552  32.9464798  45.5972328  45.8302689  20.0140972   3.3098221
  45.8914261  20.1915550   2.3712060  45.9175072  19.0634708   3.3800311
  13.4028473  37.4411621  11.3418503  14.1952076  37.9612236  11.2079496
  13.6301241  36.5702171  11.0162230  52.2981148  58.0245132   9.8113232
  52.4297295  57.1588364   9.4246559  52.0547676  58.5823479   9.0725164
  50.3578377  25.6014786  86.6626740  49.6082802  25.7631340  87.2356110
  50.0916824  24.8558292  86.1247101  70.9226913   2.8192110  37.7652168
  71.3128891   3.6884518  37.6735954  71.0155945   2.6117651  38.6950378
  18.7903576  42.2220001  41.0037460  19.0101757  41.4097137  41.4599304
  19.5516949  42.4001961  40.4516220  74.5074158  10.5155516  13.5687132
  74.2964783   9.8934078  14.2648983  74.7174301   9.9670610  12.8128777
  29.7846184  14.9840384  54.9161530  29.2832680  14.3101454  55.3752251
  29.3106995  15.7968140  55.0923004  35.5900230  37.4644356  65.0648117
  35.6136627  38.0973587  64.3471222  35.3937492  36.6289330  64.6409683
  68.9708786  32.5476494  48.7144127  68.5617752  32.4083252  47.8603325
  69.5757828  33.2761230  48.5742607  81.3337936   1.6536659  80.5099182
  80.9752426   2.5391107  80.5704041  80.7546616   1.2021713  79.8959274
  54.9853477  49.6167297  38.4145164  55.0310669  49.6263008  39.3705750
  55.6845665  50.2078285  38.1353645  17.7613583  37.2011070  87.4000092
  17.2710762  37.8400383  87.9173279  17.4771233  36.3514252  87.7368851
  60.0222244   2.1844556  86.7788544  60.8306007   2.5800695  87.1048126
  59.9072380   1.3991003  87.3138580  46.9707031  45.0590782   6.8711224
  46.2810898  44.6980400   6.3140621  46.6407471  45.9181900   7.1343493
  54.4038696  10.6748371   6.5623598  54.8472672  11.5155230   6.6758347
  54.4522667  10.2603292   7.4237962  69.3000183  66.7982330  61.8468399
  68.9416122  66.9884872  60.9799080  68.6790085  67.1979675  62.4557610
  35.2669411  58.3053131  40.7050819  35.5048790  59.1597137  41.0651054
  35.8042450  57.6815758  41.1934319  82.9669647  61.5152664   9.6713276
  83.3112488  61.2645111   8.8141088  82.0294037  61.3303757   9.6163111
  56.5392227  71.7797089  25.2024517  56.9915085  70.9383698  25.2641869
  56.9904938  72.2430191  24.4968090  37.3485794  21.8224716   6.2426476
  37.2614708  22.7117367   6.5859394  37.7792397  21.3355980   6.9452977
  85.7664871   4.0238719   6.0965619  85.3498917   3.4322224   6.7231688
  86.6674194   4.1077294   6.4088359   2.9884191  10.6324921  21.6865940
   3.3369687  10.5316782  22.5723610   2.1694517  10.1370382  21.6936398
   2.3846819   6.2852368  26.9219017   2.3344934   6.6992044  27.7834949
   3.2643776   5.9094830  26.8875923  75.5227585  61.9438553  51.7794266
  76.0864182  61.4894562  52.4055595  75.6150742  61.4446907  50.9679184
   5.0922098  38.7129631  46.4529839   4.5119514  39.3230705  45.9976807
   4.8271346  37.8492088  46.1369095  73.3918610  20.1012878  21.6361408
  74.0468903  19.4654655  21.3482208  72.7017593  20.0503922  20.9747829
   4.8394876  30.0198669  84.0810165   5.1515098  30.7610149  84.6002197
   4.3974061  30.4208794  83.3326950  61.9827995  39.9419632  45.7076111
  62.4931488  39.4557152  46.3551750  62.5922508  40.5950165  45.3636360
  63.1109428  20.4836807  81.4500351  62.3169289  20.5352974  80.9179535
  63.3585129  19.5594826  81.4217987  83.5261993  16.8751431   8.4109755
  83.7227783  15.9827785   8.6960554  82.8952637  16.7657738   7.6995020
  16.0296440  32.1563644  55.2275543  16.4173737  31.3035812  55.4241791
  15.5602779  32.3960304  56.0266075  22.2110386  54.7745514  34.3207092
  21.9269886  54.1973686  33.6119003  21.7496681  54.4494247  35.0937958
  53.0153046  37.9687729  64.4348755  52.9352112  37.3032837  63.7515488
  52.1629105  37.9686852  64.8703766  74.5278778  18.0207043  56.6626434
  74.0719986  18.8372726  56.8666573  74.8571014  17.7127762  57.5070534
   3.7405791  49.0169983  60.0520897   3.5751526  49.9108276  59.7521935
   3.8526404  49.0990067  60.9991646   0.7877781  26.8085003  80.0340500
   1.4513264  26.1466980  80.2288742   1.2276982  27.6432972  80.1947250
  62.5910988  23.0414085  25.9096928  63.0244293  22.5216141  25.2327347
  62.5934067  23.9341412  25.5643616  57.9553642  15.7280636  21.9523735
  58.7755432  16.2115955  22.0510197  57.9287415  15.1444044  22.7105713
  80.2568283  61.2549019   8.9233322  79.3359451  61.4988823   9.0164900
  80.3002243  60.8002052   8.0821438  58.5604553  19.9403610  82.7685318
  59.2094345  20.4859066  82.3241882  57.7633743  20.0451813  82.2490082
   7.2071862  44.7026863  16.2771168   7.6873260  44.7712784  15.4518948
   7.6366277  43.9867058  16.7452850  60.6387634  30.9407387  21.4270325
  60.2934151  30.0529385  21.3333588  61.5661926  30.8617725  21.2037048
  18.9198666  11.0972204  76.9269943  18.8818359  10.2256126  76.5331879
  18.2077274  11.5805788  76.5081253  59.1397552  25.6774731  44.9099998
  58.8554344  26.1854687  44.1501732  60.0929756  25.7646027  44.9132919
   3.3681717   4.7783809  55.6495399   3.5706010   3.9610648  56.1047897
   2.4126565   4.7914577  55.5942993  80.7794037  10.3800230  12.1017685
  80.0682755   9.8682604  11.7162447  80.9002914  11.1139145  11.4992561
  37.0579033  64.7764282  17.9067154  37.9460030  65.0024185  18.1831970
  37.0470581  64.9550018  16.9663830  41.5767517  52.1794014   3.4556537
  42.3186607  52.6421394   3.8451054  41.4494362  52.6026573   2.6066096
  50.5565300  49.5204124  75.8945770  51.0285759  49.5451012  76.7269211
  49.6369896  49.6285591  76.1374283  21.1450272  39.0189171  38.3864746
  21.5152645  38.2898293  37.8888931  20.2203331  38.7938347  38.4889908
  39.9872169  12.3611393  84.4963226  39.3518791  11.7284212  84.1612854
  39.8233109  12.3889208  85.4389725  11.4436407  32.5764313  65.9167557
  11.8144493  32.9586334  65.1213608  10.6039124  33.0222702  66.0277405
  46.9002457  19.0681667  59.5554695  47.2061043  18.8171730  58.6838722
  46.5017319  18.2723846  59.9078217  74.1907043  68.3565521   6.6254458
  73.5811462  68.8886414   7.1368737  74.7615891  68.9931641   6.1952677
  63.5533524  64.8878326  44.6581421  63.6394958  64.4164734  43.8295135
  62.9434586  65.6001663  44.4662018  66.8299103  36.8213234  72.3612442
  66.7721405  36.0142059  71.8499146  66.8181305  36.5288582  73.2725906
  79.0866089  71.4576340  46.9078217  78.1467133  71.5687256  47.0509682
  79.4744034  71.5541458  47.7776070  52.0128174  17.9583797  71.4489517
  52.9619255  17.8724003  71.5385971  51.8720169  18.8890209  71.2748337
  70.1898651  48.5412178  35.8607941  69.6035843  49.2820702  35.7070007
  69.6342850  47.7694359  35.7515984  84.7067642  41.3262177  15.3367138
  85.0744019  42.1822624  15.1170282  83.7810059  41.4997482  15.5072622
  15.1510038  67.1632156  69.5997620  15.4344091  67.4451675  68.7300415
  15.3942642  67.8868179  70.1772156  67.8069687  35.3029594   7.2915158
  68.5699615  34.8859329   7.6917191  67.1498871  34.6083145   7.2475514
  36.1058884  64.2752457  55.7428131  37.0246582  64.5231247  55.6396027
  35.9027863  64.4829330  56.6548691  77.9423294  19.2713242  40.5205421
  78.3045654  20.1055660  40.2221146  78.6202927  18.6280899  40.3135567
  83.8666840  69.0337448  30.3299484  83.5456085  68.9676666  31.2292652
  83.1089554  69.3311615  29.8263435   5.4930301  32.3237877   3.8549373
   6.3287439  32.4398041   4.3069921   4.8357234  32.6083832   4.4899054
   4.5907998  10.6954918  19.4188843   4.0581579  10.7931547  20.2081776
   5.2361741  10.0263100  19.6467419  78.7845840  43.3540802   9.4339428
  78.6583176  43.1115761  10.3512650  78.6455154  42.5401917   8.9497156
  83.7695618  35.6750717  25.7939301  83.6695938  36.2623482  26.5431576
  84.7071381  35.6896095  25.6016331  77.8571625  41.6832695  78.8873825
  77.6462631  42.5018463  79.3364716  77.0108490  41.3466721  78.5929565
  50.0185471  60.3259430  82.7097321  50.7590675  60.7178688  83.1726151
  49.3372421  60.9977989  82.7355347  64.8709106  62.9702988  21.0699863
  65.3507690  63.3516464  21.8052044  65.2122879  62.0789719  20.9976692
  72.5827026  38.3205376  23.7459221  72.1467056  37.4940948  23.9536018
  72.0590973  38.6963348  23.0382156  44.9294090  51.5778008  15.5471821
  44.7306633  52.3909569  16.0114098  44.7695045  50.8886681  16.1919765
  20.1346722  33.4835205  67.1883087  19.2166042  33.2132378  67.2064667
  20.5154858  32.9894753  66.4622650  83.8838577  27.6425533   8.8441534
  83.1057205  27.1030140   8.7040091  83.8407059  28.3080597   8.1575174
   4.7211595  35.9027100  89.4742203   4.0351858  36.2169418  88.8852158
   4.9726124  35.0512733  89.1163712  83.3095322  47.5823555  56.0626488
  83.0695343  46.8043213  55.5593605  83.5962067  47.2407227  56.9096031
  21.9857025  48.1909943  48.3127899  21.1147709  47.7949486  48.3420944
  22.0746727  48.5077019  47.4138947  84.9914932  19.8563747  73.5671158
  84.7241287  19.7762280  72.6515121  84.1747284  20.0076790  74.0427628
  74.5789490   0.5437637  37.1873360  74.7791824   1.0190694  37.9936981
  73.9951630  -0.1624493  37.4642639  20.4831238  34.7600403  25.1596146
  21.3405972  34.7634354  25.5850067  20.2041645  35.6755486  25.1756744
  30.3313026  43.6369171  31.4556828  30.2261219  42.8065033  30.9913731
  31.1911697  43.9567604  31.1826267  16.3929214  46.1484566  50.8592110
  16.1194992  45.6694603  50.0768852  15.7874327  46.8880043  50.9110718
  13.6664839  19.4421329   9.2426186  14.2117929  19.9378242   8.6317501
  12.9103680  20.0071869   9.4014692  16.4302521   8.4630308  18.9514484
  17.3489571   8.1996765  19.0049229  16.0548878   8.1943922  19.7899990
  42.6072044  29.8300476  83.4782333  43.3320923  29.6944237  84.0884552
  41.8206215  29.7028847  84.0086594   1.9578919  45.7724037  32.4097786
   2.4269888  45.1001778  31.9155216   1.0347847  45.6152267  32.2112846
  53.6519203  52.1410637  20.6286392  53.0554771  52.8867798  20.5623188
  53.9521446  51.9939880  19.7317200  33.5846062  43.8035622  59.1738052
  33.5811653  44.5593300  59.7611961  32.8404884  43.2740631  59.4604263
   6.2166033   9.0943108  85.5909576   6.0150065   9.0205879  84.6581345
   5.4778152   8.6725225  86.0297241  73.1572571  61.8494186  50.0996170
  73.9221268  61.8081818  50.6736412  73.2917557  62.6405563  49.5778465
  33.6687660  30.8138466   3.1539400  34.2299194  30.1349297   2.7792304
  32.7777634  30.4978313   3.0040035  46.7345238   3.8861620  66.0932846
  47.4588547   3.2938898  66.2952499  46.5614738   4.3424201  66.9167557
  40.5107498   3.4211473  12.3316622  41.1736221   2.8798373  11.9029255
  41.0058708   4.1403694  12.7238417  84.0234985  30.9366932  12.9302759
  83.7767410  30.8510590  12.0094023  83.7440414  31.8196983  13.1720085
  41.3428497  10.9498415  10.7031326  40.9665833  10.5956478  11.5088644
  41.9127502  11.6604843  10.9971247  16.8167877  40.9686928  72.7914047
  16.1231308  41.6066246  72.9590836  17.3677197  41.3829384  72.1272507
  62.4503441  38.7155571  25.4259930  63.3602295  38.5452805  25.1823730
  61.9466553  38.0592308  24.9445763  64.5008774  15.8756437  34.5571480
  63.8096313  15.3487968  34.9582024  64.9116135  15.2886572  33.9223480
  47.5342636  22.6133957  65.4703751  48.3500633  22.7453423  64.9873657
  47.2963524  23.4867020  65.7817688  50.4636688  34.9648361  68.2612534
  50.8012390  35.6495018  68.8387527  49.8128967  34.5041351  68.7908554
   6.3410645  57.5832520  31.0163555   6.6307135  57.1479073  31.8181114
   5.9090247  58.3816109  31.3199883  46.6426773  15.1784725  12.6115742
  45.9982338  15.1095343  11.9071817  46.1681442  14.9080696  13.3976603
   4.6678810  53.5090866  23.9901371   5.3996372  53.5581551  23.3750305
   4.9391098  54.0538597  24.7289772   2.1996806  44.4472771  36.8798943
   2.4321179  44.4718285  37.8081169   2.2152071  45.3639526  36.6047707
  37.8642921   3.8928342  19.4543991  38.4394608   3.1329658  19.5439205
  37.3019257   3.6810923  18.7093220   6.7394929  50.6904449  74.6399307
   6.8519158  51.0612297  73.7646561   5.8642993  50.9704094  74.9080505
  84.5391083  13.9622746  86.3153305  85.3229752  13.4658108  86.0801697
  84.1618805  14.2260027  85.4760590  54.6695633  55.1608505  16.1149616
  54.5268211  55.5776024  16.9647694  55.0230522  55.8581200  15.5626106
  80.3553009  19.9950123  11.8286276  80.0727615  19.2445927  11.3058720
  79.5924301  20.5727654  11.8501387  34.4173851  44.4312553  10.1787863
  33.4791870  44.4230118  10.3684015  34.5747910  43.6100693   9.7128325
  84.9195404  22.1607113  60.0343781  85.2956924  22.8002014  60.6391830
  84.9585495  22.5883389  59.1788979  34.2364273  13.7318077  84.9166031
  34.1754608  13.8929090  83.9750290  33.7054405  14.4227476  85.3126907
  71.8567352  38.7345428  38.4951706  70.9934158  39.0552521  38.2342873
  71.7571869  38.5028419  39.4185524  39.4125824  32.0005684  75.6139908
  39.6537819  32.8959007  75.3764420  40.2317848  31.6016045  75.9071884
  57.5170593  69.1284180  39.4938354  57.7930336  69.4730377  38.6445351
  58.1613121  69.4722748  40.1126480  58.9229012  17.3731956  70.9165344
  58.9336014  17.4233589  69.9607086  59.7076149  17.8481865  71.1901016
  54.2688828  52.9309273  41.4408684  54.3715820  52.9985085  42.3901405
  53.3558197  53.1697464  41.2811356  72.0737686  21.2426205  38.6333160
  72.6071320  21.5188961  37.8880463  72.7097092  21.0109196  39.3101654
  47.4228745  61.4426918  15.1734028  47.0092812  61.1168594  15.9727812
  47.9942169  60.7284775  14.8910933  19.9827061  57.2184486  66.6643295
  20.5159550  56.6165657  67.1835709  19.5537415  56.6599846  66.0159912
  85.1009064  51.2481041  53.7105141  85.9848480  51.1538658  54.0654716
  84.5544205  51.4324341  54.4744568  82.6220703  47.3638649  15.1646700
  83.2538223  46.7324448  14.8205261  82.4378281  47.0584793  16.0529423
  50.8612709  54.1130562  70.8521194  51.4914513  54.6905899  70.4213562
  51.3885956  53.5929413  71.4584503  75.7058716  48.5366821   5.9515562
  75.0877838  48.4087486   6.6711617  76.4813690  48.9146423   6.3662577
  62.8826523  63.9721909  46.9694328  63.3878708  64.5665054  47.5242119
  63.1019249  64.2345963  46.0753975  60.9191742  29.7185326  38.7423363
  61.6864128  29.5300674  38.2019157  60.5582314  28.8577137  38.9543343
  41.9765549  61.8942795  57.1269989  42.1745682  61.3700218  56.3509979
  42.7880936  61.8868790  57.6345215   6.3527532  25.1878910  22.1922760
   5.9352956  25.1649036  21.3312111   6.6263990  24.2842999  22.3499832
  15.3103218  26.5440674  79.8205414  15.8833313  26.0086670  80.3693924
  15.8822021  26.8737068  79.1273422  68.8960724  20.3499432  57.7539177
  69.4853821  20.1297150  57.0325012  68.0674820  20.5693531  57.3278656
  35.9501610   6.4624419  21.1139050  36.7741013   6.8990054  20.8976498
  35.2898178   7.1525569  21.0512791  62.1165085  26.4391880   7.4438024
  62.0525475  25.7469463   8.1017847  63.0287437  26.4117393   7.1551738
  54.8047295  43.9731407  83.2808609  54.9417915  44.6590652  82.6274490
  55.6605186  43.5539894  83.3712387  71.8731232   6.4736567  62.2349968
  72.2166214   6.3355880  61.3522873  70.9233322   6.4089165  62.1352425
  23.3638992  58.6144753  16.4380302  22.7554016  59.3295937  16.2521095
  23.0741711  58.2666206  17.2814083  11.4985209  29.5164318  12.4008255
  12.1086016  29.1891918  11.7398062  12.0535717  29.7469406  13.1458197
  67.9253311  40.6914406  56.3707809  68.5136032  41.0900688  55.7294807
  68.3672104  40.8155594  57.2107620   0.6665249  24.6605778  59.0316353
   1.5643069  24.5437565  58.7208748   0.5823275  24.0431614  59.7582321
  61.4464340  46.8092995  20.8799210  62.0366325  46.0561600  20.8539371
  61.9501686  47.5220222  20.4868450  76.6336594  36.7716827   7.1019201
  75.9692764  36.2635498   7.5673504  76.3656769  37.6827927   7.2215161
  39.0096016  56.0080681  36.4176178  38.4209137  56.0809326  37.1688614
  38.8572044  56.8085480  35.9153786  39.2660065   2.1205766  74.5304871
  38.9274521   1.2534330  74.7533722  38.4927711   2.6847358  74.5222626
   8.4781380   0.9982697  43.2136459   7.6217904   1.4050854  43.3455620
   9.0866213   1.7347940  43.1543846   9.3876219  50.3461189  75.7274475
   8.4622698  50.5753822  75.6414490   9.5132618  50.2052383  76.6658478
  57.9466286  49.9851608  24.5475235  57.0856934  49.9324188  24.1324997
  58.5666275  49.8487320  23.8311291  66.9783249  63.3669167  84.6100388
  66.3234634  63.9849434  84.9347458  66.7029266  62.5199127  84.9607162
  41.4893723  57.1379471  71.6063614  41.1161346  58.0070267  71.7534256
  41.8107147  57.1646652  70.7051086  55.5658646  27.4308643  51.4927292
  55.4588470  27.5476837  50.5487328  54.7470245  27.0256596  51.7782784
  57.7883453  61.9893913  77.9910889  58.5804482  61.8203049  77.4809723
  57.1895447  61.2845612  77.7443390  10.5571728  52.9383545  60.1257553
  10.0448685  53.5384216  59.5838203  11.3132200  52.7124252  59.5839272
  46.4403458  33.4208412  81.7811737  46.9016991  32.6651382  82.1449051
  45.8916168  33.0552406  81.0872955  57.0993462  38.9620972  44.1693687
  57.8161430  39.5216141  43.8704071  57.3191414  38.7562523  45.0779648
  61.7471542  17.8990383  43.4965210  61.3393288  18.4641037  44.1527290
  62.2298164  17.2488766  44.0069733   4.3366489  39.7200012   0.7268484
   4.5836306  39.7542114  -0.1973060   4.3959541  38.7926369   0.9564421
  30.5215092  57.0685234  52.8148155  30.3552303  56.4555206  52.0987091
  30.2552052  57.9199829  52.4679298  26.0639267  26.8587284  66.7459946
  25.7999268  27.6385288  67.2342987  26.9310188  26.6432285  67.0894165
  33.5339584  35.6333618  61.0163612  34.1758614  35.9418144  60.3767929
  32.6991158  35.9840660  60.7060776  69.4933624   2.9251173  52.6774139
  70.0023956   2.1163573  52.7323952  70.1475906   3.6228690  52.7143173
  73.6497803  35.6083984  15.0215664  73.8611450  36.3563957  14.4629421
  72.6932373  35.5729408  15.0225773  65.5113754  48.8851357  39.6301689
  64.8873749  48.3280067  40.0954285  64.9668045  49.5322571  39.1819420
  48.3566017   6.6192107  45.0669518  48.3776779   5.7004700  44.7991753
  49.2573128   6.8139606  45.3258286  77.8916626   5.1341166  78.1871338
  77.9627533   4.5951085  77.3993149  78.7266235   5.5997214  78.2349243
   8.7967081  55.0088234  69.5149307   8.5474672  55.4212685  68.6878815
   8.1464014  54.3183670  69.6437836  23.2220707  44.9651794  73.3079453
  22.7772827  45.2005043  74.1222000  24.1083851  45.3118706  73.4103394
  42.5000114  63.5729561   1.9569328  43.4559326  63.5834885   2.0052249
  42.2775803  62.6531448   1.8130471  85.0717468  59.6616020  33.3835144
  84.9270325  59.9513054  32.4827576  84.2036362  59.6877518  33.7859154
   3.7487175   2.3025784   7.7462583   2.8918667   2.2129796   8.1634035
   4.0604882   1.4033792   7.6439276   3.4343157  25.9167061  50.0959740
   2.7462251  25.8975029  50.7611046   4.1158724  25.3391552  50.4397011
  63.0435066  47.8173485  27.1834030  63.0593872  47.1531715  26.4943123
  62.8636818  47.3263817  27.9851780  81.2630386  59.4995155  68.3501587
  81.8701096  59.0384750  67.7712402  80.8494263  60.1559944  67.7896347
  55.9910355  59.7574577  47.9127846  55.9499931  60.5709801  47.4100609
  56.9207802  59.5301857  47.9251289  65.0948486  35.3887863   9.2806158
  65.9448853  35.4173050   9.7197685  64.4974213  35.0323753   9.9381008
  35.3543434  12.6765251   6.1016459  36.2230415  13.0524769   6.2439671
  35.2726593  12.6157551   5.1498756  36.6237068  70.3571320  24.4707260
  36.4158325  70.8374786  25.2721519  36.8810692  71.0345764  23.8453732
  64.8562317  17.9134159  89.0947037  65.7309570  18.1336346  89.4150085
  64.5266190  18.7293568  88.7181015  60.8954163  13.0633717   5.8563838
  61.1647377  12.2133093   5.5083995  61.5467262  13.2643051   6.5284371
  55.3703041  34.8912125  20.7053833  54.6016731  34.5596886  20.2411327
  55.6640739  35.6361008  20.1809063  67.5284119  17.6661282  19.3187389
  66.7251129  18.1640072  19.4706078  68.2191544  18.3282471  19.2920933
  53.1811256  25.2189541   3.5372806  53.4540176  25.8483028   2.8696876
  53.0954628  24.3908119   3.0649753  78.2185822  53.7285271  62.4363670
  77.7546921  53.0262108  62.8922043  78.2050400  53.4664421  61.5158463
  51.1564140  70.7767715  67.4213562  51.4313622  71.2319031  66.6254349
  51.2877922  71.4168777  68.1208191  40.1929893  20.8292141  88.5894928
  40.8712120  20.5292969  89.1947098  40.4912720  21.6929283  88.3044357
  14.9004240  64.3180161  71.0000458  14.7607307  63.3743210  71.0784760
  14.0418434  64.7027054  71.1763687  62.1713371  40.1765099  63.5324364
  63.0737419  39.8580475  63.5106087  62.1394196  40.7536774  64.2953873
   9.0949354  71.6063843  66.1940765   8.5629568  70.9395218  66.6282730
   8.5088091  71.9949188  65.5446701  85.8082809  39.9253349  41.9841843
  86.4784851  40.0091133  41.3059196  85.3387451  39.1221733  41.7590332
  45.6617165  50.1718636  22.4792786  46.0617790  49.3906593  22.8612556
  45.4334755  49.9120331  21.5867386  80.7557144  71.1342010  66.0187607
  80.1395493  70.8589783  66.6976013  80.5928650  70.5350037  65.2902908
  55.8394394   4.2627878  39.9809685  55.3439674   4.8259645  40.5755844
  55.9998283   4.8091650  39.2115631  53.8306923   6.8217001  24.2249565
  54.1829605   7.6862850  24.4362221  54.0684013   6.6837258  23.3080654
  77.1561203  24.5973969  47.3406029  76.5507431  23.8571854  47.2977905
  77.2346344  24.8953266  46.4343452  49.5988274  67.5712738   4.9438663
  50.3189659  67.3183517   4.3662324  49.4477615  68.4958725   4.7475863
   3.2556894  29.0097904  29.4175663   3.6524479  29.8387280  29.1498394
   2.3741343  29.2478790  29.7046318  40.6210022  10.2868605  64.6574020
  41.3920822  10.6830816  65.0632095  40.1367874  11.0264864  64.2903595
  62.2334137  23.8813705  16.9086361  62.6171455  24.7321815  16.6962624
  61.5144844  23.7804375  16.2847881   2.7378051  37.8048630   5.9275541
   2.9617486  38.3606339   5.1810951   2.5689843  36.9445114   5.5434685
  54.2514954  15.1269732  20.3957043  53.5717506  15.7844648  20.2477798
  55.0644493  15.5602579  20.1357021  24.7240124  13.5346537  14.7660694
  24.1849766  12.9759808  15.3260288  25.1491108  14.1418896  15.3717003
  72.3251724  27.3954010  60.2222252  71.7736740  26.7397346  60.6490555
  73.1849289  27.2864666  60.6286430   0.0306378  42.8223724  23.2941818
  -0.0072139  41.8707466  23.3901253   0.7394528  43.0938873  23.8773556
  71.4897232   3.7323382  49.0361900  71.7639313   4.1252570  49.8648376
  72.3011017   3.4097326  48.6439934   0.2964153  47.4331551  86.4344559
  -0.5922311  47.3028450  86.1034622   0.7155986  46.5780029  86.3383560
  54.6645775   9.9381294  56.4490738  54.6663475   9.9639225  55.4922218
  55.4304619   9.4106703  56.6758728  29.7183475  55.8285789  18.8246136
  30.5141830  55.5293236  18.3849297  29.0212231  55.2892227  18.4513245
  74.4021225  29.5927048  86.1627960  73.4703827  29.6313801  86.3786621
  74.7770157  30.3684063  86.5799026  75.6745987  59.9355011  80.1452789
  75.7322540  59.0913506  79.6977081  74.9667053  60.3970795  79.6957703
  27.0407085  69.0916519  50.8271141  27.4597225  68.3026581  50.4833984
  26.4821396  68.7761078  51.5375099  11.1465368  54.9040833  57.3951454
  10.3448868  55.0120926  57.9069328  11.5708666  54.1343880  57.7742844
  34.7001534  37.2334175   0.5091646  34.7652702  36.2982635   0.7027622
  35.5930824  37.4939919   0.2832986  43.1702118  55.5302162  61.6811829
  44.0629654  55.5419846  61.3360863  42.6162529  55.6944733  60.9180450
  81.7736130   1.1977061  88.6012955  82.6733475   1.4142517  88.3567200
  81.8193588   0.2907760  88.9039764  77.7920074   6.7526670  21.0821819
  78.6116180   6.7555056  20.5877609  77.7079926   5.8542013  21.4014530
  51.2968102  25.7882404  22.8859444  50.9097328  25.3297195  22.1401825
  50.6049538  25.7965031  23.5473804  12.7982569  60.4303207  38.8892555
  13.5460463  60.7354813  39.4029846  12.8121185  59.4783554  38.9882889
  81.6026001  22.6805172   1.2577440  81.1879501  22.9590683   0.4412245
  82.1441193  23.4257565   1.5177580  18.2714443  62.0497246   3.1057324
  18.3450279  61.2981224   2.5175915  17.3317909  62.2260170   3.1526887
  30.8710575  60.9419861  75.8651581  30.4080620  60.1792793  75.5185318
  30.4152012  61.6924744  75.4841080  17.0931473  29.9904079  82.3466949
  16.2002754  30.2071037  82.6151276  17.6198616  30.1272411  83.1341476
  80.8100510  46.3751106  26.9682121  79.9189301  46.0317383  26.9030857
  80.8327103  46.8236427  27.8135166  75.3759384   4.5478210  81.9138184
  74.7155380   4.6337957  81.2262802  74.9273148   4.0828094  82.6200333
  68.2043915  66.7793579  21.9906940  68.4366226  67.5760040  22.4678288
  67.2567291  66.7017899  22.1009502  38.4302788  16.8464394  86.1254501
  38.8765144  17.6304893  86.4454041  37.5528717  16.8987312  86.5044708
  67.2415924  65.3420105  15.1275549  67.7625580  66.1390457  15.2253294
  67.8878784  64.6372681  15.0841074  24.0893974  33.4199409  20.7880630
  23.5736408  32.6513596  21.0320225  23.4889412  34.1568527  20.9004898
   9.4423819  13.5345535  22.2496605   9.0500021  14.3732252  22.0069675
   9.3677607  13.5022697  23.2033997  65.9091187  53.8586540  51.0545692
  64.9879074  54.1093864  50.9857826  66.0853424  53.3709908  50.2499809
  58.6799088  12.6273966  11.0028400  59.1548233  13.2089491  10.4091349
  57.9108849  13.1318970  11.2680130  21.8399277  34.7431145  21.1816502
  22.2637367  35.4881134  20.7555122  21.0013638  34.6534348  20.7288818
  20.1376553  56.1607094  21.9124699  20.0525970  55.3749695  22.4524765
  19.4598465  56.0659523  21.2432709   2.1891279  41.8620682  87.7645187
   1.6747437  41.0612106  87.6631699   2.7163966  41.9105873  86.9671097
  -0.1571892  32.0668755  11.1876764   0.2296457  32.9245834  11.3635359
   0.5934016  31.4905643  11.0437670   4.4239464  58.8223457   7.3119478
   4.8880477  59.5468254   7.7314358   5.1183453  58.2537727   6.9791293
  12.1561956  62.4240150  36.9547157  12.1311226  61.8065529  37.6857033
  13.0215082  62.8290825  37.0129242   8.0275640   8.0505104   8.0424528
   8.4160233   8.6857843   7.4409890   8.4455557   8.2311697   8.8844013
  34.4986496  39.2202301  83.0300446  35.4247246  39.3521118  83.2330856
  34.0664062  39.2024918  83.8839111  18.9579010  64.9571609  37.6122246
  19.0086174  64.3954849  36.8387985  19.2939701  65.8031616  37.3163071
  47.9753952  22.3121090   0.8643861  48.1872597  22.9198570   1.5728983
  48.4625473  21.5162640   1.0777928  35.8404694  37.0087662  86.0244675
  35.3163719  37.2483253  85.2601624  35.7538757  36.0574570  86.0856323
  84.1493149  57.1529732  41.6247063  84.1816711  56.7204781  40.7714005
  84.9784164  57.6276054  41.6842537  22.9796505  12.0958385  16.3938732
  22.1297379  12.4332600  16.6767616  22.8802433  11.1441708  16.4199066
   2.7079432  61.0985832  51.2652626   2.3184543  61.9258728  51.5483170
   3.5627356  61.0767021  51.6954765  14.6089621   5.0406981  45.1162415
  13.9699736   5.3364544  44.4678154  15.4523859   5.3363194  44.7734947
  69.9799957  31.7826405  33.4188156  70.0607834  31.5138969  34.3339577
  70.8632965  31.6877403  33.0624466   2.3246768  45.4982719   7.6428838
   1.5808642  45.6863327   7.0705137   2.9594512  46.1867714   7.4447379
  50.9612007  54.6727486  15.1123466  50.8587074  55.6243935  15.1023846
  50.0828209  54.3353996  14.9366302  52.7634697  29.3703423  29.5040264
  53.1769638  30.2021637  29.2730980  51.8531494  29.4698887  29.2253895
  43.4347878  33.0605736   0.1288705  42.6336098  33.2669487   0.6102799
  43.9441872  33.8706093   0.1531525  35.3628082  66.4286804  50.5828094
  34.4621086  66.6492462  50.8201332  35.3434181  66.3348312  49.6304169
  63.9005814  30.6982498  55.4339752  63.2696228  30.0249462  55.1794472
  64.7542801  30.2778664  55.3304825  52.5536690  37.3017311  22.5147152
  53.0744934  36.5390511  22.7663002  53.1185417  37.7906761  21.9163170
   6.0470896  30.4976997  67.2991257   6.6925774  30.7626457  67.9543991
   5.6044350  29.7443237  67.6899109  83.6447906  52.0580826  68.5689240
  82.7510834  51.8680611  68.2836075  83.6236877  51.9383011  69.5183640
  26.6922417   1.5286413  16.3478317  26.1164951   2.2737038  16.1756992
  26.1479416   0.7604305  16.1751442  31.4705486  39.2376938  71.6210098
  31.5132332  38.3569031  71.9933243  31.8179798  39.1400642  70.7344437
  53.6908340  37.6232262  50.9036636  52.8255844  37.6003876  50.4949455
  53.5145416  37.7985725  51.8280067   7.5762601  28.8673306  65.7331314
   7.0995555  29.5164261  66.2504959   7.3938775  29.1048260  64.8239822
   3.9385338  51.8292961  75.9924316   3.9570236  52.7601700  75.7702484
   3.4177947  51.4273834  75.2970657  58.2513008   6.1651607  19.7599888
  57.4932251   5.5841346  19.6970577  58.3364220   6.3473167  20.6958332
  16.1346760  61.7151642  24.9024353  15.7978525  61.3358688  24.0906982
  16.0796833  61.0035172  25.5402126  57.6123543  48.8237267  50.2902489
  58.4879761  48.8369408  50.6766968  57.0657234  48.3971672  50.9501534
  57.2882919  55.1727257   1.7861407  57.6322899  55.1060982   2.6769040
  58.0173912  54.9041481   1.2271117  79.1311646  42.0378456  88.1638947
  79.5641251  41.5122528  88.8365936  79.2504654  41.5384026  87.3560791
  27.7188683  54.8382835  70.9118729  27.2021980  54.8869972  70.1075668
  27.5160599  55.6502838  71.3763657   9.1138124  56.5018387   2.2919538
   9.6541843  56.0025444   1.6796323   9.0941668  57.3867188   1.9274905
  63.2423592  68.5315399  13.8084860  63.6787109  67.8784866  13.2613573
  63.9219856  68.8306351  14.4125414  28.5519199   5.2587814  63.6655426
  29.4586353   4.9540644  63.6302414  28.2407932   4.9853950  64.5284958
  82.5581360  23.3608532  33.9968796  82.4788437  24.0384197  34.6683311
  82.9973373  22.6348629  34.4399109   3.7976925  64.3631210  60.5714188
   3.4905837  65.2472610  60.3708878   4.6520181  64.3035889  60.1438484
  67.4227295  14.2747593  87.2794418  68.0933838  14.2942171  86.5967484
  66.9991379  15.1313124  87.2235565  64.5415726  52.5480919  68.8947678
  64.8112106  53.2838669  69.4444656  64.4566345  52.9226608  68.0180054
  84.9685898  43.4835815  46.3996391  84.7835159  44.1807899  47.0288315
  84.2086487  42.9041100  46.4538498  44.7059174  47.7516289  49.5962753
  45.4856148  47.7699623  50.1512260  44.4312019  48.6667633  49.5389023
  85.6130981  20.0982475  14.6964083  85.2638779  20.9894638  14.6933804
  85.9904556  19.9859047  13.8239326  63.0553856  42.0810928  13.0526505
  63.0077591  42.1058426  12.0969563  62.2690048  42.5427589  13.3436852
  58.0712738  46.7560272  28.9705620  58.4550209  46.5408630  29.8206654
  57.7231331  45.9249039  28.6476688   5.7129278  22.8594131  16.2959652
   6.2350249  23.4904613  15.8005619   6.3571463  22.2649212  16.6804047
  75.7821045  20.9607410   3.0155952  75.7902985  20.7171001   3.9412320
  75.6753769  21.9119663   3.0192373  14.2632198  24.5086288   3.2171426
  14.6298733  23.8785915   2.5967791  14.1851463  24.0201778   4.0366254
  13.2245235  46.1847916  79.4653244  13.7770023  45.6839790  80.0654831
  12.3323612  46.0306931  79.7760239  14.6366577  45.3980827   8.7854948
  14.1291456  45.1714516   9.5647917  15.3074551  44.7174873   8.7302332
  49.7282295  12.0474310  17.0981903  50.6094093  12.4057007  16.9914093
  49.4172020  12.4185972  17.9238586  64.4455414  23.9638786   4.6458144
  64.9604263  24.1807823   3.8685901  63.5746880  23.7575550   4.3062949
  66.2096329  60.7688293  85.7938232  66.0882492  59.8261490  85.6804428
  66.2184219  60.8968124  86.7423859  76.4274063  47.9121017  70.7305603
  77.0022964  48.6761589  70.7747345  75.5570755  48.2551765  70.9331894
  56.5443878  16.5954151  19.7018089  57.2143402  16.7024517  19.0265789
  56.9838638  16.1108227  20.4005661  84.4203644  13.7565603  17.5160389
  84.5178528  14.3455582  16.7678337  85.3156281  13.6020069  17.8174362
  42.9389763  57.3891144   6.9812217  43.1784058  58.3006516   6.8138914
  43.7333603  56.8927727   6.7841682  71.7878265  62.5687714  52.6810532
  71.1215057  62.0988274  52.1796494  72.2109756  63.1402817  52.0403137
  63.1028290  56.4439697  36.1055374  63.4739761  57.3035698  35.9066200
  63.5540848  55.8448219  35.5108757  42.4715347   1.7227817  11.1588230
  42.4479790   1.7635875  10.2027836  41.9204063   0.9721184  11.3801661
   7.8545322  55.1709213  42.7976151   8.5201569  54.9316254  42.1527061
   8.3104448  55.1313705  43.6383362  16.6309452  13.2712908  87.5771332
  15.9549866  13.3724003  88.2472763  16.7886181  14.1605244  87.2599030
   2.2108889  42.0548630  83.1618118   2.8622513  42.1944466  82.4744415
   1.6000576  41.4199829  82.7875824  79.4587784  61.5241127  45.1386147
  80.0943909  62.1895676  44.8751831  78.6888428  62.0230446  45.4115562
  28.8965187   8.2561131  17.3493099  28.6020145   8.5934076  18.1953201
  29.1643162   7.3552203  17.5307178  42.4236603  38.0194130  23.4933662
  42.3676071  37.1125450  23.7944965  43.0274696  38.4385109  24.1065598
  62.3553772  16.5332890  61.2176323  61.8960724  15.6958218  61.1549988
  62.8153343  16.4920788  62.0560684  84.1486053   6.7148108  25.8250885
  84.3693314   6.6140208  24.8991528  84.1212540   5.8198776  26.1635818
  13.8223286  62.2681618  77.0331421  13.8270016  62.8467865  76.2706451
  14.4487915  61.5783539  76.8141861  59.8380814  58.8798027  14.1687508
  60.5567398  59.0201111  13.5522470  60.1023903  59.3545570  14.9567738
  63.1152382   0.3528300  65.3994446  63.8028183  -0.0089870  65.9585114
  62.3490677  -0.1921312  65.5789719  63.3469696  61.9186974  10.3567810
  63.3016129  62.7830925  10.7654333  63.9093475  61.4077568  10.9389343
  68.2459030   3.7542293  59.8878250  67.4748993   3.3146234  59.5293121
  67.9061432   4.5679555  60.2601814  11.1542740  70.5163422  23.1557598
  10.3258047  70.2227020  23.5347691  11.4505873  71.2146225  23.7395668
  29.1019115  48.5167809  37.4059525  28.2445641  48.6065826  37.8220291
  28.9975395  47.7849808  36.7978325  10.2446241   7.6706057  43.5465736
  10.4145613   6.7289371  43.5217934   9.3304358   7.7418623  43.8211937
  54.7960167  46.5428009  11.6875029  54.2363358  45.8035049  11.4499435
  54.9969559  46.9685860  10.8541002   0.6458576  42.9152794  33.1994667
   1.5293555  43.1603737  33.4744072   0.7786193  42.2030258  32.5739288
  28.9671879  14.7578316  52.2193604  29.1314392  14.5905628  53.1474113
  29.8390484  14.8187160  51.8289948  66.0208511  21.4944611   5.2561188
  66.6115112  21.9388866   5.8642640  65.4886169  22.1969624   4.8826847
  23.2072926  36.7948418  68.5560837  22.3684254  36.7874184  69.0170441
  22.9827785  36.5965881  67.6469574  13.4139690  56.2899590   3.9100723
  12.4929905  56.4300041   4.1301126  13.4398451  56.3254585   2.9538808
  29.1423492  68.8187485  63.2239647  30.0490761  68.5196152  63.2917290
  28.7098255  68.4484177  63.9933853  23.5672951  63.5548172  53.1257706
  23.5862408  64.0101700  52.2840309  22.9751034  62.8160553  52.9851608
  69.8632278   0.4006389  36.4627838  70.2116623   1.2486057  36.7380676
  68.9348602   0.5653256  36.2977257  14.7672939  65.4247360  44.5856133
  14.2310266  64.7903976  44.1099434  14.1887760  66.1756897  44.7183609
   8.0523520  65.4851303  70.1697311   7.8386745  65.5001526  69.2368088
   7.7449298  64.6305695  70.4721298  60.5061531   9.6876097  36.4708710
  60.0942650  10.4354353  36.9036942  59.9608917   9.5263872  35.7008514
  83.4391174   9.6781797  87.6385117  82.6142502  10.0352783  87.9676132
  83.4717102   9.9552984  86.7228851  14.8252926   6.7161736  74.4167099
  15.6046820   6.5650306  74.9514465  14.0925570   6.5195155  75.0003662
  44.0080261  64.7898712  55.3344269  44.2670288  64.0265350  55.8506355
  44.6326637  65.4708939  55.5839539  16.7366581  30.0869274   3.5296936
  16.4406853  30.2073402   2.6274006  17.6113739  29.7072811   3.4461887
  59.5443497  52.6797752  75.6210327  59.7061043  52.1345062  74.8511276
  58.6322670  52.5036316  75.8519363  69.0353317  45.8656464  35.2457466
  68.5851059  45.1339722  34.8236313  68.3854599  46.5681801  35.2642860
  83.8387146  15.9867239   3.4758170  83.1748352  16.0430431   4.1630783
  84.3789902  15.2370796   3.7255538  50.6619072  64.1080704  80.3683624
  51.0071487  64.2328033  81.2523804  50.9701157  63.2390785  80.1112671
  21.6022320  50.7918510  75.7703705  21.8091049  49.9908257  75.2889175
  21.7513542  51.4958992  75.1392517  65.1034317  54.6816864  26.6463261
  64.5974655  54.3214226  25.9180145  65.4061737  55.5327911  26.3297844
  79.2048416  66.9172440  49.7156868  79.4359589  65.9884338  49.7040520
  80.0445938  67.3722305  49.7791862  12.4694691  40.9891930  48.3621788
  12.4949274  40.5550156  47.5094948  11.6203623  41.4306641  48.3809052
  38.4295273  56.3424988  41.0826721  37.7496033  56.2335663  40.4177895
  38.8282471  57.1890259  40.8810501  85.9674454  25.2599335  27.6283455
  85.8248520  25.1773758  28.5712566  85.2989731  24.6989994  27.2349949
  28.9906197   1.2210375  65.3733521  29.5563259   1.9922166  65.3347473
  29.5621948   0.5201628  65.6868896  47.2460213  12.4081793  22.3370667
  46.8844490  13.1863861  21.9129314  48.0351906  12.7212029  22.7791824
  70.5948868   1.6624410  13.9634113  70.0895233   1.4344414  13.1831207
  70.1077347   2.3835623  14.3620281  57.9105492   0.1120254  74.7010498
  58.2943268  -0.4007127  75.4124222  57.8723907   1.0051969  75.0431366
  12.1665344  29.2049160  85.8096085  12.9349422  28.8096085  85.3978882
  12.2938204  30.1471806  85.6993027  76.0029297   9.3041868  57.6527252
  76.7567673   9.6185198  58.1518784  76.3849640   8.8057222  56.9303589
  72.6034775  59.1780090  20.0401936  73.0089264  58.6162415  20.7006969
  71.9409103  58.6234970  19.6281815  82.8109818   2.9393620  41.3806839
  83.6460342   3.3827875  41.5299911  82.3281403   3.0561321  42.1988869
  62.4822273  10.5520010  49.9605255  62.5339622  11.3610067  50.4695091
  61.5694885  10.2755108  50.0423355  29.3910789  56.5341644  61.8121719
  28.8809357  55.8755226  62.2835274  28.7903385  57.2718315  61.7063828
  21.6523037  54.6628189  54.4175682  21.2494068  55.4632072  54.7541542
  22.5033894  54.9455185  54.0829544  26.6666660  10.9763298   1.6857114
  26.5147552  11.8561125   1.3405492  27.3433666  11.0941343   2.3523672
  57.5563011  26.4685230   5.7109342  58.2356644  26.8615990   5.1630392
  58.0323257  26.0995522   6.4549069  40.0993233   5.6345406  29.9866810
  39.2118835   5.8092380  30.2999916  40.5518036   6.4740677  30.0684662
  31.0452633  70.0712509  21.3115139  30.3061104  70.4382095  20.8265114
  31.7401638  69.9838562  20.6590519  48.4301491  43.7051315  29.8900566
  49.1958504  43.7493553  29.3173637  48.7552643  43.9826965  30.7464962
   5.0125465  43.1785469  42.4380684   5.3239708  42.7980995  43.2593536
   4.2775574  43.7351227  42.6954460  43.3645935  64.5969925   5.3687897
  42.6360397  64.3266144   4.8099222  43.3706703  63.9571304   6.0806646
  47.2861671  52.7853165  61.6101761  47.0279465  53.3821907  62.3125267
  47.1960106  51.9123993  61.9924355  62.8823280  20.1357536   5.7903762
  61.9966507  19.8283024   5.9834647  63.0105171  19.9305325   4.8642645
  67.4631805  46.1426620  65.1026535  66.5138626  46.2628784  65.1266479
  67.6133194  45.5715485  64.3493118  13.7158709  11.9619064  25.3641911
  14.0567236  11.5113325  26.1368713  14.4878159  12.3528395  24.9549198
  72.4071274  64.6001053  50.9134064  72.8622131  65.4011536  50.6537094
  71.5697937  64.6397934  50.4513092  53.4185143  40.9975471  41.0013123
  54.1553688  40.9361954  41.6091881  52.9410896  40.1764450  41.1200142
  74.0411453   1.8078611  52.5119781  74.7753372   1.3264636  52.1305923
  74.2379684   1.8426489  53.4480782  69.3737488  32.7984314  36.6798897
  68.9502869  33.0672951  37.4951363  70.2026062  32.4085503  36.9577827
  60.4123688  14.5727301   1.3660903  61.1768074  14.7085409   0.8062513
  60.7399139  14.7069950   2.2554259  14.5110054  60.2533035  17.7108440
  14.6545248  59.5678024  18.3633175  15.3595943  60.3551865  17.2798576
  60.1005783   8.5831289  42.5224838  60.2344437   7.9283662  41.8372116
  60.9548912   8.6641245  42.9465370   1.7393383  54.2088127  52.0145836
   1.0629454  53.5708351  51.7871895   1.7179627  54.8454819  51.3001404
   7.3572516  20.9453316  17.5177689   7.9048686  21.2148781  18.2551231
   7.5614777  20.0183945  17.3940220  67.1903839  60.3794022  27.1878376
  67.4057693  59.4467621  27.1829662  66.3394012  60.4309616  26.7526207
  29.9410057  67.7526169  44.0556984  30.7438927  68.2569122  43.9242134
  29.4425411  67.8811951  43.2487106  84.9833374  63.2158661   4.1212358
  85.1079102  62.2959633   4.3546658  85.2959366  63.7011719   4.8847771
  48.3571587  50.5931091  79.1393738  48.6851082  50.0114746  79.8252182
  48.3750954  50.0601044  78.3445053  44.9151344  45.7904129  18.5648155
  45.5797539  46.0947838  19.1827736  45.4053116  45.5810394  17.7697563
  86.5015945  59.1797256  60.2682953  85.5653381  59.0970383  60.4494438
  86.6694260  60.1215630  60.3000526  65.1619720  27.5448551  62.1353455
  64.9234772  28.3154430  61.6200333  64.6460190  26.8336754  61.7555428
  69.3239594  29.9202499  31.6371002  69.0723343  29.1037464  32.0686569
  69.4668350  30.5366306  32.3553581  60.1209946  18.6075993  25.7881527
  59.6073227  19.1341553  26.4006138  59.4783554  18.2726460  25.1628132
  64.9055481   4.1897173  33.3395119  64.4907150   4.1437364  34.2009239
  65.7980881   3.8766491  33.4864807  47.1939392  24.9270458  74.3292923
  47.9278145  24.8849468  73.7161942  47.4450874  25.6043205  74.9573517
   6.7817798   1.0030504  82.2728043   7.2423491   1.8407985  82.3206100
   6.6273055   0.8676667  81.3378983  19.6196575  57.8675919  80.2426910
  19.9285679  58.3288612  81.0224533  20.0195141  58.3386459  79.5116196
   8.3416252  63.9837379  19.3171349   7.6221404  63.7026062  19.8824120
   8.8488989  64.5888672  19.8581734   2.3694057  20.7380714  30.6423035
   2.2846274  20.5233746  29.7133522   2.7699692  21.6073780  30.6516304
  48.4255257  15.5275564  32.4352188  47.9687004  16.3619556  32.3288193
  49.0833092  15.6988630  33.1091652  32.3247452   2.1322923  28.6580143
  31.8500690   2.5503013  27.9395542  32.7690125   1.3885804  28.2508926
  77.5801544  16.8095074  23.9270554  77.8487930  15.8977566  23.8140106
  78.3540192  17.2445984  24.2849140  74.5469818  28.2443600  45.4566612
  74.5919266  27.4358616  44.9462280  75.1158142  28.0841522  46.2096519
  19.3836384  65.8990479  84.6529922  20.2636223  65.9363403  85.0277863
  19.1151028  66.8149567  84.5806656  33.2707787   1.4669623  81.4375687
  32.6029510   1.9133837  81.9580917  33.4734764   0.6753674  81.9360886
  37.4787254  42.3147697   5.3299432  37.5633774  42.5082664   4.3963342
  37.4269638  41.3599358   5.3729196  75.6399994  52.2286301  82.6424103
  75.3897781  53.0447922  83.0754242  75.4396591  51.5463448  83.2831802
   3.7606134  50.7325859  24.6566372   4.3280435  51.3605080  24.2094593
   3.3382936  51.2417870  25.3484421  54.4480171  69.2816391  18.9138012
  55.3301582  69.4228516  19.2574863  53.8726501  69.4223785  19.6657181
  83.2493362  18.4552364  31.3718243  82.5118103  18.9893379  31.6668205
  83.0153503  17.5625362  31.6259232  67.5543823  23.3362980  76.8131714
  67.3363037  23.9644203  76.1245956  66.7995834  22.7487431  76.8491974
  78.3839722  45.5723572  79.4384003  79.0933075  45.1131477  78.9887314
  77.9179916  46.0342789  78.7414627  46.8352318   1.4270378  84.0988388
  46.6650925   0.5870481  83.6725693  46.6297073   1.2736173  85.0210342
  63.3079567  30.0819950  42.1728745  62.8204918  29.3288422  42.5065880
  64.0696640  29.7001419  41.7367249  57.2976685  66.7214050  14.7574921
  56.7295609  66.2067490  15.3307371  56.7021484  67.3155746  14.3008146
  36.4037476  52.6481552  45.2495041  35.7248878  53.3114204  45.1251717
  36.0858994  52.1135750  45.9771233  10.6056347   4.0399189  68.6368027
  10.6161709   4.5725484  69.4320526  10.8558140   4.6458869  67.9393463
   0.5713215  61.5138397  14.0388603   1.3965039  61.5976334  14.5166521
   0.0530964  62.2672005  14.3219213  80.2256165  17.8587837  60.5411186
  80.8081055  17.1432552  60.2862473  79.5334854  17.8512535  59.8799629
  27.6664791  42.8361588  69.7177048  28.5651970  42.6472702  69.9876328
  27.6513386  42.6393929  68.7810745   9.2174807   3.1650615   7.9698105
   9.2188129   3.7726653   7.2301836   9.4858561   3.6981261   8.7181749
  52.0786819  55.0852737  38.8417130  51.8888855  54.1600418  38.6863022
  52.2237473  55.4499474  37.9686699  17.0062275  18.9476490  80.7391815
  16.5142365  19.6207066  80.2688980  17.5733528  19.4376183  81.3346024
  68.1976089  70.1274567  14.7465839  68.8047333  70.5987396  15.3171349
  68.5647736  69.2458191  14.6822968  16.6020260  59.1006851  55.2221565
  16.4783783  59.6279373  56.0114288  17.1308308  58.3570480  55.5112991
  67.8483124   4.4499516  81.0120544  68.0596008   4.5058579  80.0801392
  67.0913925   3.8653491  81.0513840  70.7606583  66.0320282  48.6174698
  71.6486740  66.2905350  48.3708305  70.4392090  66.7586746  49.1512260
  67.2200394  56.1686897  86.7110291  67.9556808  55.5971870  86.9311295
  67.5340576  57.0507240  86.9101105  44.1191216  68.0672607  75.1097336
  43.9664383  68.5766220  75.9056473  45.0499191  68.1888123  74.9224625
  34.0690651  50.9752350  25.6788158  33.6807823  50.1041260  25.7602997
  35.0075188  50.8113937  25.5855675  73.5044327  61.6573334  37.2113380
  72.7357788  61.4637604  36.6747437  73.2739182  62.4599152  37.6792641
  41.4452972   0.9507421  61.4478989  42.2947426   1.0243316  61.8829422
  41.6407356   0.5304409  60.6104126  37.4104347  61.5286369  45.2887268
  36.6978073  61.8078117  44.7138748  37.2700157  62.0180321  46.0992889
  59.9679604  21.0231113  52.0362282  59.0968323  21.3008556  52.3194733
  59.9805260  20.0786839  52.1915588  81.0478439  10.0563211  75.4498596
  81.1266403   9.1109953  75.5778503  81.8404846  10.4185200  75.8457947
  38.6619606  35.0518837  85.3146362  38.5262451  35.9976234  85.2564087
  37.8075027  34.6740341  85.1063995  47.5139923  41.2667732  29.3238239
  47.7485695  42.1534233  29.5977898  47.6788101  41.2559280  28.3809814
  61.8369522  54.4563484  55.5359764  62.2104454  53.8126144  56.1379242
  61.5356979  53.9391823  54.7889671  22.2268105   5.8600817  57.6579399
  22.4327431   6.3204961  56.8444023  22.5091610   6.4583035  58.3497772
   4.9203587   5.7424040  10.8180923   5.0509005   4.8956251  10.3912945
   5.6804247   6.2621441  10.5565548  75.7667847  30.0779114  83.3785553
  76.1819000  29.2154102  83.3781586  76.2562790  30.5790157  84.0308685
  41.6671104  48.6169624   0.2887703  42.3535690  49.2274742   0.5576246
  41.0098190  48.6751366   0.9821795   7.4402928  44.3813248  41.8624687
   6.5183945  44.5976334  42.0022736   7.7548528  44.1056175  42.7234383
  28.5694904  70.9252396  43.3613434  27.6951981  70.7410583  43.0179443
  29.1613140  70.6975098  42.6443253  78.8852692  63.9064941  33.9280853
  78.1783829  63.9420357  33.2836609  79.6698837  63.7190666  33.4128418
  51.7608109  43.6269493   4.6016707  51.6983070  43.5621109   3.6487172
  50.9301376  44.0196381   4.8700166  41.8673935  33.5499306  51.7172737
  42.5534935  34.1868248  51.9169426  42.2366867  32.7083054  51.9847107
  11.6964931  31.7211857   7.3945031  11.4417839  30.9276123   7.8652430
  12.6489964  31.7564926   7.4823871  86.4736252  30.5517769  28.6528759
  86.2966995  29.7817364  29.1932163  86.4277802  31.2880421  29.2628307
  41.4740562  55.4003906  59.4052734  41.3004951  54.7251358  58.7494240
  40.6163750  55.7852440  59.5855675  55.5107384  41.0042992  33.3808060
  55.8661041  41.8813438  33.5248184  56.1235199  40.4210701  33.8286667
  68.1403656  37.7135315   2.7998052  69.0969772  37.6974754   2.8293622
  67.8685303  37.2151947   3.5705180  48.5224113  36.1814232  77.3420334
  48.1766243  36.4499283  78.1932526  49.1640091  35.5015373  77.5477982
  14.1909876  48.5247192  53.7436638  13.6188707  49.2454109  54.0073242
  13.6271706  47.7514687  53.7643204  33.4567299  59.1929016  60.5977592
  32.9137764  59.9668350  60.7476158  33.3636818  59.0125275  59.6623230
  37.2921715  68.6004944  53.4942360  37.0376587  69.2841797  54.1139297
  36.9373093  68.8937378  52.6550026  40.3834267  45.7798271  47.8179588
  40.6791344  44.8709717  47.8706093  41.1903152  46.2947617  47.8205719
  66.1067963  42.4259109  30.7167110  66.1207886  42.3215599  29.7653179
  66.9216537  42.0211601  31.0140610  11.6751585   1.7633332  24.1963158
  12.0693922   2.2048969  24.9485340  11.7743187   2.3845756  23.4748878
   5.3676734  48.7046242  46.5012245   6.1248274  49.1931725  46.1783180
   4.7083836  48.8030930  45.8142967  10.0043449  36.5067444   4.6962557
   9.5365915  36.0313225   4.0096612  10.3609142  35.8216095   5.2616587
  29.7009735  10.2230883  71.7826614  29.8717155   9.7396851  72.5909958
  30.0940304   9.6859188  71.0947723  83.5345306  69.4724960  33.0914078
  84.1215134  68.8141479  33.4632378  83.4228210  70.1162262  33.7909546
  54.4869766  29.3142109   0.3245855  54.5583076  29.0178947  -0.5827956
  55.0152855  30.1116962   0.3583497  28.6842098  16.5935173  58.8748474
  28.2416325  16.3813705  58.0530472  29.5182228  16.9782562  58.6053429
  71.6399002  44.5771980  64.2804108  72.2064743  44.9970131  63.6331253
  72.1937637  43.9109116  64.6872635  74.1178436  50.2474365  21.2975941
  73.7619247  50.8997040  20.6941853  74.8961868  50.6634827  21.6681690
  82.1215134  56.0098381  35.3649254  82.2090759  55.0584297  35.4230804
  82.6638718  56.2549019  34.6152420  65.2465210  23.3285885  73.7984543
  65.5817261  22.4441471  73.6513672  64.5883865  23.2240925  74.4855957
  22.9504337   7.3120575  14.4960222  23.0758553   6.3631105  14.4972639
  22.0253658   7.4311056  14.2808323  71.6552505  55.1694679  22.4182816
  72.1458359  54.3589859  22.5549507  72.0252991  55.5413170  21.6176395
  65.7654266  69.1552582   0.9595054  65.2467575  69.8650818   0.5808643
  66.1991882  68.7489700   0.2091637  77.7731781  36.5504227  84.4472961
  78.5451889  36.4661903  85.0068893  77.7490921  37.4775314  84.2103958
  36.0335464   6.7297540  58.4277000  36.7152061   6.1208410  58.1434555
  36.0343475   6.6614718  59.3824615  31.6545181  64.3846741  85.8181686
  31.4541798  64.7438354  84.9538193  31.1341553  63.5830040  85.8708954
  70.6306076  70.4166107   4.8552446  70.2297287  71.2723846   5.0075097
  70.1922684  69.8331680   5.4746699  14.9642553  31.8900681  78.3835907
  15.1317205  31.1656017  78.9863663  14.2628069  31.5716496  77.8154221
   8.5851164  12.6802940  55.5992241   9.5025930  12.5183878  55.8188934
   8.6032448  13.4744635  55.0651855  44.2174110  46.1743774  38.0729904
  43.8901596  46.6723824  37.3239059  43.5601921  46.3091125  38.7557373
  32.7345657  61.0584412  79.8215637  32.0914078  61.5662155  79.3268509
  32.3903008  61.0408897  80.7145386  77.0418701  70.9443665  63.6414795
  76.6875687  71.6222916  63.0660515  77.5405884  70.3719788  63.0584831
  53.3641129  38.1916313  53.4549522  53.7918930  38.1825638  54.3111992
  53.2215614  39.1195602  53.2682457  70.0387268  64.3138046  75.9998245
  69.8904419  63.6110191  75.3671036  69.7704163  63.9406891  76.8394775
  14.0310678   9.9443312  18.5045624  13.5759277  10.0704880  19.3371258
  14.8120832   9.4400864  18.7325630  52.5296440  10.7774696  83.3348541
  51.9246483  10.0374956  83.2833405  52.3603706  11.2811136  82.5386658
  45.4760818  60.5021248   4.2396507  45.4955101  60.5294800   3.2830389
  45.8489342  59.6491547   4.4624896  17.9081917  68.8257828  73.6883926
  17.9726639  67.8716354  73.7293625  18.5686951  69.0830688  73.0451431
  38.1905708  56.0959625   0.6017190  37.7752113  56.3912392   1.4119776
  37.7339935  55.2842751   0.3805153  23.4358597  26.3289795  69.4331818
  23.2775917  27.0210896  68.7911758  24.0116310  26.7321186  70.0829468
   8.3160076   6.0232234  60.9860115   7.7077498   5.7852569  61.6857452
   8.1171532   5.4112287  60.2773857  11.6877565  21.7063046  62.2119026
  11.0757666  21.1644077  61.7138596  11.1350775  22.3602867  62.6397858
   2.9572711  13.0890112  86.5138397   3.8178177  12.8115454  86.8280106
   2.4300795  13.1790819  87.3076782  71.5958405   9.3833055  84.3646545
  71.2069397   8.5665483  84.0517731  71.0581360   9.6320314  85.1164780
  51.7652969  71.7658615  64.7306290  51.9500389  71.2940140  63.9185562
  50.8310165  71.9684830  64.6826706  32.4066429  58.2550964  65.4810638
  31.7772884  58.5243263  66.1501389  32.9944801  57.6508713  65.9344864
  68.1826477  30.7427311  28.1393299  68.0760193  30.6895027  29.0890827
  67.3282852  31.0311108  27.8181820  48.8570061   1.6431369  71.6683121
  49.7338982   1.2820379  71.7982941  48.3890686   0.9658713  71.1798706
  64.4615860  24.6821594   9.6535397  65.2970886  24.2160091   9.6832352
  64.2791595  24.7875233   8.7198105  64.3221436  26.1662769  35.8138657
  64.8864288  25.6124363  35.2743568  63.4732704  26.1457558  35.3720131
  82.4540176   7.0921178   5.3572249  83.1874619   6.6038465   5.7312403
  82.8657303   7.7943807   4.8536854  53.1165276  29.9474545  50.7861176
  53.0270195  30.8629818  51.0507545  52.6460724  29.8914585  49.9543915
   6.7002373  24.3007126  80.7468796   6.8633566  23.9110584  81.6058273
   7.3515215  23.8970699  80.1731796  75.2424088  45.2622910   5.2939095
  74.7404251  46.0527840   5.0954957  75.2038574  45.1871109   6.2473736
  64.5393906  31.5213928  33.3306122  64.9509583  30.6648083  33.4450912
  64.1153336  31.4708004  32.4739609   6.0650563   7.2869868  25.1098804
   6.1562614   8.1534052  25.5064049   5.1722646   7.2742319  24.7649269
  76.5810394  69.1966476  88.4552078  76.1459732  68.9692612  89.2769394
  77.3977356  69.6167908  88.7248764  36.8201981  49.2057533  35.6356049
  36.9086456  48.8908920  36.5351982  37.6887779  49.5404510  35.4125023
  82.6054230  43.9676628  88.8115311  83.3823318  44.0819588  88.2641983
  82.8540192  44.3346558  89.6599121   6.6508284  29.5751724  52.9600945
   7.2746754  29.0355225  53.4457130   6.2534852  30.1383667  53.6242981
  49.0705948  59.5373077   2.2993536  49.0808792  60.1814117   3.0073488
  49.3501472  58.7211266   2.7140007  80.4543762   6.5426359  17.1569996
  80.3835983   7.1158543  17.9203110  80.0054321   7.0180817  16.4579773
  18.6554775  30.0006065  79.0452118  19.5229206  29.8604660  78.6655655
  18.7039089  30.8721447  79.4380341  78.1496887   9.5314751  47.6798058
  79.0811462   9.3303862  47.7702789  78.1230087  10.2796097  47.0833054
  53.5582008  43.5639153  30.3704758  54.1015396  44.3451500  30.2670956
  52.6806450  43.8467522  30.1133118  21.0703392  65.7071991  73.0863190
  21.8067741  65.8752441  73.6742401  21.4771214  65.5204163  72.2402191
  15.5865240  43.3000450  87.6225281  16.0701141  42.5277672  87.3293304
  15.3627682  43.1108398  88.5337677  11.3666143  53.7000275   4.9229093
  11.1918612  54.6400528   4.8776712  10.6644192  53.3008804   4.4092612
  28.6731377  67.1130753  54.3784599  29.5636902  67.4624863  54.4109497
  28.1479931  67.7503662  54.8625145  42.2400322  16.6609173  60.3783150
  42.9575691  17.0500336  59.8783531  42.0568314  17.2974339  61.0693359
  57.0481186  69.5937119  69.9137344  56.2362213  69.1228333  69.7257843
  56.8599052  70.5009766  69.6735611  53.2730141  56.1726952  56.1923485
  54.0907707  56.4436188  56.6096039  53.1105042  55.2929077  56.5326347
  49.6739349   7.2031960  58.9518814  50.6002502   6.9699759  59.0133820
  49.2093353   6.4152956  59.2340012  42.7604904  41.6820564  54.4302139
  42.5985680  41.4424591  53.5177422  42.5473518  42.6141701  54.4745331
  33.4277649  22.2499619  10.7785177  32.6115685  22.1160393  11.2603073
  33.8069344  23.0395679  11.1645002  45.9334984   1.5385839  86.7202606
  46.1344070   2.4523365  86.9225540  44.9857407   1.5256250  86.5867538
  60.7804031  62.7156754  60.4003410  60.2085953  62.3915749  59.7044792
  60.4619141  63.6003838  60.5794601  83.9088058   9.4585905  22.0651646
  83.5794754   9.8005657  22.8963261  84.5311661  10.1203880  21.7636375
  19.5785980  31.1171856  29.0975666  18.7763844  30.6473904  29.3255482
  19.3621483  32.0398903  29.2317085  34.9383125  52.7166710  84.2637939
  34.3721352  52.8604774  83.5055084  35.0496330  51.7667694  84.3028717
  57.6339493  47.9874039  64.3149719  58.1584129  48.2558289  65.0693741
  56.9354973  48.6399727  64.2644501  31.4469109  56.4159050  81.1964493
  31.7231560  55.5301590  80.9611206  31.1568432  56.8036385  80.3707581
  14.8045607  39.3908882   4.3928542  14.0018425  39.6815872   3.9599912
  14.9380665  40.0228233   5.0993028  17.7962112  48.1165466  62.5308456
  16.8396244  48.1285820  62.5629349  18.0402641  49.0185471  62.3233223
  22.1592865  59.5670395  86.2907333  22.3946590  60.4709702  86.4998856
  21.2084007  59.5366135  86.3961792   8.8752708  45.8824348  33.3233910
   8.5494328  46.4776688  32.6482925   9.7779789  45.6975174  33.0642509
  66.4137726  24.7789211  85.5860443  65.8009949  25.4908848  85.4020691
  66.0324707  24.3225403  86.3360825  86.0236969  18.3836918  16.6632614
  85.9381027  19.0820160  16.0142250  86.1539459  18.8426304  17.4931068
  81.5078888  59.3122673  21.3549442  81.6187897  58.8106613  20.5472775
  81.6399460  60.2229347  21.0913563  84.0148239  61.3855934  80.5459137
  84.2816162  61.2124634  81.4487305  84.7861404  61.7811241  80.1398926
   9.1272802  67.9260712  31.7800617   9.8514700  68.2439804  31.2408848
   8.6206589  67.3642960  31.1935692  47.1928215  36.6687737  57.0381203
  47.4014702  35.8518753  57.4912987  47.7604218  36.6668167  56.2673683
  26.9243126  12.4377794  53.3342552  26.6875439  13.2326212  53.8121643
  26.9672642  12.7127972  52.4184189   3.9628074  57.1835365  70.6758118
   4.6643558  57.7575760  70.9832764   3.7084494  57.5488853  69.8284302
  56.6374817  19.0155277  49.0292702  57.3288918  19.5783997  48.6808968
  56.2234230  18.6368599  48.2537727  39.8301659  10.8383560   0.3060678
  40.6623077  11.1600971  -0.0407037  39.8574867   9.8933868   0.1560008
   8.4607687  71.4037094   8.9251242   9.2068281  71.7794876   9.3924789
   8.6138020  70.4591446   8.9497585  23.4121380  18.0887146  41.9278755
  22.7424850  17.8951283  41.2718887  24.0074825  18.6970997  41.4900818
   3.9679427  27.6809616  20.5696354   3.4668958  27.6421375  21.3842983
   3.3043351  27.6758251  19.8798313  39.6646461  40.4385300  82.9266815
  40.4185600  39.8488045  82.9350052  39.7747002  40.9567375  82.1294479
  38.1689682  60.8600922  77.0170364  37.9692955  60.0617981  77.5060043
  37.4276886  60.9676590  76.4210739  15.7447119  49.2967911   6.0303688
  15.7176771  49.4600792   6.9731503  14.8264513  49.2020988   5.7772617
  58.5160294  33.7017479  10.6886292  57.8044815  33.2868347  10.2010040
  58.8052673  33.0311127  11.3073568  78.5684814  31.8445702  61.2140465
  77.7365570  32.0804825  61.6244965  78.5209198  30.8947926  61.1049843
  80.7321701  43.3510094  61.0869026  81.5764160  43.7441673  60.8657417
  80.9215698  42.4182320  61.1883278  10.1230812   8.0646267  28.0242653
   9.6389771   8.8715935  27.8491058  10.4126835   7.7670579  27.1618176
  12.2694120  18.1919403  73.5305557  12.0192747  19.1145992  73.5791855
  12.1793585  17.8717442  74.4281082  66.1663055  28.0754910  22.0053368
  65.9364548  29.0044231  22.0272884  67.0431976  28.0366459  22.3871517
  23.5709152   7.8473172  61.4338074  22.7413025   7.9156413  60.9612541
  24.1533718   8.4601393  60.9850006  34.2241135  49.3730812  70.7931290
  34.9858398  49.8335114  70.4409790  33.5871925  50.0650711  70.9712143
  47.7332916  26.6373119   0.8363684  48.6153526  26.9979458   0.7461206
  47.2355461  27.3283634   1.2733191   8.0994015  19.9543495  84.3492584
   7.6660500  19.1046829  84.2686081   8.0922279  20.3121014  83.4614563
  69.6271896  57.3948479   9.0046234  69.7902603  56.4891663   9.2680178
  69.1233292  57.7676544   9.7280712  67.7850189   1.5745661  43.0780983
  68.1298218   1.7797102  42.2090378  67.1112976   2.2370961  43.2309914
  10.8325014  19.9711647   9.0737801  10.0765400  20.2489357   8.5564823
  10.7064972  19.0301762   9.1958294  18.0772495  49.7963867   1.4822975
  17.6452274  50.3111000   2.1639564  19.0120640  49.9005051   1.6598198
  85.2578278  43.6739769  25.6955032  85.4800720  44.1114960  26.5173416
  86.0878677  43.6175308  25.2221298  56.7889061  61.7136002  17.0825024
  55.9457207  61.8495674  17.5146866  56.6128311  61.8793831  16.1563568
  73.0031967  27.7518654  53.2214432  72.9512329  27.9453354  52.2854385
  72.7527466  28.5705643  53.6495056  11.8003302  65.6403046  31.8602028
  11.4328423  65.6166458  30.9766731  12.5882406  65.0994339  31.8064518
  43.0093498  35.8264732  74.5722198  42.7124481  35.7828407  75.4811630
  42.2075653  35.7529564  74.0545654  23.4592304  50.0105209  83.4597855
  22.8779755  49.3116417  83.1598816  23.6074181  50.5489235  82.6823578
   3.5038586  37.1518211  82.0782089   2.7932358  36.5575905  82.3193283
   3.7146721  36.9186745  81.1740952  70.6317291  25.8982677  42.9468155
  71.4865341  26.0436268  42.5413399  70.0213623  26.3979893  42.4046288
  15.4898548   1.5835843  52.9781189  14.6714230   1.1966407  53.2890472
  16.1639595   0.9521745  53.2293930  46.7728043  13.6166878   9.0978737
  45.9100571  13.4678450   9.4848347  47.3646507  13.6761312   9.8478203
  57.1569824  61.6347923  32.3534241  56.4653931  61.4820976  32.9973297
  56.8066292  61.2791252  31.5367336  47.7790794   1.5388824  52.7401161
  47.5564728   0.9758585  53.4815216  47.7154007   2.4285812  53.0874100
  26.0130024   0.4802108  74.2247009  25.4267139   1.2035629  74.0027618
  26.5379486   0.3466045  73.4355164   3.7294488  11.9401264  27.5196762
   3.6986139  12.3837862  26.6720638   3.2447610  12.5172014  28.1098404
  49.5173416  46.9455109  17.3890953  49.9357529  47.2784462  16.5951691
  50.1794930  47.0530014  18.0719051  20.5629311  38.4130402  73.4419785
  21.1494370  38.0607338  74.1113968  19.7445621  37.9315491  73.5631027
  22.7930393  41.9802971  73.4204178  23.5549583  42.5589142  73.3901901
  22.6693382  41.7955971  74.3514404  40.7750854  53.3031998  23.7036343
  40.6114960  53.7427216  22.8691940  39.9342422  53.3349075  24.1599293
  74.1183319  68.2841339  79.8760529  74.9962082  68.1553726  79.5169144
  74.1649780  69.1276855  80.3260193  43.9135132   9.7750301  82.6564713
  43.6151924  10.4544306  83.2611618  43.7296371   8.9526968  83.1105499
   3.1444399  18.7793503  67.7770386   3.7231688  18.9503078  68.5200577
   3.5659258  19.2195282  67.0389175   4.8008952  58.9259415  78.3659286
   5.1294370  58.0378799  78.5060577   5.5444689  59.4005547  77.9943466
  33.6577873  63.7592773   4.9366012  33.2336349  63.0774460   5.4575920
  33.6045914  63.4402351   4.0357051  54.7222595  38.6680222  31.0760841
  54.8637009  39.5206795  30.6647396  53.9014282  38.7679214  31.5582600
  69.9366455   6.0069780  88.6282959  70.1953506   5.0941257  88.5017776
  69.3497467   5.9870343  89.3841934  26.8144627  62.9793053  52.4832687
  26.9865913  62.9376335  53.4239426  26.5823994  63.8939323  52.3225327
   5.2387929  10.6945019  43.8713646   4.6758680  11.0614157  44.5530701
   6.1163721  10.7062712  44.2533951   4.7576532  62.3791695   7.1749735
   5.3612313  62.2534218   7.9071717   4.3704581  63.2408981   7.3290315
  54.5963554  25.3972664  31.0336514  54.5681953  25.3694267  30.0772705
  53.8910294  25.9970016  31.2766800   1.4440637  10.2573357   7.4044957
   1.9897124  10.8767328   7.8891058   2.0665171   9.6418982   7.0171709
  72.0329285  48.1438980  75.8857574  72.9439392  47.9264488  76.0832520
  71.8614578  48.9386597  76.3909225  22.2151928  19.9406166  29.6713161
  22.1986885  20.6493187  29.0281181  22.2406902  19.1408958  29.1459332
  63.1608543  10.9161892  19.8123474  63.6152573  10.8327312  20.6506710
  63.2570305  10.0571442  19.4012222  16.0361137  37.0668869  25.5083675
  15.5390739  36.5114365  24.9078197  16.9506702  36.9260445  25.2634602
  31.6813622  49.6654968  84.3634186  31.6229420  48.9300499  84.9732819
  30.9053078  49.5797005  83.8097000   5.8486342   5.6133175  67.0176468
   6.2590537   4.7540073  66.9208221   5.0539060   5.5603547  66.4867630
   4.0841346  39.5707054  20.4373245   3.2171285  39.8445778  20.1381149
   3.9397006  39.2482719  21.3269348  60.5740738  60.4103546  10.6739187
  60.9152451  59.5445404  10.4498711  59.7331390  60.4613571  10.2195425
  50.6324387  31.0477619   5.7202086  51.4356003  31.5418205   5.5556717
  50.7811432  30.2014999   5.2983561   5.2844105   7.3476896  19.3574638
   5.9303417   7.6569271  19.9925842   4.4655404   7.3029151  19.8511028
  62.6705284  31.7691059  51.9205170  62.5635262  31.0478458  51.3003807
  62.1035652  31.5383606  52.6564102  30.6938744  58.5658836  72.5636749
  31.0021572  57.6661186  72.4558792  30.4394321  58.6231728  73.4846573
  13.9171371  55.3491516   1.0213952  14.2798986  54.4645500   1.0674222
  14.0987377  55.6362267   0.1264988  52.8452263  35.7188072  16.3171349
  52.8539276  36.2220001  15.5029154  52.7825317  36.3798561  17.0065670
  68.2255936  23.3288250  45.2330208  68.1702576  23.9785233  45.9337807
  67.9649582  23.8044605  44.4443054  29.1468220  65.5001221  27.1369801
  29.4399681  66.2967987  26.6947041  28.4523468  65.1560440  26.5752468
  83.5385742  24.2048130  20.7369728  83.4665909  23.5116425  20.0807972
  84.4233780  24.1098633  21.0895996  55.5219269  34.7911797  52.9252052
  54.5827980  34.8575592  53.0980110  55.5778351  34.4141197  52.0471764
  49.4842758  27.1777000  18.6131306  49.3376579  26.6290874  17.8425732
  50.0333176  27.8946686  18.2957268   6.7105980  28.4405651  19.6606388
   5.9044361  28.5365543  20.1677094   6.6077495  27.6061954  19.2029457
  62.7348480  60.4372635  24.2943916  61.9933968  60.3058395  23.7034569
  62.6042175  59.7924652  24.9896641  10.5954037  58.1146851  39.3953934
  10.5147152  58.1617622  40.3480225  10.4779043  59.0176048  39.1001587
  64.2684402   8.1580296  45.3148346  64.5607986   9.0639706  45.4149895
  64.9256134   7.6413445  45.7810898  11.2760143  43.4441490  88.2682800
  12.0265274  43.6682892  87.7180786  10.8035402  44.2695236  88.3767166
  62.7396317  11.0453625   9.8420525  62.3028641  10.2606058   9.5109587
  62.8203773  10.8951759  10.7839422   3.7625785   7.8121767  70.7702332
   4.4646378   7.2226930  70.4948196   3.3791926   7.3862720  71.5369492
  77.4867783  65.1402664  88.0725250  77.5343094  64.2173615  88.3219528
  77.5484009  65.1336975  87.1173325  86.3399429  41.0727615  46.8879128
  85.8385696  41.8633804  46.6884727  86.5331802  40.6894989  46.0323410
  11.1133547  11.7398062  74.0548096  11.9527044  12.1127224  73.7852631
  11.2560472  11.4566813  74.9579773  77.6719208  29.5282173  60.4640503
  77.9144745  29.3474598  59.5559082  78.0880280  28.8281231  60.9669914
  65.0286179  57.1975212  46.1493683  65.2279968  56.4017982  46.6426277
  64.8755341  56.8928452  45.2549591  13.7076187  56.9393158  52.2461281
  13.4957075  56.0159416  52.3828888  12.8963623  57.4041443  52.4511337
  33.2290840  28.2280617  71.5323486  32.7058449  27.9313698  70.7877502
  32.6119156  28.7119904  72.0811157  63.6645966  54.7485847  33.3194580
  63.7211227  53.8753052  32.9316139  63.2069130  55.2732277  32.6625671
   1.4642000   7.1770616  34.0115433   1.2437942   7.9548769  33.4990425
   0.6811939   7.0050483  34.5345573  85.6132584  58.1464615  13.2891121
  85.2087402  59.0028725  13.4275293  84.9331589  57.6267891  12.8605766
  46.1077156  41.6183167  67.1097794  46.9685020  41.2116051  67.2090988
  45.5813828  40.9579811  66.6590500  82.0012360  55.1994438  38.8121300
  82.3960495  54.7192841  38.0842552  81.3411331  55.7574806  38.4009285
  60.0598145   9.2440052  82.8985672  59.3170509   8.6884375  83.1349564
  60.6948929   9.1066628  83.6014481  50.2194939  25.0093288  78.1989136
  49.5140839  24.4603004  78.5412521  49.8395119  25.8866920  78.1533279
  58.2021561  33.3105888   3.5602231  58.3684044  32.4294243   3.8950984
  59.0726547  33.6930847   3.4499240   7.5944161   7.2159758  47.2822266
   8.0885267   7.7157307  47.9320984   7.2679887   6.4551721  47.7626991
  73.5412445  36.5589066  72.5918655  74.1424332  36.7013779  73.3229675
  72.7058792  36.3443260  73.0070343  62.3929062  16.0508614  31.3871479
  61.6706772  15.8553495  31.9841347  62.4532776  17.0061531  31.3890114
  18.8457375  50.0212631  54.6131210  19.6035576  50.0896111  54.0323753
  18.5035629  50.9136238  54.6664085  61.8915558  24.9918976   2.8357086
  62.6367188  25.5591125   3.0337782  61.6299286  25.2409554   1.9492819
  73.4785767  34.5484581  87.1104355  74.2749405  35.0138206  86.8545532
  72.8094635  35.2307739  87.1648712  55.7984695  27.2036724   3.3490345
  55.2869301  26.9610577   4.1208496  55.1531754  27.2700291   2.6451695
  57.2083473  56.3746872  58.9524956  56.3269882  56.7262764  58.8267097
  57.6751862  57.0626068  59.4269028  70.5932770  65.3449173   5.5787797
  69.9788513  64.6118927   5.5416107  70.2289352  65.9936066   4.9765377
  23.7029057  54.4855537  19.1477909  23.6731892  55.2647629  18.5926533
  24.4097404  53.9556885  18.7791958  41.9019623  70.2799530   3.5195837
  42.3489380  70.9316177   4.0597401  41.6754608  69.5779114   4.1295557
  77.8625793  41.9656677  61.2451935  77.6009064  41.4175835  60.5053520
  78.4150543  41.3966942  61.7811699  59.6772957  53.5330276  17.6148071
  58.9656448  54.0364342  17.2193832  60.2631798  54.1946716  17.9824963
  86.5539932  31.8807945   0.0559239  85.7816391  32.3344460   0.3934178
  87.2712784  32.1815758   0.6138318   7.8681006  17.6010094  14.5616302
   7.8948979  17.5009003  13.6100569   7.2337222  16.9463577  14.8535662
  10.8619843  46.6459618  73.6233368  10.3618097  46.8681717  74.4086227
  11.4847956  47.3660545  73.5243149  53.9057388  41.1489983   7.7092495
  54.2419586  41.0368958   6.8200817  54.1423569  40.3377571   8.1588383
  18.8096771  52.3704834  29.8645916  19.6731319  52.5990562  29.5204487
  18.4472504  51.7641068  29.2186928  75.4515991  20.2056122  14.0961676
  74.8693085  20.0572662  14.8412571  75.4153824  21.1506310  13.9483185
  81.6316757  52.8426323  45.3877296  80.9790115  52.1962891  45.1184578
  82.1348877  52.4035301  46.0734406  48.4114799  45.6248665  37.8417244
  47.9897957  45.6621246  38.7002258  47.6853447  45.5719566  37.2203064
  61.5619011  32.7436714  78.4388657  62.2898445  33.0773201  78.9632797
  61.9191513  31.9743881  77.9952393  50.2360115  29.5109806  61.9583244
  49.7246933  29.3921585  61.1579094  51.0987854  29.7904243  61.6521149
  82.7379837   4.3541479  53.7587013  82.2450867   3.7989814  54.3629150
  82.2069702   4.3720107  52.9624977   9.1812153  49.5970688   0.6533512
  10.1072903  49.7278023   0.8571278   8.8523912  49.0549622   1.3704488
  48.2735329  20.8691483  18.9822216  47.6757317  20.1331863  19.1134701
  48.9432755  20.5306759  18.3879910  31.0573559  56.2297897  86.5142365
  30.4459686  55.8645477  87.1537933  30.5827522  56.1974564  85.6836090
   3.0243516  30.6938686  37.0468597   3.7214777  30.1582737  36.6681976
   2.2248931  30.1907082  36.8921814   4.9951406  11.9994888  65.6567307
   5.4206977  11.7338943  66.4719543   4.2702737  11.3830070  65.5530472
  35.6834908  14.1981592  80.5241318  36.1097450  13.4520512  80.9458694
  35.5562744  13.9200554  79.6170959  20.7043686  48.5148582  23.5455322
  20.4085960  48.0032082  24.2985039  20.7576370  49.4129868  23.8722668
  19.2845478  65.2786179  40.1458626  19.8612919  65.9942703  39.8785858
  18.9659214  64.9077225  39.3229752  43.2428818  55.4417877   1.4125481
  42.3454094  55.2359734   1.1509867  43.2011337  56.3474083   1.7196938
   2.8528397  70.8897858  74.2959518   3.5542405  70.3328247  73.9582214
   3.2524912  71.3616638  75.0265961  51.5676575  41.7901993  24.5680389
  50.6327744  41.7518578  24.7699184  51.7760086  42.7244225  24.5747013
  83.9232254  59.9049492  30.8174229  84.1978378  60.1942253  29.9472828
  83.2873306  60.5627098  31.0988865   6.2575941  68.3706131  62.4374352
   5.4114947  68.8085327  62.3448372   6.1965308  67.9055481  63.2718277
   2.5528390  58.7403908  13.2627687   1.7789164  58.8981438  13.8034992
   2.4465973  57.8424492  12.9486923  54.4602776  52.1237488  25.4700146
  53.5641098  51.9702072  25.1707859  54.9907455  51.5093231  24.9627495
  84.3807602  51.5919113  82.9158401  84.8841171  52.3161850  83.2877045
  83.5673523  51.5816498  83.4203186  78.8218002  68.5309067  35.0909805
  79.1216888  69.3095474  34.6219292  77.8761444  68.5121155  34.9439659
  30.6804008  60.2448540   7.3374352  30.1859512  60.5572281   8.0951757
  30.7779408  59.3043365   7.4862485  78.1762848  16.6953945  77.6286545
  77.6755753  17.0143948  78.3795013  77.7120209  15.9064503  77.3489075
  44.7327690  34.7687149  68.6849136  45.1011505  34.8541718  69.5642471
  44.6558838  33.8244591  68.5481720  11.7137995  59.2599297  52.6927872
  11.4681482  59.5318336  51.8085060  12.4075518  59.8686714  52.9465065
  43.5800972  71.0291901  87.8338089  44.1522827  70.3447037  87.4869385
  43.4141159  71.6040115  87.0866394  63.5376625  70.4314270  57.4134636
  63.2468185  70.6246414  56.5222244  64.4919434  70.4941330  57.3728752
   3.4947038  21.8227863  43.2236900   3.2974973  20.8972759  43.3678207
   4.4210534  21.9082165  43.4491005  66.3091049  35.5501404  61.6276932
  66.8292770  35.2734108  62.3820648  66.0735550  34.7338486  61.1867638
  28.4732876  40.0286369  19.8480396  29.4045525  39.9419670  20.0516701
  28.1888275  39.1377678  19.6439190  20.2378025  64.3321686  32.9514389
  20.9699402  64.9385223  32.8394508  19.4585667  64.8668747  32.7994194
  45.8685989  57.0946350   1.9472760  46.1032867  56.1685066   1.8886141
  46.1688881  57.4706917   1.1198463  82.7822952  27.5854073  15.0971556
  83.0388489  28.4097481  15.5105276  82.1816788  27.1804581  15.7228565
  38.4706268  41.4026794  75.7857056  37.6768265  41.6183357  75.2962189
  39.0547562  41.0130692  75.1351471  62.2723503   6.6760602  87.4856720
  62.5038071   7.5451436  87.8133240  62.0013809   6.1906567  88.2649002
  71.7965393  57.8465042   3.1622677  72.1104431  57.5842056   4.0276556
  70.8852615  57.5544662   3.1393776  38.4571152   3.2420337  63.0667114
  39.2265701   3.5193434  62.5694542  37.9308167   2.7481647  62.4379539
  33.4826546   6.8907428   2.0446661  32.7083054   7.3626618   1.7382255
  33.9069862   6.5815010   1.2443254  37.7420311  66.1696396  52.1689110
  37.1089973  66.4609680  51.5126877  37.8649445  66.9299774  52.7372513
  17.9995518  21.3738823  10.3967915  18.7662487  20.8135834  10.2764883
  17.5918751  21.4109840   9.5315428  75.0541229  45.1948853   8.3505497
  74.6108932  45.8981552   8.8250914  75.9366684  45.5307808   8.1939411
  15.6608047  70.0581512  63.9652901  16.2367268  70.4117279  64.6431732
  15.3610373  70.8272247  63.4806290  49.1176872  14.7564678  20.6249542
  49.1134987  14.7515163  19.6677761  48.1924820  14.7276535  20.8686695
  44.5466843  38.7501335  87.9901047  44.8891945  37.9336052  87.6265106
  44.8261604  38.7405090  88.9055481  16.5151844  35.0876312  88.7988968
  16.0668812  34.7997932  89.5941315  15.8316889  35.0974388  88.1288452
  61.5130348  23.8190861  45.9277725  62.1793823  23.6897335  45.2528801
  61.9920998  23.7504921  46.7536201  26.6952381   0.9640957  25.0002518
  25.7394676   0.9270336  25.0371170  26.9816227   0.5960455  25.8361683
  29.8481522   8.4924650  88.8288574  29.3596611   8.9661150  89.5021057
  29.4614220   8.7834358  88.0030212  86.3094177  59.1486893  19.0365028
  86.3969345  60.1015854  19.0129013  86.6586151  58.8551826  18.1949863
  16.2970066  36.7669907  34.4014854  16.7650585  35.9407387  34.5217590
  16.9835434  37.4339828  34.4057121  62.5353317  36.0290146  78.8048401
  61.6194305  36.2531013  78.6401062  62.5134125  35.1084213  79.0661163
  69.0213165  19.2948132  67.2327347  68.6773453  18.6959667  67.8955307
  68.2545166  19.5507832  66.7201691  49.0497055  38.6006355  19.8277550
  49.4314499  38.1570091  19.0703259  48.2560425  38.1021843  20.0223789
  50.4045029  62.0137444  74.1755524  50.5450211  61.0950775  74.4047623
  51.2718468  62.3342247  73.9280930  59.5042610  68.4896317  35.9394760
  59.7251282  67.9425812  35.1856918  58.5472832  68.4948196  35.9594498
  77.2270508  70.2793427  14.5239010  77.9234467  69.7052612  14.2049990
  77.1273346  70.0451508  15.4466381  53.4857140   9.4287052  34.0390854
  53.8732109   9.6668100  34.8813362  53.1533279   8.5407877  34.1708183
  54.5759621  66.2582092  82.5898743  54.7269402  65.4308090  83.0468750
  53.8817329  66.6856537  83.0914459  21.9017258  66.7001724  43.2654839
  22.1476879  67.0220337  42.3982239  22.6390991  66.1530075  43.5359001
  60.1105385  18.0551872  51.9426575  60.7500000  17.3915787  51.6839294
  59.7254448  17.7147560  52.7501488  53.4588776   8.1248322  30.6601868
  52.7549934   8.6007986  31.1009045  54.2517014   8.6158705  30.8759232
  73.2572479  55.5501671  74.8070831  74.0645294  55.9063187  75.1781311
  72.6515045  56.2912331  74.7958145  70.5032425  58.9147224  52.4378815
  70.0469437  59.4930077  51.8266449  71.3270569  59.3651466  52.6241074
  78.9155655  32.5224266  39.2210884  79.2917328  33.3434334  38.9038010
  79.5829697  32.1633492  39.8057823  58.2002182  42.5962067  32.6302986
  58.9936562  42.3971291  32.1332512  58.5200806  42.9288254  33.4689178
  17.7029209  37.6932869  73.5233154  17.5385189  36.8271179  73.1505508
  16.8336525  38.0283318  73.7432022  15.3481998  31.0880985   9.5336924
  16.0786400  31.7059383   9.5647449  14.8767738  31.3146629   8.7320337
   8.5890427  38.0511665  74.3384628   7.9869890  37.8448486  75.0534439
   8.1515417  37.7204247  73.5539703  70.7400970  52.4094543  64.1055679
  69.7845306  52.3819962  64.1542206  70.9514847  51.9563255  63.2893410
  64.0506210  14.1870289  72.9577179  63.7318611  14.4825802  72.1049118
  64.5562668  13.3977089  72.7639923  25.7280979  24.5508461  87.9034500
  26.2622623  24.7788563  88.6643143  24.8334446  24.7686634  88.1649551
  11.5285664  28.1121292  58.1354332  10.9077597  27.6649227  58.7106171
  11.1029415  28.9428482  57.9233437   3.1131573  66.0379562  22.6083755
   3.5497591  65.4424744  23.2174835   3.8274953  66.5169525  22.1882477
  17.7061386  48.4706535  16.3736897  16.8329144  48.3501778  16.0005989
  18.2910385  48.4804916  15.6160440  59.7346764  35.6625748  65.6764832
  59.8646469  35.7388954  64.7312241  60.6165199  35.5494194  66.0311356
  85.2204437  27.2448330  85.4148178  84.7556839  28.0105896  85.7522278
  84.5338593  26.6952076  85.0370026  72.2453079  53.8651924  29.9354649
  72.9389267  53.2165031  29.8157940  71.6033554  53.6574440  29.2565155
  17.0488205  70.6713333  82.9229813  16.5292549  71.4076614  82.6003342
  17.7963161  71.0790482  83.3602982  48.9473953  48.3593979  34.2489967
  49.4191933  48.0808144  35.0338745  48.1581879  47.8178444  34.2390823
   0.1252195   5.3604250  29.6484871  -0.0954554   5.4308343  30.5772381
   0.4333127   6.2343583  29.4085903  25.2373333  57.1893196  23.2548084
  26.1135769  57.2647820  22.8770046  24.8161621  56.4962578  22.7463684
  67.3657303  68.3670654  73.7629089  67.6720886  67.5904846  74.2311935
  66.6876907  68.7360840  74.3288803  56.1434937  68.4497986  74.0534363
  56.0728302  69.0157166  73.2846909  57.0332870  68.5935287  74.3756790
  27.9901295  31.6696205  87.8713226  28.7090416  31.9342327  87.2974091
  28.1995373  32.0672760  88.7164536  58.8660126  37.8514290  10.4248972
  59.7382812  37.7290573  10.0501909  58.8442192  38.7722740  10.6852837
  65.7060165  40.2161407  15.6892433  65.4578781  39.5359993  15.0630903
  66.6034088  40.4468994  15.4491024  46.9899712  48.5381699  56.7040138
  47.2351189  48.9886284  57.5122375  46.1928635  48.9821663  56.4146729
  30.8731441   6.4336400  14.8452015  31.2910156   5.7198486  14.3634157
  30.4088821   5.9998317  15.5610952   2.7822547  38.2696342  39.2100563
   3.3858151  38.8117867  38.7021027   2.6438086  37.4929810  38.6679497
  66.6181564  37.6037636  14.0636606  65.7173691  37.4808311  13.7641468
  67.0372543  36.7558365  13.9166794  18.4907780   0.1789174  85.1099396
  19.3138618   0.5951454  84.8539810  18.7145939  -0.3389594  85.8832092
   3.7618403  10.6166306  51.5653687   3.7393920  10.6884270  50.6111298
   3.3227549  11.4086075  51.8755417  10.4290371  56.3966713  23.7852955
  11.2475042  55.9183617  23.9178276   9.7827339  55.7170296  23.5939465
  77.5085754  70.4444427  39.6906433  77.2853088  70.5231781  40.6181068
  76.6874161  70.1945190  39.2669983  11.8383236  53.0416946  70.9252167
  11.5091925  53.2152061  70.0432892  12.7685709  53.2629738  70.8815384
  61.5065918   2.8297875  27.3210983  61.4263115   3.6502118  26.8345890
  60.6152534   2.4823685  27.3535404  57.4411812  39.6269989   7.1544805
  57.0074730  38.9507179   7.6748366  56.7236328  40.1208305   6.7576346
   1.0396296   2.8734591  24.3768425   1.8162829   2.3611693  24.6017876
   0.8075769   3.3253996  25.1880951  17.2164783  10.6180763   4.6154189
  17.4658337  11.1822615   5.3473678  17.4191685  11.1342945   3.8352480
  12.7758102  60.1715813  15.2274542  13.2332964  60.9592094  14.9332132
  12.1320610  60.4906845  15.8599024  46.8338547  25.5700188  77.7425613
  46.0184326  25.5479603  77.2417297  47.3276367  26.2975864  77.3643341
  48.8957138  14.4100962  60.2502518  49.3484688  14.9005241  59.5641556
  47.9973946  14.3250780  59.9308281  81.8784714   8.3140602  15.2257166
  80.9506454   8.2951078  15.4602327  82.1640167   9.1998701  15.4494123
  21.9568405  66.7330627  24.8749275  22.6467628  67.1783981  25.3667755
  22.3474255  65.8981400  24.6168976  39.5124817  42.1978989  88.2480850
  40.2081413  42.0278091  88.8831940  39.9350548  42.7158394  87.5629578
   0.3600305  32.8819771  70.0254517   1.2499558  32.9843063  69.6881180
  -0.2030067  33.0400429  69.2676697   1.3921157  64.5220718  68.3639374
   1.3992480  64.9467239  69.2217560   0.5363451  64.0960922  68.3146667
   0.7111117  14.7816763  40.5549049   0.6405595  14.5632219  39.6256409
   0.8686891  15.7257299  40.5677223  29.4311409  47.0293770  16.0372429
  30.0798016  46.9100723  16.7309551  29.8581581  47.6099777  15.4073277
  29.3056278  26.7380161  59.1843071  29.9564571  27.3510723  59.5260887
  29.4774208  25.9208241  59.6521912  53.8128395  46.8192024   8.7154760
  54.0279312  47.6875534   8.3749905  52.9640274  46.6121292   8.3244915
  67.0296478   7.4205179  73.4264297  66.0949707   7.2438974  73.3196106
  67.4633026   6.7032137  72.9641953  80.8571243  34.6656837  30.3061523
  80.4393311  33.8113670  30.1974201  81.1539078  34.9007912  29.4270153
  29.6548710  58.4378662  75.2842941  30.2895985  57.7214928  75.2970734
  28.9612083  58.1539154  75.8796387  59.8517036   4.2738438   8.2965307
  59.8908920   5.2081447   8.5009251  60.0639572   3.8388937   9.1223631
  16.9504871  61.3371239  84.8035355  16.1836224  61.5915298  85.3167801
  17.3102684  62.1646690  84.4842148  81.8018646  56.1399117   9.8253031
  81.6138535  55.7613068   8.9665003  81.0177078  56.6444893  10.0414791
  60.0998230  27.2675724  50.0194092  60.5582809  26.4380455  49.8854942
  59.2592888  27.1508980  49.5765495  21.0898533  68.5259018  13.5119419
  20.8912392  68.8259506  14.3989353  22.0061531  68.2519073  13.5513334
  35.6111488  46.3131714  55.7067337  36.2208023  46.1751900  54.9818077
  35.9976959  47.0284348  56.2119217  33.9510269  21.1415367  71.3795929
  34.7304192  20.8702316  70.8946533  33.9110298  22.0900631  71.2574081
  49.6971817   7.3485918   4.5485177  49.5481873   8.2703609   4.7591691
  49.8964195   7.3460355   3.6122861  11.5208225  39.5996857  14.8036451
  10.8057842  40.2242279  14.9256935  11.2362185  38.8151512  15.2724094
  22.9669628   3.6079588  27.4710083  23.1300812   2.8743787  28.0638695
  23.7637291   4.1362686  27.5187912  33.4213104  31.2140884  81.9122467
  32.7703629  31.7559490  81.4662781  33.4586334  30.4097958  81.3945999
  82.9742432  18.2072163  52.4055595  82.0570602  18.1039696  52.6592293
  82.9649887  18.9079227  51.7535210   8.8880234  15.1370020  54.2106323
   9.5548429  15.8209858  54.2718658   8.0822115  15.6066732  53.9954376
  52.5450821   0.1758567   5.6121926  51.8818741  -0.2960869   6.1158400
  52.1218987   0.3618126   4.7739973  83.1707153   2.8166411  83.7215424
  83.1592789   1.9259444  84.0719147  83.5117645   2.7199028  82.8324127
  68.7700958  38.3238678  33.1264381  67.9784927  37.8187790  32.9407310
  69.1558533  38.4894791  32.2662048   0.0343457  16.8334789  45.4301186
   0.0342284  16.0800037  46.0204620   0.6881761  16.6168633  44.7654266
  53.8242912  62.4235306   4.4676466  53.3601074  63.2452965   4.3080668
  54.2411423  62.2175331   3.6309676  74.8288116  33.1047897  83.2200394
  75.1429062  33.8671722  83.7061996  75.1774216  33.2238350  82.3365631
   1.2283560  67.0485306  30.7355213   1.9371513  67.2359772  30.1201324
   1.1233697  67.8589249  31.2339916  31.9389610  22.0867596   6.5181880
  31.0722103  22.3110085   6.8568425  32.3682861  21.6307011   7.2420135
  43.6516991  36.6130180  67.1772156  44.0028419  36.1084175  67.9109116
  43.5284271  35.9684219  66.4804153  81.9445724  70.0684891  28.7203598
  82.5722961  70.0952682  27.9982243  81.1512146  69.6971664  28.3344345
  59.7309608  60.4913673  33.4705162  59.1093750  59.8784599  33.8632164
  59.1817322  61.1522102  33.0487747  24.2012424   8.2813282  20.5480251
  23.8692131   7.8471990  21.3338509  24.0924873   9.2154541  20.7263870
  80.6517410  23.0088406  12.4097242  80.9760132  22.6604366  11.5792465
  79.7460251  23.2590008  12.2271852  85.6097717  57.4387360  63.6233711
  84.6754684  57.6467133  63.6308441  85.9690399  57.9236603  64.3663406
   9.1557360  43.4295197  80.3748169   8.5170927  42.7645912  80.6321793
   9.1725330  43.3880920  79.4186554  37.4821281  44.5310593  49.8581467
  38.2641907  44.4579735  50.4052010  36.7836685  44.1438637  50.3858490
  78.9652939  44.1704063  15.4441471  79.3324585  43.5107765  16.0326252
  79.7285080  44.5743141  15.0311213  18.4355412  32.6463089  79.2607193
  17.8437061  32.7781792  78.5200577  19.1389885  33.2802467  79.1210175
  63.3996735  45.0292969  57.8419838  63.3545189  45.5655823  58.6335564
  64.2705536  44.6330833  57.8704681  66.5176697  52.8003349  56.2240410
  66.3024063  52.7435036  55.2930908  67.2693176  53.3918877  56.2603951
  37.9869957  21.0932426  61.1377411  38.0401077  21.8593159  61.7091789
  38.8988419  20.8493156  60.9787941  79.3454208  31.3766975  64.2778854
  79.0941544  31.6139984  63.3852615  78.5428085  31.4821491  64.7886887
  53.7821236  29.2058353   4.5993371  53.7258415  30.1182156   4.8832870
  52.8718147  28.9366665   4.4763818  79.9348679  23.4040127  41.8660736
  79.6115265  22.6613941  42.3761673  79.8656998  23.1173439  40.9554329
  46.4219627  68.8144836  26.1704483  45.9480133  68.5610962  26.9625340
  47.2309570  68.3038101  26.2017155  39.0061417  42.7069893  64.3334351
  38.5237579  42.0776978  64.8696518  38.8587608  43.5498619  64.7624741
  54.1364021  35.3458672  10.4984303  54.6624451  34.9704437   9.7923374
  53.3242722  35.6199570  10.0723448   9.4658194  40.9668808  11.0160818
   9.0993233  41.4780769  11.7376003  10.1027718  40.3866158  11.4329948
  36.1965790  67.1346359   4.5131516  36.9560280  66.5615921   4.6184692
  36.0206985  67.1286926   3.5722678  36.4845390  51.3276558  47.5229034
  37.4314041  51.3037453  47.6611214  36.1165657  51.4226151  48.4014320
  36.1877022  48.3454285  47.9644585  37.0970345  48.0765495  47.8338737
  36.1893349  49.2870712  47.7925835  66.8126221  50.6098557  81.6170883
  67.2694550  51.1483078  80.9708633  67.5054245  50.0995293  82.0363998
  61.0905113   1.0861666  58.0487289  62.0177765   1.3109653  57.9720345
  60.9082375   0.5539705  57.2742767  64.3308792  10.5997639  26.5081596
  63.4927521  10.6350441  26.9691677  64.6857224  11.4851513  26.5882130
  27.2325249  69.8184814   5.5437365  27.6178455  68.9805908   5.8000464
  26.3477459  69.5964966   5.2537007  81.8662720  34.2026024  71.7604752
  82.1883011  34.9132652  72.3149872  82.1727829  34.4267120  70.8818054
  73.5359039  58.6675797  58.4352341  72.8001328  58.1839638  58.0597458
  73.8360367  58.1210976  59.1615372  42.3233147   4.1851220  23.0555515
  42.5180054   4.7611980  23.7947845  41.4299889   4.4159756  22.8007870
  67.9192123  52.2677917   9.0853443  68.2769623  51.7042923   9.7714262
  67.1016083  51.8418999   8.8277206  75.3122559  61.8372650   7.3657131
  74.7876587  62.0562286   6.5955935  74.7615051  61.2365723   7.8677835
  86.6612015  61.9404831  26.3957844  86.5087280  62.8836975  26.3380280
  86.9978256  61.6990013  25.5328827  33.9072113  49.1901398  59.2373161
  33.2049103  49.3919678  58.6190376  33.9326439  49.9448090  59.8255844
  31.1929054  45.3578682  40.8688354  31.8916435  45.0696602  41.4561462
  31.2543602  46.3130760  40.8741112  40.6344719   1.9317403  85.5662689
  40.3572845   1.4117560  86.3206024  39.8354263   2.3665569  85.2684631
  52.6643066  62.5034294  23.0041332  52.6864357  61.5557175  23.1367207
  52.2054558  62.6182022  22.1719570  28.9176884  49.2515831  74.5753098
  28.2895451  49.9193382  74.3000412  29.7260876  49.4794273  74.1161728
  49.0467415  46.3280830  84.1107635  48.2577705  45.9919167  84.5359116
  49.6340141  45.5736084  84.0647812   5.0323796  61.1661873  35.3838387
   5.8106318  60.8718910  35.8570671   5.3201661  61.9478226  34.9121895
  56.2491837  17.9901466  79.7553558  55.4704056  18.3655510  79.3444901
  56.5397224  18.6598186  80.3745193  32.7249870  53.3155251   3.8589857
  33.1729774  52.5418053   4.2008762  31.8980026  52.9800644   3.5128715
  84.2805252   2.1450498  65.1789398  83.8195572   1.5949211  65.8122635
  84.8739929   1.5448326  64.7275314  63.9611168  16.8215790  48.6099014
  64.1010437  16.8898163  47.6654472  64.5959854  17.4284401  48.9905548
  30.4397736  50.6328354  11.8595896  30.9109077  50.2527618  11.1180983
  29.7301064  51.1358032  11.4600544  16.5856075  68.8357391   8.5478621
  17.4197464  69.0285034   8.1197414  16.6597538  69.2426987   9.4110651
  28.5509663  12.7354765  78.4065704  28.0639057  12.2706718  77.7261581
  29.4518223  12.7572956  78.0837479  38.0352173  29.7948380  74.5639496
  38.3338661  30.5026569  75.1349487  37.8649178  29.0637169  75.1578293
  81.4950562  67.9390945  72.8613663  81.3516693  68.7989349  73.2567673
  82.1581650  68.0925369  72.1883316  48.5755196  52.0918541  31.6469097
  48.9480934  51.7875366  32.4744415  47.6362572  51.9285736  31.7326984
  46.0841064  51.7455444  80.0098114  46.8873062  51.4323959  79.5938339
  45.7722549  52.4433060  79.4335251  67.7363281  11.2898064  80.2757339
  67.4158554  11.8581467  80.9761047  67.2342529  11.5535393  79.5046387
  44.3750648  11.4800348  26.0229912  44.1822052  10.6253576  26.4084301
  43.9939995  11.4387150  25.1458874  64.5721054  19.9483643  40.9172859
  65.2528610  19.8187466  40.2569771  64.0886078  19.1223259  40.9281693
  55.0163956  34.1186714  15.8053255  54.1982002  34.5912247  15.9585695
  54.8895454  33.2738647  16.2371178  10.9475431  10.9757357  60.5536652
  10.6048222  11.7290621  60.0727577  10.2118158  10.6784058  61.0889511
  25.2242775  51.9118309   8.7916584  25.6665516  52.1059113   7.9652462
  25.7017365  52.4234352   9.4447479  71.8876343  67.8983841  26.5618229
  72.5445023  67.3453903  26.9848557  72.2698517  68.7758865  26.5734692
  67.9051743  65.6517334  38.5702934  68.7540588  65.2205353  38.4718170
  67.9922409  66.4674530  38.0770950  17.5467987  61.7941704  43.3476143
  18.1267586  62.4763260  43.6860619  17.2593689  61.3164253  44.1256752
  68.6094437  39.6153259  53.1230278  69.0221100  40.1679420  53.7867699
  69.3235626  39.0768852  52.7819290  53.2872124  47.3390503   5.9888301
  52.9478455  48.1049881   6.4518647  52.7657013  46.6081390   6.3205323
  31.3123131  54.1694984  43.7447815  31.7209301  54.0509338  44.6022224
  31.8197231  53.6086884  43.1580467  52.3190231  59.5299034   1.4298346
  51.4745522  59.1192780   1.2441226  52.9650764  58.8578796   1.2125074
  27.1532955  57.1750832  19.1321697  27.9125309  56.5999870  19.0369949
  27.4560604  57.8783760  19.7065792  46.8543701  67.4312286  19.7922592
  47.2680855  68.2357330  19.4794598  46.1426468  67.2712860  19.1725025
  81.9694519  36.1346664  52.8217812  81.4787216  35.6803284  52.1369514
  81.6155853  37.0240555  52.8200684  86.5150833  16.7623310  77.8278351
  86.6441193  17.7099571  77.8676529  87.4009171  16.3996735  77.8303680
  24.0891552  47.8710175  34.5138016  23.9493675  48.2072487  33.6285667
  24.9554462  48.1957893  34.7593460  58.3963547  55.5268440  86.9327545
  58.5293503  55.0205078  87.7341080  58.5554848  54.9019127  86.2253876
  43.0940361  10.6237612   2.5137796  43.8375664  11.2147675   2.6325502
  42.3583412  11.0791264   2.9232001  84.6853790  38.4446526  70.8840942
  84.7171326  39.1130409  70.1996307  84.4891281  38.9309769  71.6848450
  24.5382748  63.9065666  49.2294693  24.4752178  64.8479156  49.3910713
  23.8370972  63.5253334  49.7579041  43.0455284  42.8788757   0.5901080
  43.7107658  43.2838554   1.1465968  42.2304306  43.3180885   0.8328787
  80.2084961  54.7355003  43.6272469  80.1460648  54.5370865  42.6929207
  80.6214294  53.9611511  44.0094719  79.1158447  63.7417946  85.9869385
  79.9874802  63.9959526  86.2900620  78.8814011  62.9918289  86.5335770
  66.0840454  63.0719948  50.5569153  66.4467773  63.9066162  50.8536758
  66.2631149  63.0537529  49.6167946  52.5811005  56.8429146  77.8749771
  53.2286186  56.3680115  77.3540039  51.7443085  56.4412575  77.6411362
  10.1017818  60.3120613  78.0141983  11.0379429  60.3672447  78.2060013
   9.6839256  60.2587471  78.8737183   3.5064759  71.6319809  34.5230675
   4.2738080  72.1904449  34.6477928   3.8601048  70.7431488  34.4891243
   0.7427241  53.4062767  12.0051594   0.1747167  54.1279793  11.7354441
   0.9978630  52.9830513  11.1853943  72.7065506  47.1241798  43.6425781
  71.7953262  47.4172707  43.6444511  73.2161026  47.9268723  43.5317993
  12.9756765  27.6059208  67.1813126  13.2580328  27.8867474  68.0517426
  12.2910919  28.2294407  66.9388275  23.0900345  20.8693504  59.1910744
  23.4809113  20.6643124  58.3417168  22.1651268  20.6446762  59.0895882
   6.1833901   3.0460744  49.3510323   5.5567756   2.8448758  50.0460930
   6.1807694   4.0016551  49.2954407  66.0242691  26.3719482   0.9104686
  66.5442657  27.0409737   0.4652283  66.5856018  26.0675316   1.6235411
  77.9635620  24.4337196  56.2660141  78.3442764  25.2940960  56.4422112
  77.5887375  24.1615696  57.1036758  34.2423515  16.7578487  64.3254776
  34.4583817  15.8264008  64.2811279  33.5233841  16.8668709  63.7030373
  55.7918854  13.3455105  22.1483669  56.6289635  12.8869982  22.0755863
  55.8347931  14.0298691  21.4805012  39.3536873  54.5540466  21.3025608
  39.2430878  55.4959106  21.4325504  38.4884071  54.1846924  21.4789143
  56.8832092  47.2273521  13.3663969  56.2703056  46.6886330  12.8660345
  56.3381386  47.6668510  14.0190620  60.3179207  10.6192741  68.2657318
  59.5989685  11.1547050  67.9300842  61.0891724  10.9290552  67.7909241
  48.1119194   2.5627847  36.2458038  47.5605965   2.0096645  36.7992783
  48.9956932   2.4448001  36.5940132  45.4163742  38.1055298  71.6562729
  44.6732025  37.7080154  71.2024994  45.1971703  38.0317879  72.5851059
  33.8216515   0.3305463  54.3603401  33.8770523  -0.0643729  55.2305145
  32.9717522   0.7707847  54.3507805  32.4803123  66.5537109  50.5670052
  32.3149605  66.3381271  49.6491737  31.6273575  66.8241882  50.9069214
   2.9004507  40.4243584  36.1834335   2.2697613  39.8158913  35.7984276
   2.7462766  41.2506752  35.7255402  68.3688431  15.0171719  14.0360241
  68.9682846  15.0268679  13.2898264  67.4972229  15.0683107  13.6437311
   2.4779248  43.9632225  65.3891830   1.9860258  44.7840614  65.3669739
   2.9933438  43.9709778  64.5826340   0.2271804   5.5702448  12.5005865
   0.9136793   6.2272348  12.6159782  -0.5240694   5.9224515  12.9778767
  21.1387882  67.5051346  39.4097900  20.7179928  67.6447906  38.5614624
  22.0763168  67.5542908  39.2230911  68.5534286  39.0556488   6.7167540
  69.0803299  38.4197998   6.2327046  69.1333160  39.8082771   6.8329563
  28.5773964   3.8532269  73.7444839  27.8618202   3.9066458  73.1109772
  29.2412624   3.3167224  73.3112640   5.9008365  21.9004745  86.9154129
   5.7467732  20.9659061  87.0535431   6.8538680  21.9840603  86.8841705
  48.1558151   1.2551126  60.6653481  47.3493843   1.7651119  60.7415009
  47.8816109   0.4325476  60.2598495   9.2047482  22.5786476  67.5996704
  10.0714645  22.9804764  67.6594086   9.0867643  22.4013157  66.6664658
  82.6558533  66.7248917  49.6894875  82.7658463  65.8903503  49.2337875
  83.4005280  67.2539368  49.4034729   7.2088599  47.0137520  48.3683090
   6.3144341  47.2173958  48.6417389   7.5604563  46.4777527  49.0791664
  79.5261765  32.5935936  14.0986567  79.3611069  32.7458229  13.1681681
  79.7921753  33.4483109  14.4376869  85.2516174  30.7150440   4.2627954
  85.8165512  31.3952370   3.8961637  84.9723663  30.2014027   3.5048881
  29.6482639  61.6460266  36.9664688  29.3678341  62.2725792  36.2993660
  29.3882351  62.0468483  37.7958984  58.4469872  16.0254726  27.2270260
  59.2216034  16.3557472  27.6821308  58.3141785  16.6387920  26.5042286
  77.9120255  48.9598999  12.4268522  78.3637161  49.5753822  13.0042486
  78.4793777  48.1892128  12.4074755   0.6048224   3.5070014  20.5868626
   1.2753961   3.8098655  19.9746246   0.7499091   4.0268478  21.3773956
  45.3267555  16.0847054  76.7744293  44.6035881  16.1672173  76.1527786
  44.9661903  16.3973618  77.6041718   5.3636937  12.9861269  11.1354446
   5.8366919  13.4901075  11.7976437   6.0392404  12.7124605  10.5149803
  61.7637291  14.2133703  42.0456390  62.5337563  14.7775984  42.1158981
  61.4957657  14.2868042  41.1296501  61.6676140  48.7777061  54.8710403
  61.1707687  47.9596329  54.8825951  62.4278984  48.6040382  55.4260521
   8.4644136   5.5757060  76.0351410   7.8605347   6.0964770  75.5056534
   8.5300426   4.7406197  75.5719376  31.6984406  15.8095226  80.8021317
  30.9641571  16.2803192  81.1963501  32.0559120  16.4200077  80.1573410
  50.3473015   7.5703554  36.5167007  49.9334793   6.9554834  37.1224365
  49.9140091   7.4091358  35.6785507  38.0848694  35.0356560  62.0446587
  38.0928268  35.9365273  62.3680725  38.4450836  35.0956345  61.1598511
  19.6317024  13.0337629  78.8735657  19.8842010  13.8001165  78.3586121
  19.3260021  12.3995581  78.2250595  76.1157532   1.3074965  84.6292191
  76.0646896   2.2578351  84.7315979  76.1287689   0.9704510  85.5250244
  30.5340633  19.6312771  61.1515236  31.1377125  20.0703812  61.7507133
  29.8870239  19.2183151  61.7233925  28.3179760  55.7737465  84.8965149
  28.7511292  56.4033356  84.3201218  28.7607498  54.9436150  84.7202606
  28.3253002  58.2531586   8.3922586  27.7578297  57.7947083   9.0119600
  29.2127934  58.0765610   8.7043524  27.2732887  51.9075775  59.3242493
  27.7692966  52.7204552  59.4214249  26.3944073  52.1918335  59.0732536
  23.4460869  56.9133530  48.4408569  24.0468941  57.2875977  47.7964935
  23.5997753  57.4233551  49.2361603  86.3687286   3.9012749  84.6977997
  87.1902466   3.4150448  84.6276474  85.8463287   3.5972531  83.9555740
  52.0135117  18.6852512  48.4774704  52.1539841  17.8530178  48.0259323
  51.3530922  19.1351528  47.9505310  60.5326385  68.5019302  77.7363205
  60.9942665  67.6881485  77.9385376  60.1264458  68.7589264  78.5640793
  41.8918457  43.8281479  26.2930012  41.7261162  43.1745872  26.9724312
  42.1932297  43.3197556  25.5400486  52.5321693  24.9647083  81.9361420
  52.1260452  24.0979462  81.9320374  53.3655396  24.8408833  81.4818344
  48.1778831  59.3184509  37.8620377  48.0066414  59.2103577  38.7975731
  49.1235237  59.1975861  37.7761040  50.2501259  41.2722664  53.7789650
  49.3934517  41.5507660  53.4552650  50.1457176  41.2328644  54.7296371
  35.7258224  66.8350067   9.9034700  36.5156097  66.5403595  10.3569574
  35.8893471  67.7587662   9.7133322  80.8345184  23.5803871  72.6179810
  79.9004135  23.7892265  72.6260757  80.9063034  22.7833309  73.1431351
  53.7401924   5.5525799  70.7499008  53.6559639   6.0116611  71.5855942
  52.8384895   5.4216256  70.4566193  32.7755051   3.0402131  61.1687698
  32.2043800   3.2937603  60.4436760  33.3189812   2.3379989  60.8113327
  37.5772858  14.1677876   6.2308602  38.1434479  14.6323586   5.6145272
  38.1396523  13.4926329   6.6105175  56.9091797  30.0784798  31.4629707
  56.1492767  29.7612553  31.9509735  57.6430130  29.5666275  31.8031559
  13.7768621  46.0062904  14.7444239  13.3358545  45.2866745  14.2928724
  14.7078590  45.7922020  14.6840658  30.8220997  34.8865089  54.9127464
  30.4972172  34.0290451  54.6380882  31.7743206  34.8139725  54.8475723
  23.5462284  43.4486313  56.7569046  23.0390148  42.7453232  57.1622734
  24.2142258  42.9960480  56.2419510   8.1132746  49.5494652  47.2998505
   8.8517866  49.3573265  46.7219963   7.7772732  48.6896858  47.5530586
  69.1020050  42.3078079  67.3108292  68.7830658  43.0077629  66.7411118
  69.5671387  41.7132111  66.7223282  11.1752701  51.4606018  74.0400543
  10.5974293  50.9005547  74.5584030  11.0075331  52.3447914  74.3661041
  53.7332039   2.8358033  63.1183968  53.9216194   2.2889502  62.3557129
  54.5458374   2.8296225  63.6241798   6.5138512  55.8451920  22.9016190
   6.6498294  55.7742729  23.8464527   6.0992270  56.6997070  22.7827835
   3.7424781  56.5254669  46.2362785   4.0726180  56.4602852  45.3401794
   4.3534460  57.1181412  46.6740990  11.5465736  28.2624264  55.1477013
  11.3334417  27.3968277  54.7990646  11.6741915  28.1182137  56.0853310
  25.8423328  53.4145851  36.0946465  25.6005726  52.6125984  35.6313934
  26.1435204  54.0073853  35.4060936  45.3329620   4.6016288  48.4771614
  46.2066727   4.9917755  48.5025864  45.1945763   4.2661786  49.3629112
  51.1784058  49.2933846  83.2738647  51.7638397  48.5361328  83.2820206
  51.6416740  49.9486694  82.7521133  41.4417610  42.0105972  65.2824936
  40.6079330  42.2315254  64.8675690  41.7954445  41.3008728  64.7463608
  34.9815788  69.8709335  19.5107174  35.8414955  70.2740784  19.6300869
  35.1727333  68.9891510  19.1911011  81.1351547  41.3920593  47.8407440
  81.3641052  41.7562752  48.6958199  81.9400635  41.4617424  47.3274231
   4.7998447  18.4675407  57.9055901   5.2117224  19.2154846  57.4729614
   4.3619895  18.8437767  58.6691093   1.1810178  69.3455276  32.0430222
   0.4159101  69.8955307  31.8746796   1.2484351  69.3145752  32.9973450
  80.2032166  64.4852676  36.2129860  80.9200287  64.2457428  35.6255798
  79.4336929  64.5310440  35.6455650  60.6539192  48.9378052  82.3014526
  59.8568230  49.1883392  81.8344421  60.6387711  47.9807281  82.3047791
  37.8584442  42.0274429  68.3650131  38.3383865  42.6329269  68.9300690
  37.1354408  41.7145309  68.9086838  81.4111862  28.4464569  43.1863213
  80.6274948  27.9239540  43.3567696  81.6309433  28.2580032  42.2739487
  24.7583790  67.0668869  81.5319901  25.0469513  66.7161865  82.3745880
  25.5360451  67.0236588  80.9755783  33.1226730  20.3127937  82.5748520
  33.8249512  19.9278049  83.0990906  33.4089622  21.2119637  82.4143448
  42.2210922  45.6191444  59.7601128  42.2384453  45.6950531  60.7141418
  42.9155121  46.2058640  59.4604912  68.6323700  63.4650192   5.3714104
  68.8721008  62.7207565   4.8192921  67.9510803  63.9205017   4.8768334
  39.8623314  40.6074257  19.3979187  40.5470505  41.2718010  19.4753647
  39.3702431  40.6741142  20.2162304  23.4214859   6.0083947  87.6789627
  23.8762245   5.2368450  87.3410950  22.6895313   6.1382022  87.0759506
  40.9833527  53.5936928  57.4976044  41.9093666  53.4016266  57.3498230
  40.5563126  52.7371063  57.4863625  46.5464516   6.0659084  14.2360878
  46.5808334   7.0012512  14.4365454  47.0920448   5.9679880  13.4557209
  28.4802437  68.2480240   1.7351620  29.3028069  68.1106949   2.2050152
  28.4521542  67.5415573   1.0899136  73.5149384   0.5126029  69.6044922
  73.4516754   1.1151354  70.3455582  73.9082870   1.0340272  68.9047623
  27.5636768  71.3712997  81.5822983  28.4845314  71.5811996  81.7378769
  27.5835190  70.5298004  81.1265411  72.3888321   3.0016439   7.3387752
  72.2612686   3.9460711   7.4283056  72.8980942   2.9039538   6.5341983
  48.2559128  53.5931625  56.3720245  47.8610458  54.4635315  56.3194008
  48.0207329  53.2757797  57.2439156  25.2824421  41.8522797  79.3364868
  24.7612019  41.5362892  80.0745239  25.6125832  42.7036552  79.6235352
  58.9516563  36.5348549  15.9477005  58.0159531  36.5497017  15.7465105
  59.3451691  36.0513039  15.2213697  77.7154388  31.8275719  87.8998489
  78.2829895  31.0818176  88.0946884  78.3130417  32.5722923  87.8328400
  11.3918629  21.8711395  58.2522736  10.6879416  22.5116024  58.1496391
  11.0089426  21.1786213  58.7908096  47.3600082  41.2748756  38.2615242
  47.7443466  40.4186363  38.4496117  48.0324898  41.9025917  38.5260429
  85.0255814  64.2454605  68.6660461  85.0698013  63.5901222  69.3623276
  84.2227631  64.0346222  68.1893311  68.4022293  41.0581360  14.8951092
  68.4478378  40.7844315  13.9790106  69.3121948  41.0535583  15.1920443
  12.3884382  35.1528358  84.5311813  11.5302753  35.3184471  84.9215164
  12.3704653  35.6302834  83.7017517  76.6592636  68.0859070  21.4718323
  76.5158920  68.6308365  22.2456093  77.3491287  68.5373154  20.9854679
  77.3752899  60.2712212  11.3692636  77.6512222  59.7180862  12.1001081
  78.0213547  60.9771118  11.3458967  46.6259384  27.2145901  19.4897766
  47.4788818  27.2936802  19.0626202  46.7677536  26.5799370  20.1921558
  31.9622517   6.3012009  63.5022545  31.9095421   6.2889791  64.4579239
  31.8622074   5.3846292  63.2451172  66.6907578  57.5188713  22.6678677
  65.8641663  57.7377625  22.2376709  67.2323532  58.3004036  22.5578098
  47.0214806  33.8310242  75.8600464  46.7715759  34.5429420  76.4490738
  47.5917358  33.2722702  76.3880920  28.2706718  49.7399368   8.4586163
  28.7427769  50.5118713   8.1464205  27.8263454  50.0359879   9.2530718
  34.4722786  10.3453093   1.3356664  33.7417984   9.8154049   1.0165553
  34.9985123  10.5221214   0.5558913  65.6502380  33.8130531  53.0676727
  66.3151779  33.4024353  53.6203804  66.0771866  33.9183540  52.2174644
  64.7310333  64.7292709  85.3971176  64.3911438  63.9340172  84.9868851
  63.9852524  65.3291473  85.4109726   0.5881850  26.0995884  74.5076218
   1.3037347  26.6789646  74.2458191   1.0071721  25.2508526  74.6502075
   3.4370084   0.8429411  12.4349442   2.7533886   1.5129324  12.4322443
   3.3088863   0.3667220  11.6145592  63.1420364   7.7351928   9.0004749
  63.4154434   7.0008106   8.4507809  62.8380623   7.3272891   9.8113050
  59.0788231  39.5791969  24.9359875  58.5678864  40.1612511  25.4984722
  58.4664078  39.3089333  24.2517815  32.1612587  58.4615822  87.1667709
  31.6479969  57.7537079  86.7772751  32.2623940  58.2074089  88.0840530
  30.2892570  59.4808273  14.2556591  30.3288193  60.1526070  13.5749416
  29.7091656  59.8490295  14.9221077  61.2411652  43.9017525  86.6857529
  61.9777260  44.4453087  86.9654999  60.6060104  44.5235100  86.3304672
  55.1109428  33.0478554  26.2531738  54.3512497  33.5968018  26.4474831
  55.8283615  33.6684265  26.1249905  59.7961540  65.8138275  87.3185883
  59.1738701  66.0093155  88.0191422  59.7390862  64.8650665  87.2053909
  47.7486420  31.6071739  83.6426163  48.4642525  31.0174103  83.8799210
  47.5307350  32.0594292  84.4576111  54.6602974  20.4705009   6.4359016
  53.7707939  20.7995987   6.3066292  54.5675316  19.7816467   7.0940094
   3.8725579  16.2418976  81.4981613   3.1749065  15.6013260  81.3596649
   3.9860430  16.6606731  80.6449432  84.3558807   0.4401706  61.3772278
  84.0580978   1.3390326  61.2372093  84.6608582   0.4274719  62.2844543
  66.2203369  16.6132202  45.3073921  67.0190048  16.2957478  44.8860016
  66.4804764  16.7897758  46.2114830  52.1853180   1.7701718  34.1979637
  52.5839272   1.7343119  33.3284531  52.6877632   2.4381521  34.6644211
  67.8252335  37.2841568  79.3328629  67.1982880  36.9310913  79.9641495
  67.3705139  38.0252647  78.9325867   4.2645507   1.4651064  18.8235874
   4.2645154   2.1964262  19.4411659   4.2088094   1.8789629  17.9622803
  35.4491997  62.8328400  41.3862839  34.9238167  62.6192474  42.1573753
  36.2870979  63.1289787  41.7418976  45.5984573  10.3621731  65.1026917
  46.3405113  10.0699577  64.5733566  45.8287354  11.2529020  65.3668976
  18.7915401   0.5819021  88.2332840  18.6500816   1.4676716  87.8991699
  19.7218208   0.4146442  88.0821838  77.5368576  33.8593292  19.5013390
  78.2861633  33.5514565  18.9914494  76.7728271  33.5791969  18.9973373
  36.7604370  41.6887169  12.6259499  35.8153725  41.7205048  12.7745237
  36.9919281  42.5799980  12.3646832  31.4916477  47.5686378  56.0833435
  31.2961769  47.9633255  55.2334938  31.4012833  48.2882080  56.7080765
  21.7575150  55.5739288  67.8881073  22.1813641  55.5663795  67.0298996
  21.9992352  54.7356834  68.2819977  70.4072647  67.6980209  43.3973656
  70.9057465  68.5111542  43.3164139  70.2204895  67.6237411  44.3332214
  69.6185532   6.3294358  67.0111923  70.0364761   6.1061192  66.1795120
  70.0159836   5.7338777  67.6464767  71.5224686  41.0297775  31.4591160
  71.8092880  40.4212532  32.1400414  71.8543396  40.6517181  30.6447678
  85.6964264  53.5842819  70.1435623  86.6125259  53.6075630  69.8670654
  85.5038528  52.6534576  70.2563248  40.0963707  41.6197701  43.4597435
  40.3567085  41.0820732  44.2076340  40.3073387  42.5153580  43.7236481
  51.8263054  61.2754326  53.1377449  52.0818520  60.8950844  52.2973480
  52.0145035  62.2093620  53.0450897  74.3347702  65.0091248  53.1724663
  75.0982819  64.4348984  53.1129990  73.6733627  64.5856171  52.6252747
  68.9538727  32.5353394  18.5888042  69.8309326  32.2379494  18.3468285
  68.8597946  32.2817039  19.5069809  56.4845810  71.3635788  86.4322128
  57.2228317  71.5678024  87.0062485  56.8614235  70.8170700  85.7426071
  36.9303856  67.0205688  85.3487625  37.2069931  66.4764175  84.6114578
  36.6052208  66.3968964  85.9980087  73.9404526  51.8484688  15.5860929
  73.7882080  51.0613747  16.1091022  73.1501694  52.3743515  15.7091141
  60.3292427   5.8706503  80.9171371  60.1024094   5.4361353  80.0949554
  59.7991867   6.6676817  80.9209976  60.2599754  52.5044594  35.2929497
  60.4528999  53.4262810  35.1219177  60.5153313  52.0530434  34.4884338
  35.5449257  42.0156212  18.8074780  34.7609596  42.0363007  18.2586575
  36.2686882  41.9234428  18.1878777   5.6991162  25.9710693  19.2299595
   5.0817866  25.4087925  18.7620068   5.1479583  26.5183945  19.7893276
  81.3567581  30.8454628  61.4250832  80.6625519  31.3926620  61.7923508
  81.2394333  30.9136162  60.4775467  17.4569798  53.3726540  60.8149567
  16.9540730  53.8049088  60.1246872  18.1371651  52.8875694  60.3477631
  45.7966461   8.0581264  11.4186621  45.5026665   8.3938675  12.2654715
  45.8777084   8.8364868  10.8674669   0.7759175  23.8262405  19.5175667
   0.2082571  23.5500145  20.2370758   1.0748227  24.6997986  19.7701206
  35.6094971  24.0616455  73.0318069  35.0077629  24.6874466  73.4349442
  35.3676643  23.2174263  73.4126511  53.0576401  59.6403465  30.7917042
  52.8623581  58.9579849  30.1494579  54.0090904  59.6097412  30.8918877
  27.2776585  58.7542419  66.5189133  27.4823570  59.0215225  67.4149551
  27.7702141  57.9433060  66.3924255  84.2405930  43.7917213  31.8803577
  84.2290649  43.0361443  32.4678993  83.3230896  44.0557289  31.8116646
  73.5683670  22.2492237  30.7282028  72.9373245  22.7844620  30.2470169
  73.6760559  21.4645805  30.1906452   2.8230512  45.7453003  89.5494766
   3.4821644  46.4391136  89.5289764   2.7018449  45.5028839  88.6314468
  39.4587784  30.6238766  51.3766708  38.9368095  31.3237343  51.7690773
  40.2415962  31.0650635  51.0468521  13.6930780  61.5275803  71.1675949
  13.8033676  60.6499062  70.8018646  14.1676674  61.5022049  71.9984665
  86.4411545  12.5451860  11.4140759  86.0267868  11.9950047  12.0787783
  86.8622437  13.2460451  11.9117813  40.4236221  67.6146164  33.1539345
  41.0613213  67.1004944  32.6587143  39.5848160  67.1874695  32.9802055
  78.2759018  52.7577896  55.4651680  77.5807343  52.9694519  56.0882034
  78.1848297  51.8167953  55.3152580  73.9145508   2.0593529  21.6883831
  74.1210327   1.1403573  21.8588047  74.1165848   2.5066144  22.5101929
  85.4310303  18.7061558   8.4877415  86.2057953  18.1545677   8.5959997
  84.7046967  18.0870991   8.4139843   2.2548225   9.7961855  82.0414734
   2.0416191  10.2369442  82.8639679   2.1205454  10.4646978  81.3696899
  12.6885576  16.8055763   4.5842447  11.9695587  17.1593075   4.0606551
  13.2880030  17.5432186   4.6972890  77.3835297   2.8482249  73.8774643
  77.9198074   3.6322386  73.7593307  77.1002045   2.8872437  74.7909393
  86.5103531  29.1759338  38.9704704  86.1629944  29.7996712  39.6080666
  87.4564819  29.1873322  39.1151810  36.1111565  69.7567062  10.2469082
  36.4968262  70.0829697   9.4338617  35.4719009  70.4249954  10.4938307
  64.4440079  38.9955673  27.8477402  64.6669464  39.2032127  28.7551613
  63.7060547  38.3896561  27.9150448  73.8275833   0.7800236  30.0787430
  74.3972244   0.4565825  30.7766914  74.3000412   0.5781444  29.2711143
  26.9454002  24.8325443   2.1636963  27.6551037  24.3898792   1.6982914
  26.7267437  24.2419834   2.8845706  67.2519760  35.8381233  74.8188171
  66.5165634  36.2291412  75.2905197  67.7199554  35.3313675  75.4824600
  20.4064922  19.2270126   2.7060595  21.2710190  19.6291962   2.7901583
  19.9010315  19.5915833   3.4325774  84.7968903  14.6799278  76.6348724
  83.8638458  14.6847477  76.4212494  85.0210037  15.6033659  76.7500687
  48.2674141  18.2171669  62.1514893  48.3571434  17.2860470  62.3544579
  47.4101372  18.2892990  61.7318459  76.6647415  14.8903894  53.5175133
  76.9503555  15.7932844  53.6569366  75.8209229  14.8341560  53.9658890
  32.8578453  15.7366028  72.4788742  32.1576920  15.6878510  73.1297531
  32.8426895  14.8828115  72.0463943  27.0379009  62.7426033  17.2411613
  27.4372482  63.4323425  16.7110538  27.1574001  61.9449120  16.7257614
  84.6201782  48.2974396  12.6917267  84.9324722  48.7648735  11.9169950
  83.6798248  48.1937714  12.5460443   9.5330095  65.4512177  38.7827530
  10.3554602  65.0635834  38.4835052   9.7312536  65.7890244  39.6561470
  76.9008255  11.6215973  74.6098862  76.2597885  12.2608528  74.9207687
  77.5897675  11.6306801  75.2743454   4.8543015  53.5914383   5.4789691
   5.4917397  53.9086113   4.8392000   4.2994781  52.9876404   4.9851747
  52.1208687   8.2428236  27.4778118  51.4679184   8.5363503  28.1132069
  51.9765701   8.7985973  26.7119637   9.8413944  13.9874010  77.6048813
   8.8924103  14.0685997  77.7001038  10.0640898  13.1945314  78.0927277
  30.7820797  20.5159264  10.1002073  31.5297050  20.7585983   9.5539503
  31.0007095  20.8531666  10.9689436  71.1814346  18.4301643   0.4766829
  71.1942596  19.2799339   0.9170913  72.0356369  18.3690796   0.0490927
  83.3092270  10.0012913  84.9052429  82.5673523  10.5834837  84.7412338
  82.9683914   9.1240177  84.7307434  16.7451534  63.4391060  34.2845078
  16.1730881  63.3207321  35.0427704  17.2793808  62.6451950  34.2612648
  66.7134171   6.6462054  24.5997982  67.1795959   7.0367227  25.3389912
  65.8559036   7.0714798  24.6057758  77.5100784  21.4985542  10.2219009
  77.9086609  22.1821175   9.6832867  77.1221390  21.9701653  10.9590006
  51.2635765  16.9563847  52.3995361  50.4746780  17.1700153  52.8977661
  51.0860062  16.0919056  52.0288925  19.4289207  64.5931396   3.8386419
  19.8698177  64.9744720   3.0794120  19.0658684  63.7684822   3.5155866
  53.0080452  70.9898300  20.9794312  52.1646957  71.3928757  20.7731514
  52.9717712  70.8275604  21.9220772  14.7046432  46.0089874  23.5375309
  15.6266727  46.1798859  23.3454723  14.4428196  45.3534889  22.8910007
  27.8337288  29.0882854  64.4289017  28.5612545  29.6195316  64.1053009
  27.9735184  28.2263889  64.0366974  68.6240311  56.7126350  47.6902084
  69.1013870  57.2170143  48.3489647  68.9036560  55.8082390  47.8320122
  77.5161972  16.0345917  85.6655807  77.9468689  16.5045338  84.9514999
  78.1071243  16.1384754  86.4113998  65.7903595  37.5940742  69.6467056
  65.8683319  37.7285271  68.7022095  66.6187744  37.1868095  69.8998566
   2.5676003  12.2227383  71.4895706   2.3254781  13.0852089  71.8268433
   3.5081687  12.2859011  71.3235168   7.2715850  39.7885056  47.7119255
   7.6090293  38.9837761  48.1053391   6.5111079  39.5061150  47.2038307
  50.2718964  33.4628181  13.6400414  51.0886421  32.9738846  13.7405338
  49.9354935  33.5530243  14.5316296  86.1264725  42.4098663  42.3390350
  85.8485870  41.4986305  42.4321327  87.0535049  42.3550529  42.1070137
  82.8251190  71.2938232   9.8663807  83.6531525  71.0914764  10.3018684
  82.9895248  72.1195450   9.4109907  71.3401184  52.1041260  33.2235146
  71.5481949  52.9975281  32.9500771  71.5325012  52.0896568  34.1610718
  67.3816910   7.0600429  15.9850025  68.3225403   7.0780725  16.1602612
  67.0858612   6.2264252  16.3507805  63.6154060  53.4284172  57.5790405
  64.2845383  53.6576691  56.9341125  63.8695297  53.9067802  58.3682327
  55.3133049  52.9165077  27.8436222  56.1794090  52.5954628  28.0946789
  55.2524071  52.7331963  26.9061146  78.7306824  60.0874634  58.2679634
  78.1021576  60.4396820  58.8981514  79.5042725  59.8795242  58.7919350
  31.1551170   8.6770191  69.9296722  31.9314098   8.1543436  70.1306992
  30.8379078   8.3247013  69.0981140   2.1000557  71.7027588  58.6317139
   1.7715223  71.5029144  57.7551498   2.3928099  70.8589249  58.9759140
  31.8774300  12.9855509  87.5693207  32.7730522  12.8833227  87.8912582
  31.9775314  13.1554384  86.6326523  23.3202839   7.9891791  81.1220398
  24.2655258   8.0601311  80.9889374  23.2173309   7.9083538  82.0702515
   6.8294163  34.8110161  19.1706753   6.5509944  34.9815559  18.2708817
   6.0662084  35.0335464  19.7038040  29.2370567  68.7107544  66.0412903
  29.6419907  69.5423431  65.7948608  29.6668167  68.4689102  66.8616791
  54.5483437   7.9776516   0.6574229  53.8259277   8.4917459   0.2967955
  55.2637253   8.6059713   0.7557907  66.3176117  65.2986069  42.1398506
  67.1888580  65.1670914  42.5138435  66.4567642  65.9121704  41.4184532
  35.3981819  59.2612877   3.0252891  35.4945297  59.4754028   3.9532452
  34.4654999  59.0745811   2.9181499  26.2368565  70.7243118  54.6222115
  25.8447590  71.5728226  54.8284111  26.2913589  70.7115173  53.6666489
  68.9869080  14.9058275  47.9015236  69.2437210  14.8787441  46.9798164
  69.6063995  14.3225727  48.3400078  61.8668785  27.4959202  34.9058914
  60.9932976  27.8433704  35.0857964  61.7322807  26.5546379  34.7958717
  62.3204994  69.9379501   3.6081545  62.2323112  69.2175217   2.9841022
  61.4883385  70.4075089   3.5510530  18.8766537  65.8156967  59.5571899
  17.9942284  65.5633621  59.2853775  19.0404472  65.3005371  60.3471375
  78.8893661  23.4573421  34.2481270  79.4074860  23.0248032  33.5693855
  77.9804916  23.3012981  33.9915504  15.2736444  66.8254013  75.4998550
  15.8109541  66.4371185  76.1903305  15.4447899  66.2832565  74.7297745
  73.2896881  36.0105057  27.2751312  73.0297089  36.4223480  28.0991631
  72.4637527  35.8325958  26.8252430  24.4146252  34.9574318  51.6982269
  23.7263947  34.6249847  52.2744637  23.9863033  35.6412888  51.1833382
  14.8880348  64.9182968  56.9576073  15.0126333  64.4002380  56.1624222
  15.6109791  65.5456161  56.9505005  63.7137642   5.9020967  39.5711823
  63.1203842   5.4461546  40.1680489  64.0121460   6.6649346  40.0664406
  80.4769821  19.9795361  49.6719208  79.6279297  20.3826752  49.4907532
  80.8333893  19.7731667  48.8078499  16.2322006  45.8367043  26.2296371
  16.5521259  46.4582520  25.5757599  15.7069826  45.2120247  25.7294846
  47.5449677  64.9272232  31.1130524  48.0661240  65.5348816  31.6378193
  47.4703560  65.3519211  30.2584820  67.7712326  41.2872086  22.2451801
  68.0797577  42.1845207  22.3711739  66.8910675  41.3853416  21.8819790
  11.9732037  54.8866196  63.3446159  11.0458651  55.1232834  63.3609161
  12.0529928  54.1859741  63.9918861   5.1419377  18.5774956  84.2685776
   4.3344646  18.0636997  84.2838669   5.4828310  18.4615688  83.3816757
  73.1082077  52.2843628  19.8309822  72.7349472  53.0892868  19.4718075
  74.0000458  52.2584076  19.4843025  45.9886894   0.4168876  14.1777840
  46.6323967   0.8286622  14.7542496  45.7041740   1.1208563  13.5949373
  22.5910301   1.2952613  45.1235123  22.2405319   1.9573847  45.7193108
  21.8168983   0.8996500  44.7229576  57.2735710  38.4265747  47.0726280
  56.6498680  37.9921074  47.6544075  58.1323395  38.1958351  47.4268990
  61.3066483  71.5067673  30.5690784  60.4150200  71.8523254  30.6117249
  61.5491104  71.5828171  29.6462231  63.0419006  24.9512787  84.8759995
  63.4247665  25.7875500  85.1411362  62.9514427  25.0198803  83.9255600
  44.4910316  21.1530132  87.0105286  44.9504395  21.7494221  87.6016922
  45.0083694  20.3479710  87.0328674   0.1107909  66.6487808  64.2901230
   0.6282715  66.5449371  63.4915848  -0.6277782  67.1979675  64.0271912
   8.5483961  14.3259201  15.2102947   8.8100462  13.5395079  14.7314148
   8.6651802  15.0387554  14.5822344  24.0511475  58.4315720  50.7683640
  24.4393387  57.6669502  51.1936836  24.6458340  59.1511116  50.9801178
  85.9373856  68.2320023  60.5582542  85.3633804  67.4681931  60.5003853
  86.8010101  67.9019241  60.3103905  85.1538239  57.7857780  73.6683807
  85.1008835  58.4394455  74.3656235  84.3510132  57.9100380  73.1621246
  20.4358463   7.2204757  65.2321091  21.1102829   7.7383337  64.7925797
  20.3946915   7.5825977  66.1172104   6.0433311  13.0767975  78.0628586
   6.5908566  12.7411699  77.3530655   6.6637950  13.3160381  78.7513504
  48.0655403  12.2168093  74.0340118  47.6054611  12.1228800  74.8681259
  48.9381981  11.8604002  74.2003632  67.3935623   3.4827840  47.1440239
  67.4918747   2.5449629  46.9795303  67.3694916   3.5573926  48.0980110
  23.2798080  59.6043816  64.6587372  22.4474621  59.9632835  64.3511353
  23.4655590  60.0868301  65.4643250  69.2515640  49.8905220  59.9467545
  69.5720978  50.1828384  59.0935020  69.1247406  50.6982231  60.4445152
  33.7687721  36.1950912  53.0154190  33.4317017  35.5264587  53.6116943
  34.6323662  35.8726730  52.7575684  60.7868042  31.5289707  34.8145752
  61.3368340  31.7498150  34.0629578  61.3972435  31.1788731  35.4634438
  69.4946671  61.6884384  79.9562378  68.9560699  61.2066269  80.5839310
  70.3224182  61.2083168  79.9327240  59.0233688   6.7494993  22.4450130
  58.3479691   6.1436896  22.7500782  59.2489586   7.2660208  23.2186699
  10.6815462  62.9558144  75.2826385  11.2828989  62.3087158  75.6512375
  10.2898750  63.3807716  76.0456848  86.6798859  37.7394600  45.8959808
  87.3531799  37.0591507  45.9049568  86.1805725  37.5928879  46.6993713
  77.5966873  34.6617165  26.1064930  77.2855682  33.8427963  25.7207394
  76.9059296  35.2953796  25.9126987  71.8636246  49.8917313  12.8619747
  72.4198456  50.5780487  12.4934349  71.4323502  49.4995232  12.1027594
  59.0766373   9.5339422  57.1946754  59.8544350   9.1756420  57.6223297
  59.0698357  10.4578056  57.4449997  73.2988281   3.7085621  86.5704803
  73.7437897   3.4507985  87.3778229  73.0655441   4.6266289  86.7081985
  42.7439766  26.6206989  32.7471161  42.6270332  27.4841747  32.3509293
  42.1962509  26.6410694  33.5318527  84.8949280  36.4239311  69.1791382
  85.7531204  36.3633499  69.5987473  84.5644684  37.2856483  69.4330444
  33.6284180  12.8218479  65.1917191  34.4218369  13.2058983  64.8186035
  33.3344307  12.1924534  64.5331879  29.7828770  63.2815781  59.4988060
  29.8584633  62.3413696  59.3359299  28.9235325  63.3855515  59.9073982
  25.6408424  50.7196007  32.0904350  26.2442589  50.1610031  31.6004467
  24.7798080  50.3276100  31.9448452  40.8708344  64.0903625   4.1151237
  40.1896133  63.4511719   3.9063153  41.4666901  64.0585022   3.3666778
  82.1210709  51.0692444  74.4155121  82.0869827  51.0413284  73.4593277
  82.4683456  51.9380493  74.6175308  73.0778656   6.5318069  86.3580551
  72.8822250   6.9211679  87.2103195  73.9154358   6.9194541  86.1042175
  33.0888977  54.1452866  20.7750702  33.8294716  54.6820412  21.0573406
  33.4726334  53.5022583  20.1788387  53.9576797  66.8665695  73.2303772
  54.3471298  66.0083084  73.3975677  54.6708565  67.4868011  73.3817978
  14.6187086  69.7825851  89.2467651  15.2643366  70.3696136  88.8533325
  14.0863113  69.4835510  88.5096359  16.3267708  11.8516703   2.0962563
  16.9604702  12.4287682   1.6700920  15.7078648  11.6221275   1.4030775
  29.3402748  39.9960632   0.5835746  28.4573135  39.9409752   0.2180908
  29.5699005  39.0906258   0.7925829  61.6260605  24.3713455   9.2957335
  61.1781273  23.5939331   9.6292276  62.5371094  24.2574081   9.5663605
  69.1271896  15.5289421  77.2761154  69.5928574  14.9490061  77.8786621
  69.1578445  15.0742874  76.4343414  83.2228851  10.1953030  51.3700333
  82.5977859  10.7371197  50.8884583  83.8585205  10.8184109  51.7220688
   0.6495116  39.9624596  74.9555054   0.8834550  40.3576927  75.7953262
   0.3532394  40.6977348  74.4190140  72.7102356   4.2111101  19.5378819
  71.9848938   4.6978035  19.9293423  73.1917648   3.8565333  20.2852993
  11.4479094   6.4125071  77.9645081  11.3663759   5.5764327  78.4233856
  11.5844851   7.0553565  78.6604462  34.1733971   9.1472044  79.0182495
  33.5887909   8.5703754  78.5265884  34.9779587   9.1707935  78.5002213
  21.0142155  65.5250931  28.8415260  21.2835312  66.3336868  28.4057674
  21.1433601  65.7008286  29.7735500  40.5604858  49.1773300  12.5190325
  40.7029305  48.2342453  12.5998392  41.1788063  49.4559402  11.8435411
  77.8674850  32.4604416  75.3880081  77.7867966  31.5222645  75.5598907
  77.6337662  32.5557480  74.4646835  82.5546570  64.5641251  34.5565948
  82.8792267  65.1222076  35.2633018  82.5819092  65.1219177  33.7791901
  11.4818830  41.7780876  34.8552246  10.9198532  41.0214958  35.0223198
  11.5542374  42.2147942  35.7039185  44.0944519  53.6331139   3.3973901
  43.6771202  54.0523376   2.6448503  45.0329018  53.7224159   3.2313557
   0.6998049  51.6047096  22.6783791   0.5378855  51.6532021  23.6205368
   1.5402863  52.0463333  22.5567570   3.5131605  26.9308338  71.4990997
   4.3916345  27.2978344  71.5982285   2.9335604  27.6925983  71.5024872
  15.1041527  31.6610451  52.6951485  14.3035860  31.2950993  53.0711899
  15.6965218  31.7578297  53.4407806  34.8913460  67.3317108  34.5480385
  34.7871704  67.6743546  33.6603584  35.0437431  66.3945465  34.4266815
   2.3228221  26.8241997  67.6364746   1.4835116  27.1835938  67.9239273
   2.1366057  25.9051819  67.4442215  58.6382217   9.5842237  34.3363075
  59.2855034   9.1565485  33.7756348  57.9106026   8.9637251  34.3785019
  62.7283325  36.9467354  72.2996521  62.6412201  37.2057037  71.3822784
  63.2583923  37.6390076  72.6946487  26.0058117  31.1798897  78.6337357
  26.2527733  31.3681870  79.5391541  26.6768188  30.5715694  78.3240128
  85.1456680  27.5434608  53.6224747  84.3044357  27.1044197  53.4967766
  85.6405792  27.3449478  52.8275604  10.7680893  59.4999657  47.7892570
  10.1686134  60.2139397  47.5722351  10.5785141  58.8224144  47.1402435
  48.1354332  49.6616478  18.6613464  47.8756256  48.7470284  18.5508595
  48.3394775  49.7417946  19.5931053   9.3355885  39.4682198  31.2173595
   9.3960695  38.7056465  30.6419849   8.9748545  39.1238098  32.0343590
  69.0773544  39.5904884  23.9804592  69.7608185  40.0982971  24.4177704
  68.5652008  40.2414665  23.5007114   0.6184835  60.7532654  69.0323257
   0.9921414  60.8288193  69.9103394  -0.3067027  60.9707222  69.1462326
  47.4010887  54.4184418  38.7591171  47.6079330  54.4656181  37.8257256
  47.3670464  53.4810486  38.9498177  72.8102570  52.4792671  52.0688553
  73.0988770  53.3643303  52.2915649  73.2233124  51.9199944  52.7267570
  72.5415726  48.1747017  37.3424072  72.2910080  47.4837799  37.9556618
  71.8355103  48.1890602  36.6962662   1.2226313  62.2522163  56.2293968
   0.7893398  61.4309082  55.9971428   0.6292803  62.9337006  55.9135666
  11.8489752  35.9920197  13.0808811  12.3769913  36.5707321  12.5308609
  12.4863434  35.5390663  13.6329947  85.4724579   1.6346442  15.7200089
  86.4115753   1.6127607  15.5361261  85.3701019   2.3388267  16.3602295
  62.7659187  45.1635170  35.9164314  62.2271729  45.0919189  35.1284828
  62.8211594  46.1042900  36.0841370  66.6982956  54.3580093  84.5779343
  66.7931747  55.1042252  85.1698761  66.7284393  53.5921249  85.1512985
  78.6986542  12.4154415  83.5469284  78.4068604  12.5001736  82.6392288
  78.0268631  11.8769445  83.9651947  20.4600086  48.6973152  20.6781902
  20.4326687  48.4758339  21.6090126  20.9688950  49.5071144  20.6395264
  44.3989105   4.7270188  12.8136177  44.9103432   5.3354816  13.3469477
  43.5414162   5.1441183  12.7301807  11.0620852   2.4453287  75.2369766
  10.2171965   1.9971815  75.1974945  11.0578270   3.0315955  74.4803391
  76.3894119  70.3311234   4.0130482  76.3006134  69.4279175   3.7088175
  75.4913559  70.6600418   4.0522532  66.3573380  64.1619873  11.7376719
  67.0154495  63.5797844  12.1173534  65.5283890  63.6997757  11.8619432
  50.1376953  50.7038803  10.2941017  50.9837379  50.4288139  10.6473455
  50.0132217  50.1577263   9.5179234  18.7461605  24.9668427  67.6484528
  19.2816963  24.4068699  68.2104645  19.3536854  25.2889729  66.9825821
  70.6385956  53.3874512  75.3378830  70.2246017  52.8145370  75.9833374
  71.5693665  53.1693268  75.3860779  15.6574421  51.3869858  43.4866638
  15.6569700  51.2988548  42.5335312  15.0220528  50.7374001  43.7875748
  75.4502640  40.0402565  88.9147644  75.5801239  40.8228493  89.4504166
  76.3198471  39.6448708  88.8536148  33.5503044  44.9071579  56.7374077
  34.0025520  44.6083527  57.5263443  34.1177902  45.5902481  56.3802261
  27.4691696  58.0107155  44.2634010  27.7434464  58.6561813  43.6119537
  28.1637840  58.0249062  44.9218407  59.3454285  65.2697525  66.5418167
  60.0532455  64.6330032  66.6407318  59.7571945  66.1152344  66.7202301
  28.8593559  43.1328392  87.3215637  29.7194061  43.1510658  87.7413406
  28.2506008  43.3976517  88.0111389  30.9623470   1.9420415   0.1661363
  31.3962975   1.0927957   0.0842715  30.5917473   1.9375554   1.0486704
  15.3933382  45.5202141  19.9446526  15.1003036  46.3556328  19.5807285
  16.3369732  45.5070686  19.7846203  29.4876194   4.6492710  38.1531868
  29.5192299   3.8546534  37.6204453  29.9292469   4.4092169  38.9677849
  84.0827637  52.9112740  27.3415661  84.1941681  53.6198463  27.9754028
  84.0586929  52.1157761  27.8733883  63.2172813  34.2929039  64.7479401
  63.7418518  35.0320396  65.0557251  63.4835167  34.1733971  63.8363113
  60.9658508  16.2479515  23.2253304  61.2446365  16.0310459  24.1149731
  61.6603470  15.9009752  22.6654034   3.1216264  37.1225433  35.4853249
   2.5619626  36.6062317  36.0653534   2.5595727  37.8357773  35.1826286
   0.4922378  69.8357697   7.2648158   0.7177818  68.9097900   7.1758146
   0.7399546  70.2243271   6.4258361  -0.0518782  19.1551056  54.6108322
   0.1262109  20.0808315  54.4448586   0.7954774  18.7242947  54.4984856
  34.0699463  39.0790977   9.3262663  34.1635704  39.2868958   8.3965969
  34.3917732  39.8583717   9.7794647  67.0972443  40.7784958  41.4512825
  66.9987488  41.6675568  41.7920227  66.4287109  40.7077103  40.7699013
  84.5898590   5.4744258  55.7683334  83.9602127   5.1470847  55.1259804
  84.9363708   6.2762899  55.3769569  20.9410419  66.3125992  64.7052231
  20.8825264  67.1315231  64.2131042  20.0509224  66.1595383  65.0222244
  39.3288345  70.6456833  37.6084824  39.9473991  70.8475266  38.3105278
  39.5597153  71.2515335  36.9043045  35.8045540  41.6488686  84.5660019
  35.2442780  41.9017410  85.2997437  36.4839935  41.1022606  84.9607391
  85.5007553  67.9024506  79.5986481  86.2865219  68.0032120  80.1359024
  85.1973648  67.0133896  79.7823868  79.9549942  40.2804565  32.8818779
  79.2079391  39.6922226  32.7717781  80.7108688  39.7618065  32.6064034
  54.0298920  41.4440842   2.6538932  53.9762039  42.3473969   2.3418381
  54.5631485  40.9953232   1.9977819  53.0365906  62.4250908  79.6725464
  53.3194351  61.5462570  79.4197998  52.9064369  62.8829117  78.8420639
  39.4007721  50.4846649   8.8306303  38.7686119  50.5097008   9.5489454
  39.0787392  51.1340065   8.2054243  47.6072197  33.3535957  10.2165222
  47.9375153  33.9098091   9.5109978  48.0749931  32.5256004  10.1076965
   9.0377808  15.9538279  80.9448242   8.3704786  15.3855286  80.5601425
   9.7867393  15.3767595  81.0941086   8.0092993  62.9021568  71.1961060
   8.4933729  63.5168190  71.7475586   8.0614843  62.0685692  71.6636963
  57.0609207  28.6446896  53.5804214  57.9424896  29.0014992  53.4720078
  56.8403702  28.2858982  52.7208557  79.9808731  52.9736137  73.0283661
  80.8019333  52.7473488  72.5914459  80.1863708  53.7618484  73.5310516
  51.4985046  45.5752296  33.9522400  51.3899956  45.4419746  34.8938904
  52.3151779  46.0681190  33.8726349  36.9009056  25.4732208  78.9869843
  37.6379051  25.7264347  79.5428162  36.7098122  24.5698986  79.2394104
  41.0121613  15.4598265  11.2171488  40.7145844  16.2086658  11.7337894
  41.1742783  15.8197231  10.3451262  42.3876839  62.0088921  14.9073601
  42.5223351  61.6903000  15.7998838  43.2383270  62.3635063  14.6487408
  17.5809879  16.2242622  80.5748215  18.4175339  16.2418842  81.0397034
  17.5079269  17.0932617  80.1801910  56.7889938  33.2047653  32.8978157
  57.2739029  32.9960632  33.6962776  57.4654541  33.3255730  32.2314491
  54.3293571  34.0728951  29.5068169  55.0414238  34.7118683  29.5369205
  54.0582619  33.9732132  30.4193974  37.8982239  33.5689049  51.8521080
  38.5411110  34.2647209  51.9891090  37.3533249  33.8847847  51.1313210
  43.4270668  20.3025837  60.2454910  44.2546463  20.6040268  60.6202927
  43.6000214  19.3999844  59.9778519  27.5013046   6.1650357  81.8145142
  28.3479977   6.5994148  81.9177475  27.6853085   5.4120455  81.2529297
  46.6776314  49.3213310  36.7659492  46.9699135  48.4143524  36.6754265
  47.2173004  49.6775780  37.4716949  80.6831894  53.1134148  76.7967300
  80.7656250  53.8893318  76.2423096  80.1485977  52.5078163  76.2832260
  11.1927147  63.6478577  67.7082520  10.3783846  63.2175026  67.4476852
  10.9862890  64.0646515  68.5448532   2.5879035  22.8406029   4.2549672
   3.1423674  23.5473423   4.5856028   1.6951084  23.1253910   4.4500165
  18.8724957  22.2929230  86.4764938  18.5662689  23.0717850  86.9410782
  18.0929623  21.7444134  86.3887558  18.8544388  57.8684158  40.2774429
  18.9472027  57.6662941  41.2084503  18.2215061  57.2268257  39.9549713
  22.3909874  59.0746574  23.1494274  22.3487968  59.0434685  24.1051884
  22.9374962  59.8369751  22.9585552  41.5625877  52.7742615  86.1531982
  41.4902229  51.8662529  85.8590622  42.1289635  52.7320213  86.9236908
  66.5492401  63.6113853  23.2557201  67.1838303  63.6689301  23.9700146
  66.0418549  64.4204712  23.3203430   6.7115526  40.3039093  20.3256683
   6.7635059  40.7916527  21.1476421   5.8108373  39.9814110  20.2950497
   1.9172246  28.7533741  58.2001419   1.1953940  28.2305851  58.5492592
   1.5551957  29.6354485  58.1157990  43.5956612  58.3801079  74.0223160
  43.7145653  58.0192451  74.9008789  43.7223244  57.6330795  73.4373932
  67.7319336  -0.0330935  60.9924850  66.8874054   0.4028687  60.8787003
  68.1540985   0.4451030  61.7061653  35.7852936   3.9804139  58.5653839
  35.2903023   3.9691763  57.7461853  35.7473106   4.8917365  58.8556938
  59.7060127  14.6096487  84.7812500  59.6147842  15.0076923  85.6469727
  59.2335587  15.2006168  84.1949234  80.8729858   4.2106128  82.2369843
  79.9412308   4.3699226  82.3875961  81.1024475   3.5227790  82.8618546
  22.8045387   1.0833811  57.8839340  22.5652695   1.7781456  57.2705154
  22.6379356   1.4592305  58.7483482   0.8668420  10.3529510  36.6838493
   0.8699863  10.4538174  37.6357155   1.5515658   9.7072992  36.5091515
  16.1988678   8.1894398  72.9379501  15.7979012   8.3246775  72.0793686
  15.6368389   7.5433712  73.3656769   4.9351215  16.5075226  59.9202385
   4.9044380  17.1184444  59.1839867   5.8013468  16.6399384  60.3054047
  54.2478790  35.3591652  43.0628548  53.3571167  35.2836685  43.4050179
  54.6232109  36.1030159  43.5340729  51.6000328  42.2489319  14.1060972
  51.4710693  41.5633125  14.7614803  51.3263168  41.8467827  13.2817249
  63.8262444  68.5747910  68.2294769  64.5288620  69.2193527  68.1452103
  64.2537155  67.8011780  68.5969467  80.5470963  52.3941574   9.6473303
  81.3683395  52.0568657  10.0051460  80.2747345  53.0696297  10.2684507
  63.8103714   3.6663435  43.7157326  63.7451668   3.0452363  42.9903336
  64.7467499   3.7112927  43.9091263  44.0177803   7.7450438  60.4422150
  44.2314873   8.1923237  59.6233749  44.8157158   7.8114657  60.9667320
  56.9418564   7.9512258  26.0303650  57.4943733   8.6619415  26.3556957
  56.2764282   7.8354840  26.7086296   0.9570946  43.9986687  45.7878380
   1.1123850  44.7806778  46.3175354   0.0038682  43.9196434  45.7511482
  22.7040443  51.8689384  11.4395103  21.8605404  51.8599854  11.8918934
  22.7580738  52.7419701  11.0507517  56.8737183  28.6264420  44.1847687
  56.2034340  28.1412144  44.6659164  56.4286118  29.4206066  43.8891068
  11.7676630  49.5926094  61.6779404  11.8678484  50.4357491  62.1198845
  11.2646666  49.7940674  60.8888664   4.5465131  49.2905273  40.5787926
   4.6291394  48.7689781  39.7804260   4.2656193  48.6642876  41.2459908
  38.6255379  54.1622620  50.0375595  38.4488869  54.4071388  50.9458885
  39.5632362  53.9709129  50.0191116  63.5255280  38.4221001  78.0691605
  63.2794037  37.5321503  78.3214340  62.9560928  38.9856720  78.5929565
  64.6148758  45.9920731   2.2497115  64.0755310  46.3721733   1.5562670
  64.1408768  45.2047424   2.5174227  29.8599110  34.3305893  60.4484940
  30.2271137  34.7791824  61.2101746  29.9954414  33.4005585  60.6299019
  15.4575214  54.6668396  58.9767990  14.5706205  54.7814980  59.3181076
  15.9180441  55.4657898  59.2333717  56.8810883  17.9696217  74.3049774
  56.1150093  18.0723476  73.7403488  57.2467041  17.1195126  74.0602875
  73.1095276  46.4182014  79.0235596  73.4052505  46.2582626  78.1273499
  73.8943405  46.3019485  79.5590897  16.7515602  59.4586449  20.6038876
  16.9858608  59.0957336  21.4580708  15.9107027  59.0524940  20.3935757
  34.7167854  57.3908691  62.3214569  34.0189705  56.7378883  62.3753204
  34.4367905  57.9836502  61.6240005  43.3486061  40.1555290  25.8482838
  44.0968285  40.0024567  26.4253178  43.6795082  40.7573624  25.1815529
  32.0456657  13.9814425  69.2920151  31.3030472  13.7328014  69.8424072
  32.7427368  14.1947403  69.9123535  63.6176224  12.5508986   2.5524516
  63.3662529  12.9436092   3.3884075  64.2440262  11.8665447   2.7880542
  60.5817947  35.6415558  76.0568695  60.5910339  35.7138748  75.1024475
  61.4343987  35.2662125  76.2768860  30.2534332  51.5117188   0.7657849
  30.6517410  52.3606834   0.5738428  30.9928722  50.9058876   0.8150496
  51.0624886  64.4884949  34.8965454  50.8018494  64.0372620  35.6994705
  51.9038124  64.8916626  35.1106911  67.7330475  18.2101593  55.1107521
  68.5354538  17.8490639  55.4875488  67.0284042  17.8147240  55.6239204
   0.9481966  23.8798256  39.2447166   1.3587378  23.8969383  40.1092339
   0.3295592  23.1506691  39.2877388  76.9439621  48.2733116  75.9636688
  76.7183685  49.2022858  75.9152527  77.9010391  48.2586784  75.9586411
  77.1183167  32.5998917  78.2858429  77.6777573  31.8633518  78.5323410
  77.0007553  32.5055122  77.3405838  79.5782547  42.1118431  85.2619705
  79.9810257  42.8889160  85.6494751  78.8129425  42.4465752  84.7945557
  26.5865288   9.7818699  54.1644974  26.5368843   9.2348280  53.3805885
  27.0044098  10.5898809  53.8666306  60.3004227  21.3473206  65.3052673
  60.6659355  20.5007515  65.0484543  60.5864639  21.4669113  66.2108688
   7.6402192  18.7906075  28.5706253   8.4141541  18.5485859  28.0620174
   7.6996670  19.7418442  28.6591988  48.0162086  54.0642357   4.4966254
  47.2537537  53.6551819   4.9059811  48.2965050  54.7303619   5.1242738
  55.8130989  63.8605003  80.6134872  55.0339851  64.2949066  80.2663498
  55.4727249  63.1043472  81.0916214  64.7972107  15.3583937  62.4760780
  64.8445358  14.5439825  62.9768028  65.4321671  15.2422285  61.7692719
  75.0663223  50.1191444  80.6054001  75.4778366  50.6777878  81.2648010
  75.7980804  49.7713394  80.0957031  71.5344772  20.0712471  67.7503510
  71.6644211  20.7715530  67.1108856  70.6813507  19.6987305  67.5275497
  41.0082703  -0.1787082  20.7503242  41.8709412   0.1809457  20.5437374
  40.6509628   0.4184267  21.4075871  69.0673752  52.4494781  44.2467575
  68.3560562  52.2808151  44.8646622  68.6872177  53.0445366  43.6005249
   8.5892572  42.4080811  18.2502117   9.5048771  42.4981651  18.5143261
   8.1053600  42.3636208  19.0748920  13.8012400  20.2050037   0.3422453
  13.2675943  20.7811737   0.8894941  14.2769470  20.7990799  -0.2382790
  15.4852934  55.8162880  70.7729263  14.8572559  55.3712883  70.2039108
  16.3192425  55.3811493  70.5956802  34.7640991  61.4210701  44.0108910
  34.7221832  60.7337875  44.6758080  33.9203415  61.8684540  44.0753365
  74.1639328  38.3444290  49.5725060  73.9974060  38.0319710  50.4618111
  74.0548477  37.5691071  49.0218658  52.5943146  52.2994576  54.1535835
  53.0199089  51.4489174  54.2616692  52.2242470  52.4932785  55.0148163
  67.6113510  42.8127899  49.0256767  68.5390549  42.9573631  49.2119446
  67.2075195  42.7083206  49.8872108  80.1787949  10.0330524  62.5079575
  79.3151627  10.4281721  62.3885841  80.0158005   9.2596807  63.0479202
  23.0123959  31.8500576  85.3950958  22.1320438  31.9672699  85.0380630
  23.5792599  31.8061104  84.6250534  51.0718079  68.1700974  57.5801353
  51.1687775  67.7007599  58.4087181  50.6277275  68.9843979  57.8166618
  39.1448860  37.8266449  85.4885635  38.8628006  38.5223351  86.0824280
  40.0951881  37.9281120  85.4350433  52.7550926  22.8245373   2.0727000
  52.2438126  23.4365101   1.5432556  52.2729301  21.9994793   2.0176790
  72.0348282  16.1962566  45.8101730  71.5761642  15.7036238  45.1296043
  72.3678131  16.9728661  45.3604698  76.3048477   9.7265100  60.9800110
  76.5409546   8.8543186  60.6641502  75.5252228   9.9606800  60.4764404
  55.6037064  24.2009468  26.6416607  54.9311943  23.6657333  26.2203465
  55.9373894  24.7614574  25.9411488  53.8918724  70.0997772  53.2145882
  54.8233070  69.8823700  53.2518692  53.7474823  70.3807602  52.3110199
  38.1424065  69.5599289  34.7230721  38.2414284  69.2337418  33.8286324
  37.8136444  68.8087616  35.2169304   0.8539682  17.7091064  36.1054993
   0.1927480  17.3104897  35.5397034   1.6314625  17.7805328  35.5517540
  54.5036240  67.3140945  27.1005554  54.9370613  68.0071411  27.5986042
  54.5721855  66.5393982  27.6585732  55.7809448  45.1870995  17.9009933
  56.5052376  45.0439453  18.5102062  55.4987831  46.0857735  18.0713043
  55.0585136  61.1580086  69.8357391  55.1751976  62.0185661  70.2383041
  55.1385117  61.3204422  68.8958206  11.5464859  39.3764839  25.4688168
  12.3492365  39.2180252  25.9655190  11.8398933  39.4682236  24.5623245
  43.5091400  21.9325390  84.6832809  44.1163635  21.8150711  85.4138336
  44.0248833  22.3805676  84.0128250   7.4222136  58.1635056  53.0857086
   7.3247313  58.6578865  52.2718773   8.0138502  58.6943398  53.6190109
   6.6289668   9.5310917  20.6669769   7.1534901   9.1858358  21.3894062
   6.7293415  10.4808807  20.7306633  84.3984909  35.0806656  80.4658737
  83.4881363  35.3763771  80.4719925  84.7295990  35.3424759  79.6067734
  55.6351967  70.9007797  10.9858942  54.7954369  70.4618301  10.8504248
  56.0389214  70.9185028  10.1181822  30.5845833  31.9802761  13.4012184
  29.8280354  31.6693459  13.8983984  30.4933758  32.9331131  13.3971987
  27.2367020  14.9335241  15.9537191  27.8170147  14.3522129  15.4622488
  27.1687489  14.5289154  16.8185349  81.8640060   3.0644772  35.1081238
  81.8940964   3.8669910  35.6289864  82.7779694   2.8906872  34.8829384
  83.0028839  65.9807281  32.1695442  82.7259979  65.7497482  31.2828598
  82.6118393  66.8402328  32.3263168  62.0972557  24.8346558  64.6078262
  62.8076973  24.5382366  64.0389328  62.2437820  25.7757263  64.7034683
  45.2826424  10.5353870   6.0210314  45.9748116  11.1633673   6.2278476
  44.9840736  10.2186413   6.8735332  56.5511360   0.4565761  27.9211140
  55.7101288   0.9058866  27.8370953  56.8096237   0.2617090  27.0203133
  70.1818695  15.3947258  16.6477356  70.8010101  15.0936537  17.3127556
  69.5716629  14.6650438  16.5407543   9.0294065  32.0308304  61.0766068
   9.9643192  32.0030136  60.8731499   8.8813801  32.9188385  61.4018211
  53.8698845  10.2447319  39.8676338  53.5767670  11.0298891  40.3300667
  53.1974831  10.0928612  39.2035179  59.1095581   7.4793839  51.5045509
  58.9464912   7.7279878  50.5946960  60.0574837   7.3555384  51.5527992
  77.2044601  19.7163696  27.0395279  76.9438248  20.0719604  27.8891506
  77.4556046  18.8115997  27.2254047  37.8793030  60.3080521  10.1952190
  37.5319977  59.6089325   9.6412849  37.6913605  61.1124725   9.7116728
  36.0877647  66.2529907  81.5370560  36.5011177  65.9562988  80.7262878
  36.2288780  67.1996918  81.5453262   1.2977180  50.9002380  18.5091610
   1.3146875  50.9096451  17.5521564   1.8876308  50.1866684  18.7521687
  14.5984707  53.9457779  14.2835636  14.7395477  54.5303917  15.0282507
  13.7801189  53.4926186  14.4864855   4.2935843   3.8606024  60.8513031
   3.9219337   3.7401369  61.7251396   4.6081157   4.7646413  60.8473434
  33.0888062  42.5251617  17.5483589  32.8824577  41.8035202  16.9543171
  32.4555359  43.2074432  17.3254356  58.2119446   6.6025791  71.3431702
  58.8528938   7.2448483  71.6479721  58.7261581   5.9713445  70.8398209
  83.4183578  55.8291664  62.1590157  83.0114670  55.3248672  61.4544907
  82.6882019  56.0864410  62.7219620  66.6277542  33.5820389  32.9224014
  66.5736313  33.1209297  32.0853310  65.8109055  33.3620605  33.3702812
  13.0289116   0.5838599  27.8392353  13.5459442   0.8940605  27.0958080
  12.2060213   1.0689366  27.7777233  56.0330276  10.2563028  78.3213730
  56.5472870  10.9034014  77.8386383  55.6242905  10.7547312  79.0289993
  78.6031723  39.5927429  71.0299225  78.0831680  39.1527481  70.3574448
  77.9856415  40.1824265  71.4625397   3.4323394  48.0065994  42.7961006
   2.5775092  47.6871414  43.0849686   3.6856780  48.6472511  43.4606400
  30.9841137  49.0670891  31.0438919  30.9520664  49.8382225  31.6100731
  30.8532600  48.3281097  31.6380444  80.5474167  20.4081421  72.9748764
  79.7220688  19.9556026  72.8009796  80.4827271  20.6810474  73.8900681
  13.9049358  12.9926214  77.3569946  14.4097881  13.7745485  77.1335144
  14.2152929  12.7482347  78.2288818  65.2228622  11.2405434  75.3053207
  64.4168320  11.7561531  75.3316574  65.0970688  10.5652161  75.9719086
  73.1805878  20.9788876  16.0620041  73.4305344  21.8763351  16.2818775
  73.4272537  20.4661465  16.8317337  23.0961094  17.4662037  -0.0999337
  23.8988380  16.9617710  -0.2318672  22.7144642  17.1042023   0.6997754
  14.2149763   4.2795925  67.6542892  13.3893213   4.5826635  67.2765656
  14.7372437   5.0750418  67.7578735  71.2720642  23.0698090   6.3537221
  71.8595810  23.6973648   6.7747049  71.7276306  22.2309036   6.4238977
  79.2118225  45.2387428   3.0076694  80.1057663  45.5800552   3.0322194
  79.1011200  44.7964439   3.8493044   3.8757403  43.0302582  76.8089676
   3.9525886  42.1110382  77.0646133   4.7194395  43.4158516  77.0450211
  83.7988739  54.7117767  80.1564026  83.2321548  54.3906898  80.8578033
  84.6793060  54.4414635  80.4171677  58.4015465  26.5490265  29.6529884
  58.4358406  25.6226330  29.8914204  58.6627197  26.5692158  28.7323284
  60.3870544  52.2790260  64.8776703  59.5811195  52.4291153  65.3718033
  60.1162796  51.7368546  64.1367493  52.7558594  20.6248741  23.8466187
  51.9466438  20.2925014  24.2351131  53.0563011  21.2975197  24.4577770
  56.9060059  66.2361450  46.5152931  56.4593048  66.6865311  45.7984619
  56.3459435  66.3843765  47.2772598   3.6738834  15.7708187  85.9278336
   3.2415497  14.9206982  86.0091553   3.2312672  16.1952896  85.1928864
  29.7502632   7.5369277  81.7867508  29.7373943   8.2255936  81.1220627
  30.5834427   7.6588974  82.2419052  76.2980652   1.0021907  89.0361023
  77.1786957   1.1697203  88.7004623  75.8302078   0.6129119  88.2973175
   7.9340510  40.1810074  40.1402130   8.0412016  39.5367317  39.4404564
   8.8235626  40.3440552  40.4539299  33.3208389  46.4489746  59.8321495
  32.4857140  46.5961227  60.2761612  33.5543518  47.3043518  59.4715385
  80.8954620  43.2053566  65.4113541  81.4844818  42.9104500  66.1058426
  80.9133911  42.4986877  64.7659607  31.1693382  38.9028893  11.7814407
  31.7658501  39.3588142  12.3751907  30.3358917  38.8782730  12.2515421
   5.1752644  69.2921371  45.8960800   4.2183895  69.2875671  45.8715591
   5.4355993  68.6901779  45.1988678  69.3813782   3.1559374   9.0558538
  69.4735260   3.8588555   8.4126997  70.0938950   3.3050783   9.6773977
  51.9505081  21.0542927  73.7447357  51.0435028  21.2823944  73.5409164
  52.4144707  21.1509876  72.9131012  58.3030128   8.5228271  48.7717438
  57.3462715   8.5278664  48.8010025  58.5174980   7.9294529  48.0519257
  62.0063629  70.9993362  79.7837143  61.9390297  71.4906387  78.9649811
  61.1354446  70.6225357  79.9092484  27.5251217  58.4826279  56.3033600
  28.4303532  58.7858429  56.2337418  27.5647278  57.5549202  56.0709190
  55.8861046  47.5934792  18.8604527  56.2129250  48.3498726  18.3733273
  56.3710518  47.6121902  19.6855030  10.7063818  38.7945213  59.4338074
  11.1634951  39.4986115  59.8937340  10.8153324  39.0041046  58.5062103
  30.5653706  22.5257912  69.0539856  30.2484303  23.4195786  69.1840820
  31.3396721  22.6244965  68.4999619  73.3581619  61.1712074  78.5518494
  73.2175751  61.9724045  78.0473251  73.0714645  60.4678993  77.9692764
  40.0028648   1.7324274  -0.0998620  39.9191017   1.6188431   0.8468769
  39.8851395   0.8525897  -0.4579936  21.3913898  55.4959564  80.6396255
  21.8898659  55.2528992  79.8594513  20.8812428  56.2595596  80.3696442
  30.2212963   5.5215459  84.1563263  30.4154301   5.3056302  83.2442322
  30.6295433   4.8181381  84.6610870  37.0681458  13.4599838  71.5349884
  36.7917671  13.6345434  72.4346390  37.6016846  14.2182074  71.2969437
  46.3110580  63.5149078  19.0646572  46.4020386  63.4847946  20.0170479
  45.4258118  63.8486328  18.9190559  32.5385933  24.7883472  42.5739670
  33.1987190  24.2198792  42.9705887  32.7655411  25.6672001  42.8778496
  82.9328537   4.0169888  49.1031075  83.1290741   3.2763007  48.5294228
  82.4256973   4.6162863  48.5555077  29.7847500  41.1596909  27.2949142
  29.1405048  40.4524345  27.3260384  30.3496914  41.0025330  28.0514660
   6.8970613  34.3585281  75.8157806   7.0121908  33.9639854  76.6802521
   7.2888398  35.2282486  75.8953400  80.4017487  67.2559967   7.2627034
  80.7443848  68.1297455   7.4508538  81.1721497  66.6881332   7.2783151
  14.1994400  60.2924271  45.6667175  14.8022089  60.8143234  46.1963615
  14.2076511  59.4275360  46.0767517  81.9478455  12.7811012   2.8172197
  81.4394302  11.9845066   2.6649463  82.7338867  12.6694355   2.2825222
  25.5439034  43.3216820  20.3896637  24.7121410  43.7885895  20.4696636
  25.4957275  42.6315041  21.0511513  26.4119434  22.6088428  67.9295425
  26.1616631  22.6670170  67.0074692  26.6772194  23.4986076  68.1623077
  75.3292542  48.2847099  48.0427208  74.5328827  47.8287888  47.7703896
  75.5628357  48.8288002  47.2906303  72.2363052  42.9165993  20.5416145
  73.0499954  42.8499985  21.0413132  72.1068573  43.8570404  20.4189453
  58.9656868  38.8609390  57.6828575  58.5468254  39.7135735  57.8003273
  59.0310707  38.7549286  56.7337952  53.1707191  37.4262543  18.6506119
  52.8111191  38.3055573  18.5333729  53.9590874  37.5581474  19.1772156
  26.3480053  59.5616951  54.2094421  26.8582573  59.1390648  54.9002800
  25.6243629  58.9577599  54.0426025  85.8603210  16.5056744  11.5567760
  86.4435425  15.7748280  11.7615719  86.4095688  17.1218796  11.0721645
  15.6341763   2.3993263  50.3335152  15.3782740   2.2175980  51.2377968
  14.8062353   2.4496207  49.8557968  63.3684349  22.5919685  21.5167103
  63.9343910  22.6731739  20.7490292  62.4912682  22.7918472  21.1898212
  68.2628784  17.1860638  25.4639874  69.1155624  17.6202183  25.4380989
  67.6615295  17.8581886  25.7847023  10.1833878  63.1708260  50.4645462
  11.1143646  63.0937424  50.6732864  10.0474958  64.1069260  50.3179932
   2.0723774  37.2286720  16.4127636   1.9972205  37.1694183  15.4603596
   2.6748152  36.5236092  16.6498070  22.1310806  22.9136868  55.7784081
  21.4922848  22.5371323  56.3837013  21.8643589  23.8284435  55.6872368
  71.2448578  68.3609924  65.4955521  71.2798843  68.6963959  64.5997238
  70.3451080  68.5253372  65.7778244  80.6871262  66.6801987  41.6581573
  80.2728043  65.8277588  41.5243149  80.0330276  67.1924133  42.1335869
  82.7641983  45.7766380  43.7499428  82.3741379  44.9028931  43.7243652
  83.6427078  45.6574020  43.3890533   9.5072594  17.4030190  67.8942184
   9.3503590  18.2410374  68.3293533   8.7053537  16.9020042  68.0430908
  18.8240070  61.9981728  69.4916992  19.0297756  62.8049240  69.0194168
  19.4118309  62.0062828  70.2471008  61.9648056   9.4762793  47.1892052
  61.9303169   9.8141594  48.0841255  62.1213531  10.2495031  46.6471252
  34.2916718  65.3426971  46.3549347  34.8127098  64.7418823  46.8876305
  34.3423691  64.9830475  45.4693184  39.4042053  16.7615643   2.1359942
  39.2533760  16.4631004   1.2391101  40.2748604  17.1586380   2.1130564
  14.8724709  28.7080173  85.5097504  14.9287882  29.6330032  85.2700424
  15.7229605  28.5099735  85.9017639  25.2267532  19.1835556  39.9451141
  25.7296925  19.4932251  39.1918640  25.5345516  18.2883625  40.0869675
   9.6125622   6.5687165   3.0283144  10.2466545   6.1087556   3.5784004
   8.7772369   6.1410036   3.2167969  48.0395546  41.1596298  48.1962471
  48.2188110  41.4963341  47.3183365  48.7710533  40.5704956  48.3808022
   1.9308188  19.8390980  86.8571320   1.4263982  19.1048069  86.5069733
   2.0604546  20.4198151  86.1073380  52.1170158  15.2255287   2.6896844
  51.4632835  14.9195137   3.3183515  52.3489685  14.4451065   2.1863244
   2.7988734  33.4649963  43.3638306   3.3902366  33.9343185  42.7753906
   1.9914533  33.3622894  42.8600883  59.1586494  19.4634476  39.1128845
  59.7355423  18.8231144  38.6964722  58.4135208  18.9486656  39.4227524
   5.0654721  37.9944038  71.4853973   4.7660995  38.0584221  72.3923187
   4.4282689  38.5052948  70.9861984  39.0566292  46.6141663  18.0772266
  39.0745277  45.9806862  17.3598614  39.3208580  47.4408188  17.6734161
  81.1534576  33.3830681   7.4036274  81.2765198  34.1071320   8.0174837
  82.0406952  33.1394081   7.1396837   5.6131997  61.5611496  51.3044624
   5.2535076  61.2006760  52.1149635   6.4724965  61.9010277  51.5541115
  15.2566376  47.6423149  33.9495926  15.7864361  47.6767578  33.1531296
  14.6316185  46.9348831  33.7910957  42.2221985  51.4840126  41.4091072
  41.7664909  52.2384186  41.0357056  41.9202080  50.7398834  40.8882332
  11.0141659  53.0611000  24.9690990  11.1845112  53.1389580  25.9077950
  11.7328749  53.5386658  24.5548306  58.1921959  16.3793316   0.6897430
  57.5517159  15.8378639   0.2284060  58.8760338  15.7655134   0.9577444
   4.5978661  14.3432617  44.2013092   4.3661599  13.8500957  43.4143333
   4.2626376  15.2249870  44.0387878  57.1539841  25.5701866  80.7436295
  56.7546196  26.0759869  81.4513779  56.4170609  25.1351242  80.3147964
  37.0191040  57.5577278  75.2909698  37.2035027  56.9132652  75.9742661
  36.2520485  58.0328331  75.6105499  50.1853447  70.9503479  70.8124237
  50.6639671  70.8546829  71.6358337  50.5448036  71.7446518  70.4173355
  78.7735214  17.7385197  43.3708572  78.2396469  17.3292999  42.6898651
  78.6542282  17.1782360  44.1377220  33.5974731  69.5897217  65.6661377
  34.3829803  69.8463135  65.1830597  33.5724449  68.6356277  65.5932388
  61.5996552   5.3344755   0.4214513  61.1457329   5.9963179   0.9431292
  61.0310555   4.5655675   0.4627260  22.4726334  71.4197693   4.9354978
  22.3888168  70.9168777   4.1253710  22.7944889  72.2760468   4.6536527
   4.5100493  44.9887123  17.4289398   5.2420068  45.0546646  16.8156528
   4.8170052  44.3835182  18.1040325  65.6260300  41.5248604  20.6996555
  66.2765427  41.5906982  20.0005608  64.8658676  42.0007133  20.3650723
  78.1422501  67.7867508  52.0995941  77.1972885  67.6341553  52.1012840
  78.5004196  67.0654297  51.5822449  54.5310211  30.7913380   8.5105762
  54.1287689  30.0967674   9.0321093  55.2780190  30.3697796   8.0857115
   3.8250232  39.0743141   4.0748472   4.6934500  39.3861351   4.3294725
   3.9939244  38.2718582   3.5811162  47.3597527  43.7896309  62.6347389
  47.6642036  44.6258163  62.9873543  47.8285217  43.1294746  63.1453094
  70.7083664  69.6383209  39.9812965  70.8597107  70.1772156  40.7577782
  71.4409561  69.0223465  39.9707451  26.3432884  12.2032652  45.2302094
  26.0699482  12.1269217  44.3160477  26.2969990  11.3094082  45.5694847
  68.0322189  29.7168121  50.2662735  67.7965469  29.5061722  49.3627663
  68.6627274  30.4328117  50.1886330  49.1471596  45.2518311  55.7534752
  48.9418716  44.4785728  56.2789841  48.2998085  45.5463676  55.4195900
  38.6335678  57.0644951  87.1595764  38.5622101  56.9235458  88.1036453
  37.7434998  56.9386711  86.8306732  16.8696251  16.0471687   5.0541677
  16.5810661  15.2007790   4.7127166  17.5351086  15.8280487   5.7063565
  36.4268532  30.8884048   5.1651654  36.5106621  30.9870377   4.2167568
  35.4840546  30.9222088   5.3270998  74.9238815  11.7694359  57.0878792
  75.4507065  12.0625839  56.3444023  75.1420364  10.8425379  57.1853523
  80.7511520  32.0451813  87.7407608  80.9441986  31.5112076  86.9701538
  80.4976501  31.4127045  88.4130249  61.0349045  60.5538025  86.4290771
  61.3314781  60.1698112  85.6039505  60.7000809  59.8114243  86.9320679
   7.7113447  58.2690735  46.7265739   7.9471183  57.3642731  46.9314461
   6.7543054  58.2691040  46.7090416  16.3624439  35.6614113   3.2021174
  16.5754147  35.5309410   4.1261587  16.5633698  34.8215904   2.7891235
  16.9511776  49.8898544  25.2964725  17.1351376  49.6528702  24.3875008
  16.0088520  50.0569878  25.3144054  14.7514038  56.0443916  81.4433899
  14.8413420  55.0926170  81.3958054  15.4219065  56.3173180  82.0696259
   7.7895713   8.2040205  44.7312622   7.6355410   9.1312170  44.9124031
   7.5704827   7.7602906  45.5506134  69.0992203  34.5207901  16.8188229
  68.8458176  33.9379845  17.5346127  70.0497208  34.5999870  16.8995152
  78.1901627  17.1694927  63.6244469  77.2863693  16.9812489  63.3715668
  78.2053223  17.0405941  64.5728073  16.3349762  18.8217392  72.9986954
  16.7759895  19.5338974  72.5354843  15.7831373  18.4093075  72.3341599
  80.5730209   8.5837355  72.2526016  80.3708954   9.4917316  72.4782639
  80.6815414   8.1456261  73.0967102   7.6346521   0.2725920  26.0473175
   6.7310052   0.4251154  25.7709274   8.1657333   0.7098976  25.3817730
  54.8231697  33.2524986  71.9381866  55.3383369  33.8135338  71.3584671
  54.1970634  32.8193130  71.3580399  44.8141022  69.9717484  55.9392204
  43.9962730  69.7540207  56.3864098  44.5457191  70.2105331  55.0519867
  61.4241371  42.0740509  65.8118820  62.0896072  42.7519875  65.6944885
  60.7408142  42.2971725  65.1798096  60.7294312  48.2973709  79.1087799
  61.6016350  48.6769028  79.2158051  60.2234039  48.9803314  78.6686249
  72.5557327  60.7397995  74.2066727  73.2552032  61.3657532  74.3941498
  72.8446579  60.2881889  73.4137039  32.3345490  60.3299179  52.2245903
  32.0410728  59.8875237  51.4281044  32.2762375  61.2623024  52.0160408
  36.1674995  39.1592712  67.1408920  36.5259438  38.5303841  67.7671890
  35.8541718  38.6212158  66.4138794  84.7444916  25.1244698  60.4587135
  85.2662964  25.1621742  59.6571350  83.9609299  25.6365967  60.2587357
  56.5056763  64.2297821  20.2182102  57.1773605  64.7005234  19.7247810
  55.7882652  64.1134644  19.5952911  69.2330399  30.2838917  54.1639442
  69.2443542  29.6778164  54.9047394  68.6822357  29.8530025  53.5103493
   1.0085185  24.8481026   1.5015051   0.8028423  23.9802055   1.8489007
   0.1974521  25.3458252   1.6048285  85.4060593  62.4148407  74.5210571
  85.4656448  61.6775398  75.1285706  86.2740936  62.4662399  74.1209259
  21.6100063  16.3755627  84.7042694  22.4165478  16.4743366  85.2102051
  21.0652294  15.7928801  85.2333527   0.3677963  71.5570679   9.6688566
   0.8774053  70.8348007   9.3016214  -0.1392906  71.1574020  10.3755131
  30.4826794  65.4148026  62.7131004  30.7674446  65.4658813  61.8006668
  29.5349045  65.5434952  62.6757698  75.8367920  64.2694092  62.4260788
  75.1650467  64.0858154  61.7693520  76.4524689  63.5405350  62.3491898
   4.7801089  58.8752937  86.0043411   5.2998562  59.6718788  85.8968964
   4.1128922  59.1098328  86.6493607  11.3468790   4.8751116  23.1447105
  12.0062332   4.8727713  23.8385983  11.3194447   5.7832508  22.8434429
  75.4874878  53.8596382   0.8675371  75.0184326  54.4556274   1.4515073
  74.8003616  53.3283844   0.4652240  38.0694656  52.9997520  78.5970764
  37.1349983  52.9440804  78.7968216  38.5022697  52.8917656  79.4439850
  62.3416710  61.2490692  72.1971893  62.2086182  61.9653091  72.8181000
  62.2057877  61.6485596  71.3380203  56.3175125   5.1069431  45.3784752
  56.7209282   4.2573566  45.2004547  56.0508118   5.4304590  44.5179863
   4.5096774  66.5308151  19.5681286   4.3741498  67.3642044  20.0190506
   4.6864114  65.9046097  20.2701683  35.4729118  50.9222260  62.3536720
  35.2554665  50.0906029  62.7748032  35.4226074  51.5679588  63.0584602
  17.3520126  47.2101784  58.7015533  17.0160103  47.9925423  58.2642403
  17.5664425  47.5041161  59.5869064  77.4174652  43.2096672  27.6407928
  77.8253784  42.4206314  27.9975262  76.7771606  43.4687996  28.3034401
  46.3593483   5.0287166  57.7836990  45.5208588   5.0062542  58.2448463
  47.0052986   5.1986814  58.4693336  26.4765034  63.3907280  88.5937119
  26.0004425  64.2149506  88.4924393  26.3510056  62.9376450  87.7599258
  83.5861359  23.0342884  47.3828964  83.9487534  23.9138031  47.4886742
  84.3234329  22.4488430  47.5557365  62.1053276  37.3586807  44.3246689
  61.4205589  36.9211769  44.8305473  62.1203194  38.2530975  44.6652946
  64.3076477  48.1978264  49.2086182  64.1655655  47.7583199  50.0469971
  63.5326004  47.9812965  48.6903000   6.5825062  54.4172058  12.2806082
   6.2609463  55.2759361  12.0059929   7.1569605  54.1374207  11.5678997
  72.2819748  20.3350258   6.1377039  72.2701035  20.7674847   5.2838473
  72.9973297  19.7020569   6.0756745  29.1171627  40.9931526   3.5012310
  29.2101650  40.0958595   3.1811485  28.2834702  40.9944763   3.9715345
  58.9370651  50.4953613  31.2244339  58.8691635  51.2933540  30.7001934
  59.8766022  50.3181839  31.2703629  68.5091629  21.0787067  83.2681503
  67.8782501  21.7982140  83.2459641  68.4358902  20.7231331  84.1538315
  61.7655029   9.8248425  23.2803364  61.2229195   9.8740330  22.4933071
  62.2594833   9.0110903  23.1802197  84.3832474  47.2375603  20.2450485
  84.6153641  46.6799278  20.9876099  84.0214996  48.0290222  20.6437416
  54.7200699   7.3773289  39.4051781  54.7440033   7.0040240  40.2862587
  54.2989464   8.2295456  39.5174904  78.3733749  40.9654961  29.4798717
  77.9198990  41.0905418  30.3135128  78.9432678  40.2108498  29.6280632
  45.5262489  25.4003601  68.1749878  46.3412323  25.4269543  68.6763229
  44.9866714  24.7532101  68.6291733  12.1189337  46.6969528  23.9804440
  11.6967812  45.9240570  23.6054115  13.0560999  46.5319710  23.8768501
  79.0737305   0.8755273  14.2371540  79.0075607   1.1150298  13.3127661
  78.4709930   0.1387198  14.3374100  20.3454590  45.4982109  48.9855118
  20.9654198  44.8200836  49.2538872  19.4866047  45.1395950  49.2091064
  36.2677155  19.4623013   0.0763431  36.6027260  19.6663761   0.9494725
  36.8526192  19.9298325  -0.5199249  59.4765816  10.1896687  86.1513290
  60.1033096  10.8582850  86.4277267  60.0168571   9.4990349  85.7674561
  39.2470627  59.5666504  26.1191730  39.0683174  59.4678993  27.0543365
  39.2250328  60.5118408  25.9696178  63.9347343  18.3211517  75.3494263
  64.8611298  18.3639107  75.5864868  63.7729836  17.3927135  75.1818771
  22.5709801  21.5908699   6.3160586  23.3735733  21.9813786   5.9702539
  22.3621006  22.1167488   7.0881028  23.8051300  41.1310158   0.3699098
  23.9862080  41.5753403  -0.4583532  23.3391361  40.3339920   0.1172633
  70.3057861  20.8183784  80.9444199  69.6622696  20.5680027  80.2815323
  69.8010483  20.8853512  81.7549667  27.0913143  38.9625015  81.7618027
  28.0349483  38.8204575  81.6868973  26.9991570  39.9095955  81.8655090
  82.3598557  55.6826591  16.8184166  81.6998138  55.5493813  16.1381111
  82.7737045  54.8257599  16.9217644  22.0311890  52.4113503  18.3561058
  21.9313564  51.7826042  19.0709095  22.6990566  53.0227890  18.6664734
  69.1831284  62.8750801  15.4627285  68.5994110  62.5835876  16.1631107
  70.0311203  62.4885902  15.6812849  77.6780930  69.7224045   6.6754055
  77.9780426  70.3625031   7.3208036  76.7704849  69.9689941   6.4974275
  55.3177643  17.5395546  62.7221336  54.9505157  16.6724739  62.5502930
  54.5546494  18.1128273  62.7945404  26.9761162   8.2386169  31.0394077
  27.0580425   9.0534315  30.5438290  27.6030312   7.6438460  30.6277561
  61.1629524  12.0934973  89.0249252  61.5664597  11.2255373  89.0171432
  61.8066292  12.6529779  89.4595413  44.9878922  70.1389313  59.8545456
  45.8710251  70.3587341  59.5579109  44.4094696  70.5877304  59.2379112
  82.7481613  49.7540665  33.5239983  83.5840378  49.3442345  33.7466698
  82.3623428  49.1712494  32.8700142  63.4152756   8.3289232  18.5729866
  64.0908203   8.3049946  17.8952713  63.3342400   7.4201880  18.8625813
  71.9654465   7.1315279  13.3838425  71.7666321   6.3608742  13.9156294
  72.3828812   7.7412138  13.9923363  58.8872871  69.5513229  71.9045258
  58.6754532  68.6897812  72.2638397  58.3051834  69.6461258  71.1506042
  71.3184967  14.2656021  49.8834114  71.0645905  14.3304262  50.8040390
  71.4806824  13.3324785  49.7448196  19.9359894  62.4162674  25.8824883
  20.7426186  62.3641815  26.3951969  19.5748920  61.5303307  25.9134388
  81.6175308   5.2841220  36.5126038  81.3580322   5.9121332  37.1867638
  81.4263687   5.7273788  35.6860390  12.6137333  68.4199219  35.0402031
  11.7153349  68.7490158  35.0117149  12.9477577  68.5584183  34.1539307
   9.4753857  34.1404419  66.7441025   8.7410336  33.8111839  67.2623138
   9.0839186  34.3944778  65.9083633  58.2508850  36.3560028   5.3121881
  58.2494049  35.4233971   5.0966053  58.5399017  36.3905830   6.2240572
  43.6970711   6.4553218  78.5020752  43.0437965   6.4113903  79.2003098
  44.5034676   6.7197442  78.9448395  79.6739197   7.0368776  63.8386765
  79.5686264   6.6560245  64.7105103  80.5933304   6.8846059  63.6202316
  52.3555412   8.3808889  56.7173843  53.1943054   8.7902622  56.5049782
  51.7380371   9.1107264  56.7649117  63.0324287  54.1015320  50.8822517
  63.5013924  54.7290154  50.3321877  62.1198311  54.1729279  50.6024323
  79.0898285  27.2527447  56.3696213  78.8266602  27.8356152  55.6574211
  80.0311050  27.3990879  56.4634781   0.6565616  58.9848175   5.4070683
   0.9208741  59.1944008   6.3028622   0.9772724  58.0942268   5.2648735
   4.6506219  24.2200069  71.3896866   4.1666126  25.0438995  71.3334122
   4.0121880  23.5894432  71.7228928   9.9802742  63.9533005  63.9675102
  10.1015368  64.7984772  63.5348358  10.6291456  63.3800240  63.5594063
   6.1076069  17.8532715  75.5660248   6.9452195  17.6341629  75.1578293
   5.6265149  17.0259628  75.5845490  79.5323029  62.8039894   2.3457220
  78.8580856  62.9096069   3.0169210  80.3558273  62.9662399   2.8058472
  77.9516296   4.7704782  41.5655594  77.4423828   4.4735389  40.8114204
  77.3210220   4.7963181  42.2852135  34.9787941  48.2878952  86.6303406
  35.4097519  49.0848541  86.9391556  34.8452415  47.7658882  87.4214859
  24.0669975  28.9006081  75.4013596  23.3812294  28.2769794  75.1625214
  24.0487976  28.9218159  76.3581543  84.1108170  14.7331190  47.5504417
  84.9947052  14.3710184  47.4882889  83.5351791  13.9701633  47.4978104
  25.1018848  54.7821541  29.9126225  25.3075714  55.0845375  29.0280380
  25.4310246  55.4750290  30.4851780  56.7000084  69.7886734  58.7548180
  57.4571762  69.6129456  59.3134308  56.9015579  70.6245422  58.3341751
  70.1660919   5.6682396  69.7511292  70.3116989   6.5251741  69.3502655
  70.5549850   5.7423048  70.6226273  31.0582142  49.8995667  72.6359940
  31.0619068  50.7953110  72.9734268  31.6199989  49.4138184  73.2398758
  63.7090683  70.5281525  21.0496330  64.0022812  71.1054230  21.7546272
  63.5189095  69.6967926  21.4842701  47.0942192  66.9436569  70.3834152
  47.5052223  66.1688995  70.7668991  46.3750725  67.1530685  70.9794083
  81.3602829  22.5572739   9.8513250  80.7503281  23.0974274   9.3489037
  81.2612228  21.6790485   9.4837084  30.8283787  11.4029436   5.9533639
  31.2567730  11.3251028   5.1009259  30.6837234  12.3426838   6.0638013
  45.3979187  31.9428387  74.5980225  46.0071983  32.5571632  75.0074234
  45.5695763  32.0245972  73.6598892  63.9720306  39.1479301  73.9153442
  63.6086922  39.7722092  74.5434265  64.2530746  38.4057808  74.4505539
  84.5190811   2.3630302  68.4730911  84.1324005   3.2386050  68.4642715
  83.9515228   1.8447918  67.9025345  36.2605438  59.4103699  15.3169441
  35.6916389  59.8764725  14.7043018  36.1710014  59.8909225  16.1399155
  50.1980133  19.0643406   7.8189516  50.6186447  19.7851505   8.2877092
  50.6877556  18.9933338   6.9995966  70.5196686  57.0274696  38.5159912
  70.1352463  57.1858368  39.3781815  70.4716568  57.8746681  38.0730667
   6.0467715  27.5695839   0.0062641   5.5968261  28.2153358   0.5510443
   6.7648139  27.2526417   0.5541641  66.6523285   2.1493912  13.0951271
  67.1018906   1.3565223  12.8027468  65.7264023   1.9073094  13.1120205
  25.4465599  40.3556900  85.8930206  26.0149879  39.6768951  85.5292130
  24.5828476  39.9456406  85.9387665  14.3173418  10.9028301  87.1863937
  15.2671967  11.0210819  87.1814499  13.9655666  11.7845917  87.0639877
  75.4137344  44.8124580  12.3537350  74.8935852  45.2452507  13.0307617
  75.8675766  44.1069756  12.8147717  37.8840179  55.7057266  59.5468063
  37.2976685  55.4880943  58.8221970  37.9856567  56.6561317  59.4955063
  34.9947548   1.8759159  13.1464357  34.7907562   2.4013548  13.9200821
  35.2385826   2.5171382  12.4788923  18.6995449  43.9105148  84.5116577
  18.0900898  44.3873482  85.0750656  19.4424610  43.7076073  85.0801086
  70.4187622  36.1478920  27.0072880  69.9798737  36.4412231  26.2088108
  69.8264236  35.4949303  27.3801212  66.0531616  12.9457388  49.7472153
  65.8152008  13.8691978  49.6645775  65.9243698  12.5857620  48.8696823
  40.9621239  40.7787590   1.0083369  41.7558937  40.6201859   1.5192294
  41.1601944  40.4238853   0.1416982  72.5849915  51.0150375  80.4885559
  73.4362411  50.5933456  80.6059875  72.7954178  51.9245110  80.2768555
  17.8498363  55.8852081  64.9455948  17.4482689  55.9685287  64.0807114
  18.5678425  55.2652817  64.8175812  74.0727539   1.6859947  43.8359833
  74.9249420   1.7815535  44.2612762  73.8782730   2.5573606  43.4908295
  85.2548218  24.3625584  33.4509850  84.4926453  23.8857937  33.1223259
  85.2703857  24.1719913  34.3888931  46.6338387  60.0184898  32.2879868
  46.3574371  59.7172623  31.4224815  46.2945709  60.9113655  32.3504639
  22.4378414   8.9397354  47.1549187  22.9272556   8.3190937  46.6150017
  22.4545555   8.5586042  48.0328102  59.6775017  56.9566002  42.6997337
  60.1128578  56.5756378  41.9371300  60.3647041  57.4522324  43.1450806
  38.1582146  67.8457031  14.7155161  37.7742271  68.0821304  13.8711910
  38.5414124  68.6602783  15.0408745  13.9413919  53.6534729  21.3560467
  14.1888638  52.7298889  21.4005642  13.0957127  53.6534920  20.9076538
  54.9491577  14.1341505  44.8013992  55.5303955  14.8292456  44.4927940
  55.4472618  13.6934423  45.4898033  83.3650513  25.2902393  63.3939323
  83.4656219  26.0588036  63.9555626  84.2472076  25.1164875  63.0655403
  72.8575058  59.4409599  46.7156296  73.3052063  60.0708389  46.1507950
  72.4085464  58.8521385  46.1090355  66.8093491  60.3364601   2.8209646
  66.4518356  59.4800415   3.0553935  66.0660782  60.9349327   2.8958375
  84.5922852  16.1870499  73.1152115  84.3466187  16.6684036  73.9052658
  84.2425156  16.7128677  72.3959045  10.3851881  37.2207031  50.5266495
  10.4189720  37.7953453  51.2914200  11.3023844  37.0821915  50.2904320
  30.7200203  20.1058865  73.2377167  31.3996506  20.2739201  73.8904800
  29.9333954  20.5129223  73.6007233  70.7572708  54.6686630  32.5901871
  70.8473587  54.9535408  31.6808128  71.0442505  55.4217529  33.1066437
  16.5139370   6.2875466  81.5145721  16.2273140   5.9135227  80.6813965
  17.4495907   6.4501843  81.3948517   4.8846235  44.9965019  31.8049107
   4.4333830  45.6468506  31.2667065   4.6314049  44.1547394  31.4260311
  16.7774792  71.6119385  15.3245115  16.3489857  72.3170395  14.8392668
  16.2342167  70.8417358  15.1575356   1.0357338  14.2427273   9.2718840
   0.7644418  13.7599020  10.0525970   1.9904501  14.2774057   9.3314314
  76.7519226  23.8340816  58.6879463  77.0512314  24.3303432  59.4497681
  75.8008347  23.9420300  58.6903534  12.6780434  48.3385468  14.3582821
  11.8858061  47.9876785  13.9514866  13.0987425  47.5777245  14.7587700
   1.2750510   5.0785985   7.1100454   0.9309937   5.6943016   7.7571669
   1.5502201   4.3195748   7.6242409  79.1860199  70.8332977  73.6434860
  79.9546432  71.3879395  73.7770004  79.1752777  70.6614914  72.7018890
  81.1404266  29.9190273  65.7479858  80.3749695  30.3091106  65.3259277
  81.8708878  30.1391926  65.1698914  54.9070435  50.1376152  10.8735676
  54.9060936  49.7448845  10.0006466  55.8252716  50.3514366  11.0390081
  16.8927574  24.8389645  81.5581512  16.3451366  24.0626030  81.6747971
  17.1614075  25.0780506  82.4452209  76.3853302   3.9983530  84.9295425
  75.7205429   4.5638561  85.3226089  77.1779861   4.1718235  85.4373093
  10.5873137   4.6596103  58.1108742  10.9119530   3.9049335  57.6196480
   9.6817665   4.7639875  57.8187752  79.2125244  10.6833439  38.3610573
  78.7331314  10.6092901  39.1862450  78.9911118  11.5548153  38.0328102
  76.6198044  55.6033058  13.4985418  76.1428375  56.4332008  13.5009298
  76.0991135  55.0261879  14.0571585  68.7968674   1.0481501   5.4435506
  68.7615814   1.2474482   4.5079932  68.5979385   1.8799949   5.8733106
  45.3615417  49.9316254  32.0479393  45.2528267  50.6556206  31.4313011
  44.6420212  49.3339119  31.8448067   2.5391092  22.5096779  71.9760513
   1.7189087  22.0384979  72.1226578   3.2059066  21.8239460  71.9388351
  77.8673859  29.8171997  79.4531555  78.5615463  29.7073574  80.1030121
  77.0660477  29.8992939  79.9702148  77.4917831  69.7996521  23.7569370
  77.6230164  69.0708694  24.3634701  78.3652725  69.9841995  23.4116955
  39.1704140  52.2994156   4.6781602  39.9931984  52.3929176   4.1980448
  38.8613548  53.1970062   4.8008375  13.1604815  67.4676971  73.5275879
  13.2649164  66.7959671  74.2014618  13.8481760  68.1059875  73.7170486
  67.5350876   1.3243530   8.7038689  67.1224823   1.7418787   7.9477859
  68.2296677   1.9300609   8.9625340  66.4429245  18.6617146  79.7243423
  66.6825104  18.3335381  80.5910187  66.3055344  17.8732815  79.1992416
  20.9922256  56.4280396   2.6599207  20.9479160  56.5576363   3.6072710
  20.9632721  55.4780197   2.5465283  72.9772568  70.2151260  37.8915901
  72.4173889  70.1040726  38.6599922  72.8147583  69.4345016  37.3620110
   3.4406931  48.2480583  33.8370399   3.6905017  49.0569534  34.2837143
   3.9879315  48.2291718  33.0519257  66.8752060  17.8591423  72.9505768
  67.4925232  18.4075775  72.4664612  67.4248810  17.3425732  73.5398560
  56.8510818  45.9556465  49.2725067  55.9924278  46.3150749  49.4955635
  56.9296150  46.0914001  48.3282433  33.3975563   3.6625872  15.5749111
  33.0847588   2.8472168  15.9667778  32.7654533   3.8531592  14.8818312
  83.1977997   5.7438788  71.5882950  82.6427002   5.7771134  72.3673859
  83.6095963   4.8805370  71.6242599  45.0308456  47.2676392  79.4288177
  44.6700630  47.5999603  78.6068497  44.9716644  46.3156242  79.3488083
  11.1194954  28.1044464  20.6511765  10.9660807  28.4730377  21.5211391
  10.9024286  27.1766624  20.7424583  17.2001591  47.2975960  54.8092422
  17.6873055  47.8875122  54.2339859  16.2862625  47.4076729  54.5467339
  34.6879997  42.3119812  -0.0148807  34.7091789  41.4784660   0.4552634
  34.7964287  42.9745941   0.6673362  62.5800247   9.9147701  81.2957306
  61.7129097  10.1027355  81.6549149  62.9172287   9.2053394  81.8427505
  81.2538681  14.6949930  37.1603508  81.8337936  15.4486923  37.2692299
  81.6784134  13.9929256  37.6534004  37.2683067  39.8300247  72.2843323
  37.2894287  38.8730774  72.2901001  36.5007820  40.0558243  72.8098373
  31.8558846  39.3393860  54.6443443  32.0819206  39.4589005  55.5667610
  32.3881302  38.5956955  54.3617325  22.8727150  47.6468315  66.0951080
  23.3991184  48.2034683  65.5212708  21.9857121  47.7083282  65.7405930
  77.4966354  63.4492607  27.8965073  78.1012344  63.8365784  27.2635155
  78.0525131  62.9118767  28.4608212  51.1460228  49.6898499   6.9091234
  50.3690872  49.3628654   7.3626533  51.2775955  50.5693893   7.2631450
  75.6239395  42.5760918  63.2649002  75.3903885  43.4430885  62.9332352
  76.3298645  42.2816620  62.6893883   5.4419131  62.0530128  15.3132153
   6.3212090  62.0988464  14.9377546   5.5182037  62.4986687  16.1568985
  10.4982672   6.6757445   0.3348312   9.5458918   6.5853057   0.3026784
  10.7364845   6.3887415   1.2163715  39.2584305  50.7832527  47.5549889
  40.0309601  51.1654434  47.1386223  39.6110916  50.1370201  48.1667480
  12.6613684   0.6580621   4.1099734  12.9030924   1.3156099   4.7622252
  11.7283249   0.8056672   3.9554629  57.7454491  39.1741829  67.9187622
  58.2496529  39.4052353  67.1386185  58.1421738  39.6889725  68.6214981
  18.2900658  40.8778687  35.7749367  18.8487740  41.1532288  36.5017509
  17.4955444  41.4029121  35.8713455  55.5418205  60.8551407  40.3907967
  56.1243973  60.4962273  41.0601387  54.7226601  61.0289726  40.8544693
  23.5790501  33.2287216   0.8950648  24.2625694  32.5751572   1.0430028
  22.9555149  33.0886993   1.6076870  55.0305176  20.6065617   0.6226316
  55.5118599  21.4140091   0.4421636  55.4652138  19.9435997   0.0862076
  77.0782623   9.4259396  69.6589661  76.8833618   9.5331926  70.5899582
  77.9474411   9.0254087  69.6408081  63.6386414   9.9737654  12.2496395
  63.4523201   9.2583523  12.8576698  64.2768478   9.6076403  11.6373663
  44.1453590   6.1147456   1.8139828  43.6298141   6.3654118   1.0474232
  44.3929634   5.2049575   1.6490330  43.8721581  11.8913946  19.2644863
  44.7284698  11.5222836  19.0483303  43.8498840  11.9004564  20.2213840
  85.9241257  67.9579010  15.9582901  86.4694824  67.2309570  15.6576614
  85.0407257  67.5920639  16.0029869  17.2931747  24.4923382  73.3506088
  17.6578903  25.1300011  73.9642868  17.4537659  24.8722382  72.4868317
  48.5629158  66.8703003  26.7424603  48.7784882  66.6836090  27.6561928
  48.0417938  66.1183853  26.4608688  69.7453995  35.9190407   5.6414027
  69.8406982  35.2848358   4.9308152  68.8843460  35.7321167   6.0153966
  81.8372421  53.7838211  21.4220333  82.6117249  53.2229195  21.3797569
  81.8748856  54.1788864  22.2930908  72.4242630  55.1189423  35.2073669
  72.3832550  54.3481026  35.7733650  73.3369370  55.1578751  34.9214630
  66.9838867  56.8149529  35.9826851  67.6640244  57.4764442  35.8559151
  66.2660904  57.0978279  35.4161339  11.3543949  42.7804146  82.2330551
  10.5561838  42.9127655  81.7216110  11.8613415  42.1462593  81.7260208
  58.4006081  26.4177494  60.4884033  59.1835098  25.9318256  60.7475891
  57.8824768  25.7876625  59.9876442  72.7750244  55.7681580  41.5183907
  72.7615814  54.9694557  42.0457649  72.7948990  56.4783859  42.1598091
  71.2088776  31.7213707  80.6551590  71.9765625  31.7886105  80.0873795
  70.6992111  31.0008888  80.2845078  39.4105988  37.7354126  74.3461838
  39.0908279  37.3780937  75.1746140  38.6171188  37.9525032  73.8568039
  11.1586866  59.1664772  58.9282951  11.1865797  59.4632950  58.0187073
  11.3791103  59.9442215  59.4408989   5.2525826  19.7741756  62.4524994
   5.1756306  18.8412647  62.6524696   5.3042221  19.8109379  61.4974022
   1.7198795  63.1611366  23.8999462   2.5345774  63.6485252  23.7776737
   1.2665490  63.6251068  24.6038322  70.7107315  16.9592934  31.4118309
  71.3823395  17.6413040  31.4175358  70.0221863  17.3059330  30.8443966
  54.7711868  40.0005302  43.2583771  54.0662918  39.4303055  42.9514656
  55.1918068  39.5045815  43.9607620  74.6233292  55.9421234   2.3014510
  75.2315140  55.7844124   3.0235806  73.8059921  56.1988258   2.7284064
  46.4786224  39.6033096  25.4899635  46.1042137  39.9829292  24.6950188
  46.4820557  38.6601982  25.3263683  80.8651733  56.9801865  69.6221313
  80.7314682  56.2576485  69.0087051  80.9339447  57.7565346  69.0664444
  27.4776115  11.2637138  70.3279114  28.2452068  10.9419012  70.8006287
  27.3837605  10.6644964  69.5873947  15.9948092  57.2204247  60.0316925
  15.2489824  57.4689140  59.4855881  16.2100983  58.0155106  60.5192566
  14.9425516  58.0141335  47.1477127  15.0259266  58.1340294  48.0937080
  15.6908798  57.4672127  46.9087257  59.2430573  21.4447613  61.6586876
  58.7953568  22.2585049  61.8902397  59.4015045  21.5180073  60.7175369
  72.8325729  35.8769569   5.8401008  73.2569885  36.7162552   5.6621099
  71.9515839  35.9725494   5.4782248  66.2548065  55.1570663  75.2446289
  65.9825211  55.9849014  75.6405869  66.2271118  54.5267258  75.9644394
  53.9268341  59.2136726  62.0278358  53.8697205  58.3618393  62.4606743
  54.1133804  59.8301163  62.7359505  59.3218193  49.2129211  34.3356209
  58.5974655  49.7070656  34.7194977  59.4141121  49.5703392  33.4524651
  39.3585396  29.8116379  64.7640076  40.0318108  30.3841839  64.3964081
  39.6895866  29.5788536  65.6314392  33.1107330  56.7527962  12.4564095
  32.1981201  56.5990028  12.7007685  33.6166039  56.2296867  13.0782480
  74.8892899  65.5975571   1.9804212  74.0164490  65.5355835   2.3684242
  75.2271118  64.7023315   2.0065145  71.8795547  11.6083946  50.9628754
  72.7137527  11.9518595  51.2828484  72.1251907  10.9458961  50.3171272
  24.2852345  49.5489273  18.5257339  24.2145500  48.6090126  18.3590050
  24.4344311  49.9347458  17.6625328  22.7937679   2.1146643  20.9822617
  22.1680946   1.5332628  20.5501328  23.6167183   1.6258132  20.9789772
  61.3538704  33.8782082  17.8502655  60.4534798  33.8999367  17.5261440
  61.8678818  33.5595093  17.1083393  20.9951496  52.6315956  15.7680225
  21.9157181  52.5718689  15.5126410  20.9936314  52.4382477  16.7054901
  71.1407547  20.4581146  43.6503830  71.3556366  19.5433159  43.4681664
  71.9224014  20.8070049  44.0787888  58.0089493  68.1044998  53.8645821
  57.6827698  68.4208298  54.7070618  58.8122864  67.6312408  54.0811768
  71.0704346  14.2827854  32.3436623  70.9229813  13.6490517  31.6416149
  70.9184647  15.1342239  31.9335537  71.7441940  70.9044647  54.2194710
  70.9524536  71.3308105  54.5475082  72.3415833  70.9006653  54.9673615
  58.6405106   4.1243582  55.3117561  59.1698723   3.5832407  54.7259216
  58.9124565   3.8619628  56.1912003  26.4163570  68.4123001  65.3129425
  27.2278767  68.6632156  65.7541962  26.3320408  69.0374298  64.5929794
  55.6639481  48.1779251  67.8613663  55.8168221  49.1102791  67.7078171
  54.8351822  47.9950218  67.4187317  63.3500175  28.2813549  38.6455917
  63.5407791  27.3467178  38.5662537  63.9808464  28.6006279  39.2908478
  49.4766541  60.8890915  28.2290497  49.7743416  60.1568260  28.7688637
  49.1858902  60.4822769  27.4128456  77.3521957  46.2663765  87.9029922
  78.2547073  46.0773468  88.1598511  77.0106659  46.8116264  88.6117172
  50.6300392  27.1212807  63.2340965  50.5828972  27.9915199  62.8382530
  50.3650169  26.5249462  62.5338249  81.6680298  46.2179184   3.1013119
  81.9586945  47.0523949   3.4692712  82.4266968  45.8926125   2.6167097
   3.1933575  60.9538460  60.5118179   2.2718196  60.8864403  60.2619057
   3.1869948  60.8990593  61.4674263  11.5545082   9.1289654  62.6816216
  11.0301695   9.5840063  63.3405876  11.3730202   9.5965986  61.8663826
  79.7441864  37.9493179  44.2485313  79.2922516  38.7846603  44.3676567
  79.0896912  37.2885056  44.4747849   9.9175701  41.0554810  55.1580391
   9.2991056  41.6935692  55.5138206  10.1537380  41.4043312  54.2985306
  21.8223476  38.6329231  16.1602707  22.3250465  38.0076370  16.6823311
  22.1146526  38.4838181  15.2610731  73.5152435  58.8905296  81.9743576
  73.0638428  59.6701698  82.2978287  74.3987503  59.1943665  81.7661972
  60.7179794  19.1871262  49.6443672  59.9169693  19.7083778  49.6983376
  60.7123070  18.6561279  50.4407616  52.0979309   7.4776063  77.2409210
  52.0580978   6.5322275  77.0963364  51.5557594   7.8493629  76.5451584
  19.8363590  68.3039017  58.7724304  19.5378246  67.4752426  59.1471596
  20.7790604  68.3158112  58.9379730  85.5733185  19.6054840  24.3745823
  86.0696793  18.8251400  24.1277714  84.6821823  19.4275742  24.0738087
  76.0806808  55.0925713  82.8700104  75.1549759  55.3342743  82.8996887
  76.4748917  55.7273102  82.2717285  74.6019516  54.2845078  85.0783005
  75.1086502  54.8703461  85.6406937  73.7509537  54.7137756  84.9902115
  40.1129456  53.5157814  36.2815437  40.2119598  53.5832214  37.2312164
  39.4819298  54.1997337  36.0573540  28.9245033  34.5251808   7.7005477
  29.4999199  34.6465874   8.4557886  29.2341137  33.7173347   7.2909617
  17.3778954  10.1194859  74.4234390  18.2900581  10.1624269  74.1364822
  17.0160351   9.3646708  73.9591751  13.5455008  36.8726196  51.9668808
  13.1567421  37.0541496  51.1112251  13.8622742  35.9718513  51.8997917
  17.7445164  71.2896500  70.2346573  16.8020573  71.1243744  70.2084808
  18.1157398  70.6574554  69.6192322   8.4224386  55.0353928  10.1839991
   8.2935572  54.9616776   9.2383842   8.7113209  55.9382629  10.3166895
  65.1392365  28.4314213  49.5061378  65.7579575  28.7710037  48.8595352
  64.3864670  28.1440048  48.9894485  63.6955910  16.1294746  13.8965130
  63.2088394  16.4988842  13.1597338  63.0883217  15.5072660  14.2969027
  21.5476818  31.9922314  16.7303257  20.9666424  31.2880154  17.0179119
  21.6444855  31.8531857  15.7882395   7.3838429  50.0229645  81.1867828
   7.2496400  49.6898880  80.2994919   6.8678455  50.8284569  81.2208328
  75.4760590  62.7459259   3.0139785  74.6799240  62.5724983   3.5162928
  76.0379333  63.2333832   3.6164038  68.8846054  71.2143478  58.7006340
  68.5618057  71.2867813  59.5988464  68.1907806  70.7488327  58.2335854
  65.6097794  30.7835102  21.7223053  65.4784164  31.1440926  22.5992069
  64.7541809  30.8620434  21.3003941  44.8900375  60.9097786  83.5515213
  45.6525307  60.3504181  83.4033508  44.1395302  60.3264771  83.4386749
  18.4523792  61.8221397  31.3943100  18.3480663  62.6403580  30.9086437
  18.6870327  61.1763115  30.7279205  23.2608471  26.0117874  11.4921942
  23.9182930  25.4666824  11.9244633  23.6565590  26.2433014  10.6519289
  57.9029427  46.5732689  67.9476624  57.0906219  47.0283966  67.7257996
  57.7926903  46.3194504  68.8639908  19.2387085  41.0686493  84.2923431
  18.5620213  40.4786339  84.6243286  18.7910690  41.9071884  84.1796188
  76.0227509  32.1833649  62.6246948  75.2064133  31.6900959  62.5439682
  76.2542267  32.1134911  63.5508537  61.7900314   2.3746912  45.8122368
  62.1675873   1.9365727  46.5749550  62.4812164   2.9623778  45.5070839
   4.6876192  59.6629105  74.8151550   5.6128144  59.9020119  74.8706207
   4.6663880  58.7334137  75.0427780  85.8868408  26.8539982  10.3927994
  85.1205902  27.0818672   9.8663321  85.5234375  26.5296726  11.2168045
  33.8953018  59.7259979  29.8035583  33.9481583  58.7900162  29.9968834
  34.1146584  59.7913551  28.8741283   3.9234560  69.6165085  31.2133198
   3.0282817  69.9382629  31.3199348   3.8590949  68.9523087  30.5270748
  27.7773285  44.2323608  57.2386589  27.8276215  43.4538994  57.7933693
  28.6514568  44.3111343  56.8566551  30.4492378  64.1160126  11.1983147
  30.6958752  64.6042328  10.4127922  29.8239174  64.6848373  11.6473684
  78.1079178  18.5962124   8.1368256  77.6967163  18.0973034   8.8426828
  78.9040985  18.9545650   8.5291405  77.6777496  14.9332561  59.2294121
  78.3377075  15.4654236  58.7850189  78.1669312  14.4546452  59.8986397
  12.2531738  32.9356346  11.5503454  12.6551428  32.0799408  11.4005451
  11.4780874  32.7468491  12.0793381  86.4083939  64.1303864  55.0429611
  86.7939377  64.8382034  54.5266342  85.8883438  63.6306801  54.4136200
   4.2489095   6.4024734   1.5631863   4.7511554   5.8937883   2.1997557
   4.3799963   7.3131237   1.8273144  43.0604210  13.9034433  78.6251297
  43.3351974  13.4413805  77.8331528  42.3902702  14.5170498  78.3241043
  20.8257542   9.8383656  57.7441444  21.0583591  10.2275734  58.5871429
  20.2007828  10.4536047  57.3605804  72.8800659  29.9667053  36.2113914
  72.5255203  29.6759720  35.3711548  72.8521500  29.1869335  36.7658348
  67.6158218  46.3853340   5.8725533  67.7619400  46.4462509   6.8165717
  66.8202515  45.8600388   5.7867322  69.5752945  40.0675468  40.0848503
  68.6201553  40.0768814  40.1468697  69.7565689  40.2185936  39.1571884
  15.1816530  31.4645309  57.8195610  15.0795994  31.1813774  58.7282066
  14.3047781  31.3851566  57.4440308  15.5713243  22.5733261  81.5413284
  15.3093729  22.2552147  82.4052887  15.3063555  21.8777428  80.9395142
  12.4134760  50.1960907  27.8489437  11.6063480  49.7535057  28.1114197
  12.1261253  51.0558586  27.5416012  75.9908600   8.1110239  48.8498230
  75.4451447   8.1949186  48.0679092  76.8099594   8.5488815  48.6183434
  33.4645271  55.7064705   9.8038464  33.3206749  56.2012787  10.6105070
  33.9597206  56.3027496   9.2421846   0.3555838  50.9437828   7.7787175
   0.6446580  50.3213234   7.1114755   0.6869655  50.5840111   8.6015062
  13.4322119  44.4036255  86.5391998  14.2629099  44.0123978  86.8096008
  13.5887623  44.7030525  85.6436157   0.3302100  67.4983215   3.4534380
  -0.4890306  67.0766830   3.1940274   0.8288381  67.5737762   2.6398604
  78.3480988   7.7918377   2.1431985  79.2588120   7.5925417   1.9261434
  78.0437927   7.0242572   2.6273968  67.7657623  51.6982880  17.6574364
  67.6301804  50.9640999  18.2564468  66.8887100  52.0522194  17.5099869
  86.8393402  49.0196686  21.9825954  87.3703384  49.8118286  21.9004307
  86.0534439  49.3053741  22.4483948  24.6489143  56.8753128  14.2410011
  23.8541107  56.7853127  13.7152452  24.5148048  57.6797714  14.7420902
  86.1521530  32.3298798  18.1445370  85.6472092  32.5304108  17.3564682
  85.9424133  33.0404243  18.7506428   9.6196251  66.4471893   5.0107956
   9.0818110  66.1879501   4.2626085  10.1818495  67.1437302   4.6717339
   5.8167315   6.0145364  40.9553642   5.2329631   5.6842599  41.6382751
   5.4252100   5.7088566  40.1371346  26.1209831  70.0758667  63.3556824
  26.5166206  69.7311401  62.5551414  25.1828403  69.9214172  63.2449303
  79.8391876  15.9146862  87.0479507  80.1501923  16.6996040  86.5969315
  80.1742096  15.1880188  86.5226364  28.4919567  11.2771091   3.6739428
  28.6414223  10.7523232   4.4603853  29.3426514  11.2995234   3.2357073
  29.1663170   3.3042574  53.1725082  29.1495686   2.3613200  53.0087357
  28.2577820   3.5832849  53.0587616  37.8169289  46.4129333  36.4966965
  36.9233246  46.6806068  36.7112808  38.3198242  46.5998077  37.2894173
  53.4580727  14.8873138  51.8037910  54.2440071  14.5158167  52.2044525
  53.5776825  15.8343344  51.8750496  18.3216076  59.0327911  59.8306122
  17.7508087  59.2126122  60.5776634  17.8869190  59.4553757  59.0898705
   5.1611075  21.3167515  27.8707619   5.3485875  20.3900337  28.0200253
   5.7613893  21.7797146  28.4551907  16.9522724   2.3726115  68.5219345
  16.1324654   2.2691147  68.0387878  17.0627918   1.5430977  68.9866104
  43.8588371  51.5476456  63.3778725  44.7701492  51.4633408  63.6582870
  43.3642807  51.0274544  64.0111542  67.8834763  15.5924330  66.0934677
  68.7166138  15.1742458  65.8761368  67.5895996  15.1432829  66.8860168
  67.9703293  32.1309052  67.8101196  67.4475021  32.0655403  67.0109940
  68.7161255  32.6782494  67.5643005  56.6934586  33.8710060   1.1563091
  56.7723503  33.8058701   2.1080263  56.5497818  34.8028297   0.9910991
  81.6199417   2.9898181  67.4141388  82.5324936   3.2565205  67.5252762
  81.1160278   3.6651468  67.8682709   1.1431220  45.0463295   5.0444956
   1.4164658  44.7589035   4.1733456   0.2272600  44.7757797   5.1095557
   5.0682135  24.6115093  68.2216873   4.7221117  24.2767696  69.0489655
   5.4926186  23.8554153  67.8161774  84.1520996   7.7892456  58.4326630
  83.2457428   8.0379887  58.2513504  84.3076248   8.0874910  59.3288193
  47.8698540  53.7275772  58.9551926  47.7691002  53.1349220  59.7000694
  48.3230553  54.4899330  59.3152657  10.7731695  36.8062820  75.1565170
  11.0449085  36.4208260  74.3235626   9.9617834  37.2710838  74.9519653
  68.2140121   2.6184704  40.4759750  67.4163284   2.3862622  40.0005722
  68.3570938   3.5416119  40.2672424  51.0115204  59.7154083  66.3073273
  51.2432899  59.7839890  67.2335052  51.8476524  59.7795906  65.8458023
  57.2057266  11.3234205  51.1708107  57.1181488  12.2113447  50.8241806
  56.5170288  10.8253937  50.7304726  64.3131332  50.6453362  41.3143463
  64.5033493  51.5264549  41.6363297  63.4422493  50.4473152  41.6587067
  56.1761360  12.1324482  67.0873260  55.6971016  12.9590092  67.1469498
  55.7180901  11.6386881  66.4071579  11.4712009  13.4204731  25.8302441
  10.9436979  12.6308575  25.9505768  12.3734455  13.1027336  25.7952099
  76.6918793  41.1736069  72.0261765  75.9419403  41.0637741  72.6107864
  76.7252884  42.1145401  71.8536453  59.2539330  35.2984276  70.8701096
  59.8886261  34.5982780  71.0223770  59.3523216  35.5133286  69.9425430
  20.4677906  63.3761292  58.1147995  20.1860218  64.0242691  58.7603607
  21.3527737  63.6486282  57.8723488  69.5453262  53.8273735  48.6060028
  70.3123169  53.4175110  48.2060318  68.8721161  53.1472397  48.5851936
  60.6832466  27.5420303  69.7500839  61.3837814  27.5251713  69.0980072
  60.4519958  26.6218987  69.8770218  17.2158127  49.9588776  80.1415329
  16.5885201  50.6181183  79.8446503  17.4665432  50.2452202  81.0198059
   8.3380442  26.4594517  79.0626450   9.2089615  26.8462391  79.1528244
   8.2385950  25.9094772  79.8397369  57.4146919  55.2602539  47.6404991
  57.9799004  55.9010048  47.2089806  56.5254173  55.5617104  47.4546318
  43.2766075  28.8390884  61.4552383  42.6082916  29.5141449  61.3373947
  43.2215843  28.6068134  62.3821945  21.0923119  61.7600060  79.4392395
  20.7184486  62.6295319  79.5820084  20.4686279  61.3234520  78.8590012
   1.1264255  47.4463882  34.7782135   2.0417364  47.6330185  34.5693932
   0.8388556  46.8524780  34.0848122   2.1467690  19.2662621  81.4987564
   2.7189887  20.0295582  81.4201660   1.2922724  19.5755367  81.1980591
  58.4021301  13.4714785  63.2385025  58.3063469  14.3556442  62.8845139
  57.6523781  12.9906187  62.8879700  62.2290230  70.1434250  10.6096840
  62.7612762  69.3716583  10.8028698  61.7621155  69.9171219   9.8053093
   1.8339435  30.1290188  68.3271484   2.6315751  30.5978699  68.5724945
   2.1386366  29.2623329  68.0583649  56.0260086  57.1777611  68.9206314
  55.6725731  56.9165764  68.0702820  55.3193741  57.6764412  69.3307724
  57.3453598   9.3596544  87.3601151  58.0624313   9.7461710  86.8574753
  57.5599937   9.5546036  88.2723465  86.7815781  32.4667511  14.4255285
  86.3731461  33.1938934  14.8952942  86.2735596  32.3877296  13.6181211
  69.1673737  14.2658100  74.8856812  68.7781448  13.5410070  74.3964005
  69.7792816  14.6691570  74.2699585  63.1500320  34.3986053  51.2765694
  62.8507729  34.7495728  52.1153183  63.0498276  33.4506989  51.3641281
  32.2305412  68.4216080  40.2017860  32.6586990  68.6295547  39.3713226
  32.0229378  67.4894180  40.1374016   9.1070910  43.1728897  77.5229568
   9.6592846  43.0715637  76.7476807   8.6609726  42.3305931  77.6110001
  23.4261417   7.6930823  83.8597031  22.7638607   7.5269146  84.5305328
  24.1417465   7.0954328  84.0763931   5.7939091  47.3384705  58.5718307
   6.2545290  48.1558723  58.3823128   4.9351106  47.6158981  58.8907852
  76.9963303  22.9561005   1.1242187  76.1629791  23.2923183   1.4539461
  77.6562653  23.3511448   1.6940061  64.0362625  24.0688477  68.7186279
  64.8012390  23.4938641  68.7393417  63.4383011  23.6497383  68.0997391
   8.8558989  61.6997833  83.5434113   9.2119675  61.1783943  82.8239670
   9.0829506  61.2066956  84.3317947  59.3994408  42.5088120  25.7911472
  60.2252731  42.1327858  26.0958385  58.7564468  42.2370491  26.4460831
  47.0699692   1.1218805  42.1427155  46.8535385   0.2830491  42.5498428
  47.7870102   1.4680384  42.6739960  68.0425644  22.0023594  30.1000080
  67.8888474  22.7914162  29.5803986  68.4797440  21.4003754  29.4977455
  60.0473938  53.1279907  23.7979317  60.4320679  52.7112999  24.5690517
  59.1252174  53.2472534  24.0250969  61.5414772  54.0233307   1.5051205
  61.3293190  54.1562347   2.4290028  62.2290115  54.6638412   1.3227137
   0.2096994  10.8341932  69.7860641   0.8321117  11.5612564  69.7714233
   0.0911911  10.6390381  70.7156372  79.9060669  22.3528099  59.1254082
  79.6710968  22.6337299  60.0097733  80.4132614  21.5515137  59.2554626
  76.7752914  28.5676785   9.5153704  76.1213150  29.1932888   9.8270702
  77.5321274  29.1068172   9.2856741  53.9489098  10.8547735  76.1872025
  53.5725632  11.6962404  76.4451294  54.8066444  10.8358355  76.6116562
  28.0914841  29.5525875  77.4085770  28.5191269  30.2777958  77.8640137
  28.5284634  29.5130367  76.5578613   0.8371993   8.2749767  29.9665947
   1.4904857   8.8376446  29.5508366   0.7725623   8.6048126  30.8628445
  81.4784088  32.4855652  40.5047264  81.0940704  32.0072021  41.2393570
  81.6810913  31.8093052  39.8583336  54.6125603   3.4658539  14.2528400
  54.4196892   3.2369819  15.1620436  54.8595963   2.6362393  13.8442507
   7.2304130  48.1519814  74.8134079   6.3972211  47.7732887  75.0937958
   7.0845423  49.0976410  74.8394928  10.7969408  58.4126511  21.8427525
  10.9410419  57.5314484  22.1876392   9.8447008  58.5043793  21.8102417
  78.3287506  70.7087173   0.6044180  77.6287537  71.2685394   0.9403449
  79.0404053  70.8097229   1.2365384  43.4770889  20.7872372  12.5942545
  42.5461845  20.9063816  12.7825403  43.5611382  20.9915466  11.6628981
  20.3043480  50.2725029  52.1731110  19.7093124  50.4052849  51.4351845
  20.4588909  51.1521454  52.5174599  60.1372719  15.1003208  39.8223114
  60.3307228  15.9050484  39.3414536  59.3626366  15.3127394  40.3429337
  64.1091461  67.9198227  36.6946449  63.2693672  67.6816483  37.0874176
  64.7123947  67.9773331  37.4356041  75.4477158  39.2061005  64.0289764
  75.1538544  39.3523521  64.9281387  75.8344345  38.3306084  64.0427933
  71.1300812  21.0162296   1.2851956  70.2892532  21.4634991   1.1893741
  71.7094498  21.4601421   0.6659155  36.8214722  45.5722694  10.9574804
  36.8357086  45.2137070  11.8448706  36.1272049  45.0853310  10.5135078
   3.3361287  61.7184067  18.2203522   2.5623651  61.4091148  17.7493324
   3.2365906  62.6700821  18.2456913  81.8750305  18.0954094  42.8840027
  81.0074768  18.4844246  42.9947128  82.4538956  18.8415222  42.7275887
  45.1662636  35.5869179  77.6527939  44.3153419  35.5971451  77.2145462
  45.2384148  36.4520340  78.0560226  43.5083466  47.5463409  56.5787430
  43.7974930  47.2838478  57.4526558  43.9739571  48.3651123  56.4082832
  85.4918289  34.4973106  66.1793900  84.5757904  34.7580566  66.0839615
  85.9422989  35.2984543  66.4467392  77.5714569  60.2032661  69.3450546
  76.9183273  59.7229652  69.8539352  78.3417892  60.2341499  69.9123840
   5.0408340  57.0882683  65.8754807   5.7120934  57.7638130  65.9718399
   4.3926063  57.2970772  66.5481186  57.8232307  17.4487343  24.8763599
  57.1326447  18.0876751  25.0526352  58.2494164  17.7697983  24.0816803
  66.2101288  62.5118484  76.9891586  66.2955933  61.7664299  77.5835342
  66.3307877  62.1374283  76.1165314   5.9666448  -0.1658558  23.0442581
   6.0760560   0.6592526  23.5169697   6.3816094  -0.0124379  22.1954365
  26.7902279  22.4688911  74.3938599  27.4642715  23.1112328  74.1718445
  27.2500725  21.8086586  74.9123840  23.5488663  30.4625015  87.8087158
  23.2760830  30.9889145  87.0572433  22.7455578  30.3288460  88.3117676
  29.4936047  28.3905697   6.1815166  29.6616402  28.9648228   6.9286637
  29.6082020  28.9537373   5.4160480  19.5953331   2.8306203  54.1211433
  18.8666744   3.4481199  54.0580330  19.4478416   2.3697140  54.9470024
  48.8400803  55.3068237  29.6144085  48.4014816  56.0287056  30.0646896
  49.1552467  55.6910248  28.7963066  24.9547310   6.6373568  32.2593536
  24.3500080   7.2995601  32.5940628  25.5874481   7.1321206  31.7386723
  22.7506695  15.5603275  23.0905361  23.5361290  15.0329447  23.2359715
  22.7548428  16.1980915  23.8043098  39.1545067  70.6597595  31.9273262
  39.1578751  69.7223969  31.7335052  38.2465973  70.8527145  32.1612091
  49.8585243  10.6588154  65.4740753  50.1888542  10.3434668  66.3153076
  50.4651375  11.3559990  65.2247009   8.5628242  60.1429634  87.8532028
   8.8159389  60.7372437  88.5596008   7.9798336  59.5090103  88.2708893
  80.0981674  59.3498344  30.3962383  80.3618240  58.8379478  31.1608925
  79.9661865  58.6993942  29.7064991   1.2118464   0.5948292   2.1590226
   1.0637438   1.5345757   2.2647295   0.4658444   0.2915001   1.6416210
  86.1935501  37.7073975  22.8174610  85.9385376  37.9785576  23.6993179
  85.3660660  37.6257896  22.3432865  29.9948063  67.0482101  22.8671989
  29.3436661  67.5432739  22.3700466  30.5128422  66.5970688  22.2006073
  30.2305813  49.5454330  87.1638641  31.0467186  49.1537590  87.4748993
  30.0735149  50.2772827  87.7604904  54.5440445  23.2408867  85.5839157
  53.6462784  23.4888210  85.3630524  54.6483650  23.5075722  86.4972763
  24.2707386  37.7490005   4.7002478  25.1912670  37.5909920   4.9097557
  24.2929440  38.2410583   3.8795052  15.0059509  37.3895836  46.3399925
  15.4468632  37.4458160  45.4922523  14.1199427  37.7099228  46.1708641
  34.4249611  31.6853371  63.4352608  35.2823105  31.7228756  63.0112572
  33.8612442  31.2476768  62.7973671  86.2446213  39.6299438  28.5788250
  86.9559784  40.2560806  28.7135544  86.6464157  38.9128685  28.0883121
  84.8983154  43.8137131  50.7815475  84.5836334  44.3374786  51.5183487
  84.9239502  42.9179878  51.1180763  72.8345337  11.2786875  87.4890900
  72.5961609  10.7758808  88.2679367  72.1955338  11.0131416  86.8277283
  84.0087814  14.4287357   7.2682042  84.2583084  13.7421284   7.8867030
  84.7711411  14.5256329   6.6975398  57.8912010  52.2146149  19.3437843
  57.8715019  51.2736282  19.1694660  58.6249886  52.5395432  18.8220463
  36.2049942  58.2175941  19.9883766  36.1142464  58.9670639  20.5768452
  36.8857193  58.4805069  19.3689232  59.1181488  37.2112236  89.4080200
  59.0522804  36.5729523  88.6977386  59.9590950  37.6448708  89.2631302
  13.8611078  68.1805344  82.5090332  13.5862789  67.4031219  82.9951782
  13.3906965  68.9024353  82.9259338  32.8642349  55.7926331  38.7428207
  33.4031830  55.0432014  38.4895897  31.9875088  55.5750275  38.4262314
  58.8220863  32.1785660  19.6812725  59.6479263  31.7098713  19.8018513
  58.9418716  32.6696587  18.8684292  47.2672043   0.2816210  18.4719582
  47.0191536   0.7251235  19.2831364  47.1682014   0.9497921  17.7937431
  31.3761139  70.4284058  34.1577339  31.7341824  71.2879868  34.3793907
  31.9210930  69.8093948  34.6435890  38.3630257  39.6607475  87.5809555
  38.5425873  40.5955162  87.6819611  37.4200859  39.6136627  87.4232407
  84.0109482  13.8762522  44.0971222  83.4388962  14.5779457  44.4079590
  84.7723999  14.3302183  43.7361069  53.2193871  53.8432961  72.5154419
  53.8023949  54.3525887  71.9524536  53.5674210  52.9524307  72.4771729
  43.8739166  32.5458755  16.4458675  44.4332428  31.8806629  16.0447731
  43.0076485  32.1402969  16.4820995  25.4846363  10.6226368  85.8034210
  25.8244858  11.3760252  86.2862625  25.4190845   9.9279528  86.4586639
  44.6109543  16.9524193  79.1571655  45.3888664  17.3260860  79.5712433
  44.5298843  16.0801582  79.5429382   7.8956885  18.3445339  72.1067963
   8.6588869  17.9368076  71.6975098   8.1355352  19.2669640  72.1952744
  24.2002449   4.2591643  20.2079620  23.7955322   3.4477382  20.5146008
  23.5896511   4.5990515  19.5538330  83.6404800  18.2393951  46.4321022
  84.1535416  17.5648766  46.8770905  84.2665634  18.9431190  46.2617416
  82.4380035  54.2420464  82.3308716  82.5989990  54.7320900  83.1371994
  81.5863342  53.8274040  82.4685898  74.4763336  34.0974960  32.0547295
  73.6697845  34.5248489  31.7664909  74.7190857  33.5272026  31.3252983
  12.9406919  66.5979919  52.2316589  12.4278021  67.1727982  51.6635208
  13.8299351  66.9495316  52.1880798  26.0215111  59.3385696  64.2437820
  25.1338863  59.6032829  64.4851990  26.4089756  59.0260887  65.0613708
  12.3696957  55.9400291  36.2024612  11.9601650  55.9203796  35.3375168
  11.6475668  55.7909393  36.8128166   0.8110632  40.2151680  39.5468674
   1.5053322  39.5624847  39.6375732   1.2750999  41.0405540  39.4067230
  79.6667862  22.5224667  39.4425125  78.9885101  22.0279484  38.9824829
  80.4659348  22.3545227  38.9431267  49.1212196   3.1094031  85.2994156
  48.1915703   3.1299245  85.0723343  49.2669640   2.2238700  85.6323090
   2.4289489  46.0844994  40.2660103   2.8273630  45.8148117  41.0935173
   1.5112935  45.8242111  40.3459511   4.2593350  40.4907570  67.1744614
   3.4952760  41.0595818  67.0801926   5.0045695  41.0542259  66.9662247
  74.0406418   4.7636976  45.0278702  74.2077408   4.4574919  45.9192429
  73.1077347   4.6001973  44.8893890  21.3406773  47.5274353  32.2327652
  20.8336964  47.2383919  32.9914894  20.6952286  47.6100006  31.5307617
   4.5142660  50.1112823   8.5874090   5.4043527  50.4046974   8.7820520
   4.0507574  50.9077530   8.3285074   0.4656650   4.8596320  65.1444397
  -0.4820705   4.9854960  65.1912079   0.6175979   4.0205698  65.5793228
  30.7587910  35.3538933  67.5911484  29.8696079  35.0313263  67.4443970
  31.2531242  34.5796013  67.8601074  38.1562157  13.2582655   0.2049943
  38.6550903  12.5480127   0.6085986  38.0341873  12.9796085  -0.7025801
  14.6331205  27.4099941  75.6401749  15.0452662  28.0820427  75.0972900
  13.9427280  27.8744564  76.1133194  12.7428036   3.8994665  81.8186951
  13.1279478   3.0740569  81.5244217  13.3242054   4.1993961  82.5174408
  62.5746918   6.4079442  47.1881256  62.7168808   7.3516903  47.2613258
  62.6473923   6.2267451  46.2510490  31.0318527  34.2920570  83.0450668
  30.9889145  35.2185402  82.8083878  30.1548023  34.0866661  83.3688431
  25.4349461  24.6922607  12.4327812  25.7289925  25.4019527  13.0038376
  25.2194824  23.9769497  13.0312262  76.5065842  57.6648560  45.9558182
  77.1608963  56.9679375  45.9067650  76.3648682  57.9248390  45.0455666
  56.1727448  23.9525528   5.8029013  56.5331993  24.8058052   5.5615206
  55.8070297  24.0857487   6.6773987  71.1520462  37.2684822  47.6541824
  70.4516907  37.8849106  47.8680725  71.8106232  37.7999878  47.2069473
   1.1629111  60.8890877  11.4436455   1.0370355  61.2146797  12.3349228
   1.9316016  60.3217125  11.5022507  39.3067741   4.5286431  70.8990936
  38.9034195   4.0118113  71.5965271  39.1209984   4.0373549  70.0988693
  63.9356308  33.5649109  55.3296051  63.7455444  32.6340065  55.4458694
  64.4754791  33.6023445  54.5400543  39.5156059   1.2324541   2.6747904
  38.9185753   0.8322552   3.3069525  40.3588409   1.2614254   3.1268401
  51.6496620  32.9777336  37.8146248  52.4190102  32.9058990  37.2496643
  51.3297806  32.0795212  37.8990211  50.2343216  60.4474564  86.3302307
  49.8595314  60.5574722  87.2041092  50.9150162  61.1181870  86.2753830
   0.3324860   8.7959814  13.7953033   0.3295968   8.2741537  14.5977488
   0.1889368   9.6942415  14.0932198  49.5068626  36.6702614  30.7987156
  50.3591423  36.2937965  31.0180969  49.6650581  37.6134033  30.7575665
  61.9522552  53.9556580  12.5093527  62.2285156  54.2373772  13.3814459
  61.6550484  54.7585487  12.0812540  74.5566864  12.5347652  45.0959930
  74.4672852  11.8413448  45.7497559  74.0223160  13.2532520  45.4343071
  48.7703743  62.1950760  33.9421654  49.6539001  61.8977623  34.1594543
  48.2019463  61.7199745  34.5483055  61.5257378   5.1353717   6.0227785
  61.1445885   4.2611489   6.1045828  60.9040108   5.6176791   5.4777393
  71.5801620  28.4726391  80.2601318  72.4566345  28.2577019  79.9410248
  71.1560364  27.6237297  80.3854370  84.8231659  49.7177811  23.7148209
  83.9928513  50.1798019  23.8303356  84.5831451  48.7911720  23.7109947
  83.6499863  49.2945747  43.3292885  84.4562454  49.8102417  43.3456764
  83.2674179  49.4754295  42.4707069  46.7770996  11.7051477  29.0960236
  46.8287392  10.7672043  29.2799416  47.2475090  12.1175394  29.8205090
  61.3809357  14.7814627  46.7357712  61.1577950  15.7122898  46.7370644
  61.2110176  14.4956770  45.8381729  61.8253517  35.0005798  53.8351898
  61.0167465  35.4828529  54.0078163  62.0444260  34.5926399  54.6729393
  26.2202187  47.0393028  80.1800613  27.1769180  47.0700951  80.1829453
  25.9519157  47.9446907  80.0234604  71.2665253  32.7787781  85.5007324
  71.6856689  33.5980873  85.7639465  71.9943619  32.1970406  85.2814941
  65.1381149  56.0944557  43.7232513  65.9775162  55.6424217  43.6377335
  64.6839218  55.9139175  42.9002457   1.9208010  68.8785553  77.8705597
   1.9306740  68.6173782  78.7913895   2.3135164  68.1385727  77.4074936
  35.7660751   4.0396032  22.1404495  36.6443634   3.6963027  21.9761639
  35.7411690   4.8706684  21.6661701  17.0606499  56.7394829  45.9424515
  16.6766453  57.0273857  45.1142693  17.5098610  55.9221878  45.7268677
  47.7008095  49.0113640  53.7653427  48.6120033  48.8407440  54.0037575
  47.3370094  49.4702339  54.5225220  34.2478218   5.4451900  68.0105362
  34.9333458   6.0626116  68.2656403  34.7221336   4.6973653  67.6471939
  37.3246498  56.0789680  32.9673119  37.4073143  55.6685371  33.8280945
  37.7870560  55.4868050  32.3742180  21.3274097  50.1871643  59.8901558
  21.8685207  50.3395081  59.1154175  21.1934738  49.2395134  59.9061813
  70.3330536  52.0186615  21.9938583  71.0743179  52.1552696  21.4038620
  69.6343765  52.5628738  21.6306477  59.5458755  18.5635719  22.4691391
  59.8765068  19.4397030  22.2708721  60.3048935  18.0936127  22.8144817
  36.7532158   0.3086651  31.9060230  36.3796654   0.8568036  32.5961227
  36.0211411   0.1373398  31.3136158  75.9448471   6.6947656  85.7341003
  76.3096161   7.3286800  85.1165848  76.0682373   7.0988135  86.5930252
  69.6606369  66.9326859  70.2529297  70.5983582  67.0134964  70.0786362
  69.6110153  66.6191330  71.1559601  38.6940155   4.8648205  10.8556070
  39.2008324   4.0922155  11.1055079  38.9456482   5.5328770  11.4932699
  48.1388054   6.0171838  23.9598560  48.7527771   6.0846782  24.6910973
  47.3030243   5.7925639  24.3688107  20.4370308  32.2594872  84.5189285
  20.3060837  33.1795349  84.7482681  19.9141178  32.1332397  83.7271881
  80.2981644  48.7630959  60.4743385  80.9906235  49.4213486  60.4156570
  80.7165756  47.9495506  60.1927223   5.3214450  13.8643036  61.7729301
   5.9849181  14.1507053  62.4006348   4.5234542  14.3180637  62.0441246
  59.9042740  46.1779518  63.4606209  59.6103554  45.4677696  64.0311356
  59.4786835  46.9597206  63.8126717  15.8274469  40.9866562  49.7435684
  16.4608479  40.8648491  49.0363235  16.2914085  41.5162430  50.3920364
  34.0949974  57.0611000  73.9614944  34.9882202  56.7200813  73.9157867
  34.0162163  57.4079285  74.8501663  77.4258118  13.1680431  32.8344421
  77.5433655  12.6787691  33.6487045  77.9463196  13.9622593  32.9549713
  77.6385880  63.5284729  59.2538872  76.8043594  63.0797157  59.1163673
  78.1297455  63.3735580  58.4470444  60.8951378  40.1495514  49.6843681
  60.4573708  40.7325554  49.0641289  61.7346687  40.5742264  49.8606377
  29.3546753  46.6763573  88.4482346  29.1471882  47.1049118  87.6178665
  30.2717495  46.4163666  88.3610001   4.5596366  26.2938595  35.1427650
   5.1003170  26.0457993  34.3928566   3.6599362  26.2175827  34.8250351
  43.4031181   1.7160528  85.5661697  42.5100708   2.0373597  85.4418182
  43.5736160   1.1773889  84.7935104  48.9291344   9.2235565  25.3887768
  48.4762650   8.4750185  25.0004082  48.2871056   9.9329433  25.3604889
  69.1546402  56.8998909  40.9121704  68.9207535  57.7649193  41.2486954
  68.5840225  56.2957649  41.3872070  -0.0477759  35.2892342  42.9693604
   0.5619309  35.4221878  43.6951790   0.3027198  34.5337944  42.4974480
  35.6908035  39.5384560  86.9239578  34.7577667  39.6926270  87.0719528
  35.7257996  38.6933327  86.4758759  52.1279640  13.4538307  47.9009781
  51.9908333  13.9192934  47.0758896  52.7439194  14.0028410  48.3861809
  71.5174179  56.8625603  58.2846794  70.7149811  56.8232155  58.8050423
  71.4212723  56.1591492  57.6426506  63.7571716  19.0749302  52.7863159
  63.7214851  19.8644657  52.2463226  64.6661453  18.7818451  52.7222824
  37.0122948   0.8258159  66.4926682  36.9414330   1.5708289  67.0894623
  36.2892990   0.9429783  65.8764114  16.7727051  33.4301414  77.1008835
  16.9493809  32.6885223  76.5220718  15.9968939  33.1677551  77.5963593
  72.9064941  27.3517876  37.5394478  73.4181976  26.5580482  37.3833427
  71.9959793  27.0570183  37.5222321  52.7534027  46.9481125  81.8583984
  52.2686081  46.1998444  81.5101089  53.4817314  47.0664291  81.2486649
  80.4696579   5.5825076  77.4040298  81.0530930   5.4860291  78.1567078
  80.9653168   5.2215996  76.6689758  20.6981850  50.1674232   1.6337411
  21.5518742  50.0321922   2.0450308  20.8181419  49.8735313   0.7307066
  54.1831932  42.5812759  18.2432652  54.8350410  42.6608810  17.5468540
  54.3873863  43.2968102  18.8453846  49.9841309  68.6236954  38.0193977
  49.9905968  68.1686096  37.1773262  50.8396492  68.4303436  38.4027214
   4.7105966  26.9396515  78.9149933   4.9963050  26.6829624  79.7917557
   4.9290056  26.1890659  78.3625870  53.1458817  20.5416889  57.3186722
  52.9278450  19.9984684  58.0760384  53.7705383  20.0161362  56.8188438
   9.7883587  40.3129768  42.0899391  10.2297764  39.8200035  42.7815742
   8.9890146  40.6406288  42.5021629  26.6359749  28.3268642   6.5794272
  27.5480480  28.4101524   6.8576689  26.4985771  27.3839893   6.4880919
  32.5372391  41.6844482  14.9425154  33.1407127  42.4262085  14.9854279
  33.0821342  40.9481316  14.6647472  26.3866940  65.8156128  76.6494370
  26.3430519  66.2422867  75.7937012  27.1039181  66.2594147  77.1020508
  32.3421555  25.1175137  70.9887390  33.0751343  24.5192165  70.8437653
  32.4177055  25.3703136  71.9088516  52.2924805  28.8079376   7.5762119
  52.9173698  28.1132679   7.7840080  52.8033295  29.6152458   7.6355453
   5.6799254  61.1189270  28.0877781   4.9404411  60.7794876  28.5919361
   6.4000926  60.5204926  28.2864437  85.8522644  47.8183975  70.4887314
  86.3888779  47.8418350  69.6964340  86.4683685  47.6033630  71.1890182
  77.4139175  24.6814384  36.7459793  76.7711868  23.9861565  36.8863678
  77.4595947  24.7768612  35.7946434  62.8740921  27.8066120  54.3314896
  63.3854713  27.7445717  53.5247231  61.9761124  27.9549236  54.0350609
  85.4430847  23.9216099  11.9046078  85.1044998  24.7702217  12.1900005
  84.6639862  23.3750000  11.8023243  18.5998878  54.9448051  34.0868454
  18.7326050  55.7204590  33.5418816  18.9410477  55.1942673  34.9456863
   4.8745198  51.9228897  63.2859612   5.3878169  52.6192703  63.6956100
   5.4885077  51.4900818  62.6927299  65.7463837  31.7598591  87.6617584
  66.0947037  30.9376602  87.3169479  66.5182571  32.2398262  87.9618912
  53.9196854  12.3250914  73.4216003  53.0013161  12.1903687  73.6554337
  54.2800255  12.8326216  74.1487885  61.1857491   5.1836214  49.1941414
  60.2924576   4.8966107  49.0047035  61.5622025   5.3773603  48.3356628
  29.2256851  25.4972286   6.9878078  29.5781498  26.1300259   6.3620524
  29.5017548  25.8268471   7.8430090  19.3792858  53.8486748  77.1959457
  19.4674797  53.9707756  76.2506714  18.4379082  53.9089661  77.3584366
  53.7695427  59.6234818  83.6555939  53.2249680  58.8654366  83.8678207
  53.1867981  60.3750153  83.7643814  45.0027771   2.4537206  76.6011581
  45.3848419   2.7774067  75.7853851  45.7565117   2.2103465  77.1386337
  14.3053055  58.7797012  19.8699417  13.9959860  57.8861427  20.0186272
  13.5434341  59.3301392  20.0510502  60.4170380  43.2899323  14.1880007
  59.6891327  43.8286972  14.4980326  60.5076561  42.6053848  14.8508835
   7.3731518  69.1315231  87.2373276   6.5286899  69.2555695  87.6706085
   8.0148640  69.1759949  87.9461746  83.0268402  61.7691765  76.7136383
  83.5606308  62.5520477  76.8493042  82.1525955  62.1063271  76.5180130
  42.7492790  63.9387932  11.4452772  41.8788567  64.3353119  11.4822121
  43.1023979  64.2145462  10.5994053  84.9983673   6.9634185  81.7147827
  85.9476471   6.8515801  81.6638794  84.8666382   7.9108863  81.6803818
  10.2566004  28.3008614  82.6426468  10.1282177  28.4856377  81.7122650
  10.1192303  29.1435394  83.0753784  72.0966568  49.3374786   2.2287893
  73.0492859  49.4244537   2.1947422  71.8706894  49.5325050   3.1382611
  20.7050037  28.0693531  16.3586998  20.1812840  28.8540916  16.5203705
  21.5861607  28.4008846  16.1858425  36.0136871  42.6893692  74.8135529
  36.0587234  43.4502029  74.2344742  36.1038971  43.0530815  75.6943512
  85.2844925  64.7053146  51.4546051  84.8049545  64.6704407  50.6269264
  85.6687546  63.8333740  51.5457039  28.7349739  33.7613029  76.2095642
  29.2355957  33.0561104  75.7993011  29.2733536  34.5424881  76.0825729
  40.8338814   6.6444983   9.1029959  40.3840218   5.8436627   9.3722954
  40.8083763   6.6234131   8.1463680  28.0317554  35.6948433  66.7116394
  28.1064548  36.5602875  66.3095627  27.2737999  35.7649879  67.2919998
  63.6073227  48.0436707  23.5680676  62.9763947  47.5648956  23.0305405
  63.2215843  48.9134407  23.6726341  53.7249985  12.9348803   2.3544939
  54.3728371  13.3793964   2.9012494  54.1772041  12.7801695   1.5251535
  40.3978233   6.1594372  15.8832769  39.7462234   5.7212410  16.4306660
  40.3224106   7.0849543  16.1155758  40.7546997   8.7163916  16.5738583
  40.2501221   9.4448156  16.9358368  41.6460953   8.8615217  16.8910141
  44.8251534  59.1256218  13.9605722  44.0970840  59.5744553  13.5308084
  45.2557678  58.6398125  13.2571573  45.8331528   5.4230270  10.1749172
  45.5649223   4.5663705  10.5072165  45.5729713   6.0381088  10.8606367
   0.1247454   3.3539546  43.3360596   0.3230523   4.2066507  42.9490013
   0.9325954   2.8508058  43.2338295  68.0827866  19.0216656   8.2488194
  68.9324951  18.6728458   7.9794502  67.7032623  18.3329506   8.7945900
  68.0576324  29.3365345  42.1804428  67.2635117  29.8176136  42.4131889
  68.4606094  29.1185684  43.0208778  77.2011566  54.5766602  21.2545605
  77.4250641  54.2908897  22.1402435  77.9090652  54.2369385  20.7071304
  15.4896336   7.6665425  21.3777828  14.9097614   8.1180849  21.9910450
  16.0812817   7.1613045  21.9353848  74.1288376   9.6139736  50.4309731
  74.5617371   8.9297228  49.9204483  74.5880585  10.4187498  50.1907997
  74.3850021  64.3978577  56.0598412  75.3388290  64.4770813  56.0467911
  74.1322708  64.3947754  55.1366119  26.5688000  62.4382019  78.1177444
  27.1740093  61.7201004  78.3029022  25.8670120  62.3315735  78.7598953
   2.1831729  38.8868179  77.5971756   1.4499944  38.3055992  77.3950348
   1.8352356  39.7679138  77.4599075  27.0069542  38.3372002   5.9602246
  26.7418404  39.2491455   5.8406401  27.4381466  38.3232040   6.8146892
   8.7637787  10.8241186  61.8568611   8.1291380  11.0442896  62.5387611
   8.3103189  10.1876593  61.3041191   9.5984764  15.7071362  19.4823055
   8.9312429  15.2275009  18.9914074  10.4225645  15.4790163  19.0521069
  52.5670547  44.9591637  45.6702538  52.9036179  44.7103920  46.5311089
  51.6468887  44.6960564  45.6876564  52.7045631  62.9956284  62.5895538
  52.3873444  63.0128098  61.6866112  51.9103622  62.9458733  63.1215286
  26.0847473  69.8297272  23.0363903  26.8548374  70.3952484  22.9782791
  26.4086857  69.0247345  23.4404755  72.0844574  71.5671082  65.4509430
  72.4176636  72.4492569  65.2865448  72.7509766  70.9869080  65.0830460
  42.8123207  27.3453045  70.3827209  42.8367653  26.5940933  70.9754333
  41.8971443  27.6257496  70.3891068  18.4336662  35.6518326  56.2470360
  18.7561703  34.8040466  56.5527916  17.7641907  35.8978119  56.8854141
  22.1163902  66.1370926  31.8618450  23.0615768  66.1169281  31.7120171
  21.9504414  67.0056992  32.2282143  82.5172119  60.0117111  41.9829979
  82.1597290  59.5342751  41.2343330  82.5802231  59.3558807  42.6773682
  42.2455864  65.9712372  85.0982590  42.3688011  66.0612411  86.0432205
  42.2584724  65.0266495  84.9439316   3.9598114  22.3109608  74.9206543
   4.0388646  21.5668125  74.3238068   4.7303739  22.8482723  74.7369156
  52.5899963  40.3206100  18.7724113  53.1879654  41.0632591  18.8568878
  52.1416664  40.2768173  19.6169930  11.2268171  26.3574677  62.5210114
  11.2171459  27.2613506  62.8358650  12.1544580  26.1573601  62.3958244
  49.6942177  30.8526993  23.5683231  49.5083389  31.5187683  22.9064846
  49.4356003  30.0278587  23.1572418  23.2326756  55.3792801  51.2820854
  22.7716560  54.6433601  50.8794518  22.6275921  56.1161346  51.1975212
  74.9803391  13.1619034  70.8056793  74.8118210  13.3473854  71.7294922
  75.4681320  12.3383417  70.8118515  61.7759857  51.4140129  25.6468124
  61.6433945  50.8195686  26.3852501  61.6509094  52.2877274  26.0172310
  57.2968979  71.2966614  45.8394089  57.9049988  71.8525085  46.3267250
  57.5828018  70.4034729  46.0309906  16.4080124  57.6222420   4.0296383
  16.7653046  58.3528976   4.5343356  16.9600010  57.5778465   3.2488880
  30.2429371  61.5486679  11.8808632  31.1142845  61.3632317  12.2310066
  30.3345242  62.3972664  11.4475965  51.7071953  60.1809120  11.4056892
  51.8956985  59.4817505  10.7796974  51.3765411  59.7261124  12.1803198
  85.3267059  23.6896420  36.4454536  86.2706680  23.5325012  36.4235954
  85.0126953  23.1603260  37.1785660  47.9215927   5.4818559  -0.2577757
  48.2413177   6.3638425  -0.0677569  48.1749001   4.9652801   0.5072185
  24.0106621  14.0795584   8.4576492  23.7881489  14.3778954   9.3395309
  23.7965260  14.8218660   7.8925323  48.1815834  41.2648048  26.7036648
  48.3624916  42.0531197  26.1917458  47.6481209  40.7203979  26.1246414
  60.7581902   9.1464815  20.8479862  60.6774979   9.0154781  19.9032326
  60.4887886   8.3109655  21.2295189  12.6541996  62.4778938  47.3781929
  12.9249477  61.8899078  48.0833130  13.3856974  62.4644508  46.7609711
  73.3277206  36.4338951  55.3399734  72.6631546  36.7319908  55.9610405
  72.8607864  35.8325310  54.7598305  67.4445190   9.0565748  56.3483124
  67.5961914   8.1709709  56.6783600  68.1881180   9.2273788  55.7702789
  51.7732391  35.0144615  43.9798012  51.7293587  34.0631828  44.0766220
  51.0995331  35.2205925  43.3318329  79.4481583  24.4204521  75.3312302
  79.0530624  24.8383560  74.5660553  80.2604752  24.9055386  75.4763412
  72.1733932  57.4994278  45.1493835  72.9131088  57.6765633  44.5682831
  71.4727936  57.2113113  44.5642509  47.0177078  58.3427086  82.3517303
  46.8068466  57.8566437  83.1489182  47.7973480  57.9084549  82.0055847
  86.0446014  36.9553375   5.2708149  85.3011780  36.3626328   5.3815246
  86.7726822  36.5098267   5.7039938  65.8159637  70.2557449  26.4838295
  66.6964340  70.5938263  26.6472416  65.4696884  70.0587463  27.3541832
  -0.2363104  49.9921417   0.3828550   0.1967325  49.1540947   0.2204373
   0.2460837  50.3727303   1.1168033  60.3950768  24.7062912  69.9755554
  59.8735886  23.9060745  70.0382614  61.2407265  24.4716377  70.3577194
  83.6275101   0.6572665  81.4170074  84.0204391   0.3865794  80.5872116
  82.8494720   1.1536027  81.1629639  47.8515396  37.4839439  75.1323853
  46.9629631  37.7003593  74.8498459  47.7315750  36.9944077  75.9461365
  49.3437843  38.2673492  67.9855576  48.8085632  38.7110558  68.6435089
  50.2160645  38.2222214  68.3771133  59.1391106  29.9234924   4.4828901
  59.4421463  30.6617851   5.0114026  59.6221390  29.1706848   4.8237681
  17.2914867  48.4533844  88.4398117  18.1816292  48.1580582  88.2483368
  17.4048576  49.1574211  89.0783310  21.1111641   7.9522753  59.5895271
  20.7937756   8.5370569  58.9013977  20.3398018   7.4495444  59.8512421
  59.7176514  29.1048012  81.1209869  60.0246010  28.2014618  81.0435791
  59.5967369  29.3949852  80.2168808  25.7505531  10.8133860  64.7842941
  25.0903893  10.2810154  65.2281418  25.7876072  11.6228657  65.2938004
  70.3936691  17.0653744   2.8446546  69.8367767  17.5179214   3.4781392
  70.4661407  17.6754532   2.1106343  62.0687675  24.8825912  34.4715538
  61.2861671  24.8326111  33.9226723  62.2515793  23.9741154  34.7113152
  69.7428665  22.4165401  59.4668236  69.4666672  21.6202297  59.0131302
  68.9506989  22.9516602  59.5151711  69.9712524   9.7116547  54.6913605
  70.1654053  10.1362181  55.5269966  69.9851913  10.4238157  54.0519371
  34.0775909   2.6272635  23.6516991  34.4511337   3.1125188  22.9160194
  33.2732811   3.0996649  23.8665333  47.8118591  66.2307434  75.4179993
  48.0860634  65.3787231  75.0787354  47.2496834  66.0218430  76.1640244
  53.5810204  56.1529503  48.0929489  53.7008858  55.5130959  47.3912010
  52.7324448  56.5553017  47.9078407  77.6296616  45.0219803  42.2244377
  77.8293991  45.7264862  41.6079941  77.2738724  44.3203201  41.6791687
   5.2707033   9.9006214  46.8075104   6.1512351  10.2283497  46.9905128
   4.7668037  10.6819963  46.5799751  36.5686989  69.6360016   5.6583347
  36.9797173  70.0574188   4.9035506  36.2167130  68.8158112   5.3124638
   1.3384953   2.7701271  12.1445761   1.0336318   3.6632993  12.3043680
   0.6255769   2.3573050  11.6571779   4.5796213   0.7137101  60.0025368
   5.1878896   1.4518137  60.0405502   3.8886716   1.0031970  59.4067039
  73.0009918  11.5943937  38.8053360  73.7416992  11.1391258  39.2057343
  72.6038284  10.9431934  38.2270355  44.8154945  41.0344772  28.2581692
  44.3394318  40.7569656  29.0408478  45.7365379  41.0130577  28.5178776
   9.4183540   4.8978834  10.0270844   9.1301470   4.2656689  10.6854706
   8.9756508   5.7119913  10.2668209  29.4603271   3.5233881  61.2604485
  29.9127789   3.4300506  62.0987854  29.9111824   4.2462931  60.8241348
  82.2665939  11.7741928  43.7972832  81.4327393  12.2309017  43.6862106
  82.9234085  12.4704771  43.7934380  73.1594467  46.1725426  28.0109940
  72.8363571  45.6512146  28.7458801  72.7088394  47.0126648  28.0968952
  66.1551132  12.7333679  46.8660011  65.5196152  12.0176630  46.8541183
  65.6211853  13.5278149  46.8645515  52.3782158  16.6069527  59.2461205
  52.9826241  16.0623074  58.7418556  52.4481049  16.2762890  60.1416702
  78.2887573  50.4419289  25.9191608  78.3963318  50.0239601  26.7735386
  77.9942932  49.7366524  25.3428726  54.2629890  13.9250212  10.8800831
  54.8136292  14.6181803  11.2441673  54.4114151  13.9724321   9.9356499
   4.5285177   5.0304251  43.0661392   5.3187842   5.0523729  43.6057968
   4.1600299   4.1598549  43.2163277  85.4516296   8.9073286  17.1853924
  86.0357971   8.2569284  16.7955780  84.6759262   8.4089584  17.4425869
  19.6619339  70.8079224  32.4139633  18.9354973  70.2791061  32.0840111
  19.3362904  71.1763916  33.2351913   9.3919678  29.0808983  73.1196289
   9.5364952  28.7415771  72.2363358   8.8695736  28.4059620  73.5529861
  10.3375340  10.5446529  83.8995972  11.2355137  10.3525963  84.1697388
   9.8196716  10.4397173  84.6977386  25.5306530  47.8966446   4.1641512
  24.9260025  47.1965179   4.4100127  26.3474312  47.6759033   4.6117907
  81.5543289  43.6986160  34.3552208  81.4502869  44.6364937  34.1946259
  82.4560165  43.5097084  34.0954094  75.6289291  25.8750916   1.0345942
  74.7499466  25.9120216   0.6574210  75.5053253  26.1122017   1.9536885
  69.6878128  62.6836624  84.2659912  68.7466583  62.8570175  84.2456436
  69.7572937  61.7310371  84.2034683  49.3844299   4.5082860  74.5644302
  48.4292488   4.4781795  74.6187744  49.6773033   4.4750247  75.4751205
  58.6383438  23.0934620  77.4389114  58.7415390  22.9980583  76.4920807
  59.1586761  23.8658848  77.6599274  69.7066040  56.7551994   6.3295207
  69.2290115  57.5047913   5.9742064  69.5090714  56.7674141   7.2660370
  70.8310928  29.0596600  16.0293579  70.0041122  28.9131737  16.4885674
  71.1953278  29.8455429  16.4367352  66.1476059  64.1844864  81.7470779
  66.9493027  63.8365822  82.1375732  65.5680923  63.4261475  81.6741104
  58.1395454  24.0299778  56.7177467  57.9756966  23.3984127  57.4181099
  58.7235947  24.6781120  57.1115036  13.2844276  66.9136810  12.2985973
  14.0415983  67.1353760  12.8406096  13.4979753  66.0576019  11.9274492
  52.5971031  16.8742123  46.1016273  53.5316429  17.0320435  45.9676208
  52.4674072  15.9638691  45.8357544  62.2256813  23.0003586  66.9258957
  62.8915901  22.6100349  66.3598175  61.9333801  23.7781754  66.4507217
  55.0247383  50.8942986  67.5634155  54.2487030  51.2494164  67.1299515
  55.7030334  51.5539207  67.4183578  49.1900787   5.4403801  68.3762512
  49.0241432   4.5149760  68.1964569  48.3229752   5.8456559  68.3656769
  21.3078632  48.0765762  83.3817368  21.5476608  47.3289070  83.9291992
  20.3692341  48.1910400  83.5304184  73.0347824  40.4727821  35.9228287
  73.8698654  40.0115051  36.0008278  72.5968246  40.3184662  36.7598572
  12.1884851   2.2730522   0.2022994  11.6716175   2.8329196   0.7816331
  11.6878166   2.2450330  -0.6130394  81.6153870  24.3286381   6.9545727
  81.5346451  24.8941059   7.7226605  80.7669907  24.3969288   6.5166335
  72.7082367  11.1075163  42.2862434  73.2111435  11.9210691  42.3243675
  73.1444168  10.5268650  42.9098015  71.2356644  40.0943031  50.6550560
  71.6503296  40.2285271  51.5072670  70.3245697  40.3558693  50.7881584
  44.8730202  30.4154682   9.6075411  45.3173752  30.8808861   8.8989048
  45.5612717  30.2447052  10.2504873  79.7008896  47.6788139  76.4378891
  79.6597443  46.7584724  76.6977234  80.5721741  47.9660683  76.7109756
  10.8053083  45.1825867  16.0262299  10.8326550  46.1389923  16.0540257
  11.6813965  44.9099007  16.2988930  76.5328140  16.2491531  42.4533882
  76.1356964  16.9818916  41.9826164  75.8286438  15.9094353  43.0056190
  75.7142639   0.9396237  49.5178490  76.4037933   1.5850580  49.3622932
  76.1845016   0.1309925  49.7208862  68.6737061  22.8023357  17.8231258
  67.9610977  22.5189419  18.3959332  68.4471054  22.4453678  16.9643707
  74.8028259   7.5560870  79.7639236  74.5794296   7.2377772  78.8892822
  74.7116852   8.5070047  79.7032547  14.8041906  34.3075104  68.6137314
  14.4337606  35.0645828  68.1600189  14.0969934  33.6624794  68.6201096
  75.3688049   7.1068988  25.8689671  76.0778580   7.1699219  26.5088882
  75.2010269   8.0122633  25.6074352  66.7035522  36.6081276   4.6589589
  67.0242386  36.3883438   5.5336523  65.8292542  36.2204323   4.6199846
  33.3388863  58.1019211  58.0221443  32.8882561  57.7478714  57.2554550
  34.1055222  58.5493622  57.6639481  37.5578117   5.8251357   6.6503048
  37.2967873   5.5409646   7.5262866  36.9252892   6.5059800   6.4209728
  58.1870232  43.6423874  85.9331741  58.6315804  44.3024788  85.4013138
  57.6566505  44.1482925  86.5487976  81.5319901  45.9858284  51.0361938
  81.0968933  46.4287300  51.7647209  82.3325806  46.4905396  50.8928032
  30.7308922   3.8932729  40.2213402  30.2305546   4.1317196  41.0017509
  31.6452045   3.9315975  40.5020485  79.0394897  54.7350845  53.0322266
  78.8772278  54.0171509  53.6441689  79.5802460  55.3522797  53.5250664
  55.3717041   9.7126713  73.1212997  55.2446289   9.6916323  72.1728058
  55.0111504  10.5568495  73.3925934  37.9621162  24.4796124   4.2776747
  37.0136490  24.3750153   4.2021646  38.1739235  25.1889095   3.6708257
  39.6818542   8.1098270  88.9223251  40.1250648   7.9661536  88.0861664
  39.2466011   7.2779393  89.1087418  41.0700760  65.0750427  44.0948982
  40.2489166  65.4238129  44.4417305  41.1476936  65.4659195  43.2245979
  47.4915619  12.1248198  15.4192848  46.7382469  12.3041716  15.9819384
  48.2502251  12.2349319  15.9924669  35.6032677  43.6866302  62.2120361
  35.8777122  44.5647812  61.9479141  34.6565132  43.7580223  62.3336487
  63.1606255  65.5201797  32.9897919  63.1386185  66.0651703  32.2031975
  64.0797348  65.5224533  33.2571144  48.1392403  11.6948738  33.0473900
  48.5831261  10.8548880  32.9306755  48.3997192  12.2114172  32.2847862
  63.7347412  68.9382477  49.5466080  64.4091568  69.5754471  49.7819481
  63.6158333  69.0525513  48.6037254  55.5346489   4.3899722  16.9954758
  55.0318985   4.0345373  17.7283726  55.0175552   5.1350141  16.6892719
  21.4176884  40.5680008  82.7124786  20.5479012  40.6417046  83.1052475
  21.4316616  41.2422523  82.0332031  19.0490341  18.3019543  87.3739700
  18.1219769  18.5053234  87.4982224  19.3708286  18.1041679  88.2534866
  73.4329376  65.0434036  30.6951599  74.1564102  64.9197617  30.0807247
  72.9282379  64.2321320  30.6372738   5.0899987   4.5109692   7.0021143
   5.1794124   4.0963221   6.1440320   4.4853001   3.9436879   7.4804063
  36.8748055  68.3551941  12.4893103  37.4718628  68.7461395  11.8514118
  36.0045013  68.6351166  12.2056808   7.6808248  13.4953699  70.2810593
   8.3543844  13.4934654  69.6009521   8.0632906  12.9899559  70.9983521
  76.0962296  68.6761475  33.6315193  75.7805252  68.1288986  34.3506050
  75.5995560  68.3795395  32.8689117   1.7891213  52.0788727  30.3939114
   1.8961760  51.4034615  29.7241383   2.3184144  51.7721443  31.1301174
  12.6006117   2.4332488  12.3519440  11.8613129   2.0842764  12.8498268
  13.2767658   1.7594787  12.4232302  78.5444412  53.7963829  23.8377228
  78.7581635  54.7268944  23.9062901  78.1032181  53.5906143  24.6618671
  83.5880203  29.5191498  84.9124756  84.5049591  29.7912903  84.8750153
  83.4165497  29.1360302  84.0522156  67.1361237  38.2821236  27.1733208
  67.6776505  39.0660973  27.2648048  66.3125763  38.5080948  27.6056767
  33.6322021   8.5499840  33.2712898  33.1153603   9.0195217  32.6165810
  34.1818657   9.2240477  33.6709671  86.3472748  24.4564171  86.3892136
  87.0878067  24.8663025  85.9421768  86.3510818  24.8445110  87.2641983
  24.7166405  30.2009907   6.2509842  25.4414787  29.6349983   6.5164938
  24.1546631  30.2491417   7.0243497  34.6798592  38.5977783  53.7270126
  34.3558083  37.6975555  53.6983032  35.3537064  38.6315346  53.0480270
  28.0140533  54.6646805   5.2156296  27.2309837  54.3891220   5.6921802
  28.0992584  55.5972557   5.4138045   8.5591431   9.1000643  65.5837708
   8.0385571   9.4478245  64.8596954   8.3066044   8.1784515  65.6393280
   4.4254241  11.0134106  61.8773041   4.7832708  11.8879137  61.7242661
   4.3424935  10.6322184  61.0032043   1.1455802  64.5956192  48.8894806
   1.7675192  65.3231888  48.8976746   1.1892426  64.2532425  47.9966736
  20.5549011  11.1920309  84.7857971  19.9715061  11.4823570  85.4869308
  21.4197254  11.1537418  85.1942596  35.9216156  31.8236961  14.2681332
  36.1035652  31.6542149  15.1924725  36.5516586  32.5002937  14.0201464
  78.8149948  68.4442825  46.9356918  78.1919708  68.0920868  47.5713310
  78.6196213  69.3807373  46.9023781  45.1742134  39.8092155  35.8340225
  45.1185608  39.1045036  35.1886444  45.5239830  39.3879128  36.6191330
  72.7865295  52.9017296  65.7582397  72.0016327  52.4733772  65.4166412
  72.5026550  53.3015327  66.5803070  67.8236237   3.2429245  37.2489357
  67.7016144   2.3622136  36.8944016  68.7716446   3.3749509  37.2413559
  85.5039520  30.9300766  86.9052734  85.7265472  31.4288673  86.1192169
  86.0172424  31.3392658  87.6019287  67.3490372  63.0274582  47.9563522
  67.7090225  62.2086563  47.6154594  67.3092957  63.6067848  47.1954117
   9.9406033   0.5060718  18.4039154   9.5688429   1.3877146  18.3768635
  10.1037560   0.3433384  19.3329639  84.5408401  27.9446716  22.6447525
  85.4049911  28.3031902  22.8470974  84.4522781  27.1900730  23.2269650
  44.7163811  10.8441238  61.8025169  44.5376816  10.7617283  62.7392731
  43.8872910  10.6199980  61.3799019  47.9549446  65.4993668  61.1719284
  48.7428627  65.3634720  61.6981888  47.9364662  66.4421387  61.0074081
  13.9651899  52.0753746  74.3076553  13.1313725  51.6156082  74.4056168
  14.6264668  51.4253616  74.5452042  58.1690216  41.6681099  21.2786770
  57.9267998  42.5136719  21.6562805  58.6550903  41.8907776  20.4847088
  83.4739380   7.8156333  32.4621811  84.2897491   7.4859343  32.0853615
  83.0289078   7.0344176  32.7906303  85.1663513  56.8713417  19.9043560
  85.9507446  56.4331093  20.2343674  85.4854050  57.7046432  19.5578747
  62.1551628  69.8282471  44.0738258  62.9182968  70.0043030  43.5234909
  61.6925316  70.6651306  44.1166191  67.6222458  24.7285881  25.4035816
  68.2432632  25.4555607  25.4492207  67.0270844  24.9662781  24.6925831
  82.5587616  17.5281353  71.8595047  82.8373947  17.5487995  70.9439926
  82.5835342  18.4435520  72.1381302   1.3143792  54.2017097  60.7450027
   0.6739781  54.7608948  61.1848106   1.8053858  54.7983627  60.1800728
  11.1977730  65.9444199  26.6954594  11.8491354  65.5061569  26.1478386
  11.0806828  66.8026199  26.2880192  75.0073166  11.5988169   1.2098185
  74.1348572  11.2758904   0.9845123  75.5728378  10.8297157   1.1398185
  45.2720947  29.8721886  16.0858421  46.1483459  29.8822021  15.7007246
  45.1937370  29.0035572  16.4802666  56.8675346  39.1671143  61.2868462
  57.7313690  39.5588303  61.1580811  56.6749382  39.3111267  62.2133446
  65.7417908  64.9056091  57.9522285  65.4635925  64.3066711  58.6451263
  64.9386749  65.3530197  57.6856461  73.1467819  41.6080742  87.7656631
  73.3937531  41.5402794  88.6879654  73.1771545  40.7074966  87.4427643
  79.1506729   7.5195103  15.0182600  78.4104614   8.0374050  14.7018719
  79.3853226   6.9599438  14.2779503   5.6108594  57.7630730  63.0042572
   6.3571281  58.2406502  63.3665199   5.1712108  57.3903389  63.7684631
   3.8360958  11.0595827  59.0051384   4.3802900  11.8138494  58.7789383
   2.9463696  11.3292313  58.7773056  68.7107849  52.5244598   4.5937347
  69.6301041  52.6350403   4.3511267  68.6095428  53.0434456   5.3916287
  55.6842766  19.5333328  59.4480095  54.7557220  19.3640556  59.6072617
  56.0376740  19.7587528  60.3085480  64.3409805  38.1953659  39.0246315
  65.2003860  37.9897232  38.6567116  64.4937973  38.9629784  39.5756760
  50.9292221  24.9876404  57.6355858  50.1580887  25.4200516  57.2687035
  50.7008934  24.8271046  58.5511856  32.6821098  54.4040604  36.2341194
  31.8310928  54.7119446  35.9223404  32.7612991  53.5187035  35.8790054
  34.1633759  66.5355759  54.5698090  34.7150497  66.7193375  53.8094673
  34.6346245  66.9236755  55.3070526   0.0823804  18.7620850  30.3763275
   0.7366568  19.4322948  30.5737400  -0.5629330  19.2108822  29.8300819
  37.9502487  19.0595818  80.5386963  37.9264717  18.5476208  81.3471222
  38.1114731  19.9575024  80.8284836  69.6304398  51.1354599  81.7434387
  70.0948257  50.9695320  80.9230499  69.4264374  50.2643089  82.0836105
  30.4644413  20.1474018  77.7465134  29.6007061  19.9944248  78.1296463
  31.0000591  19.4211044  78.0656433  56.9516258   6.2827244  58.0700340
  57.6716309   5.7629261  58.4272919  56.2864723   6.2755036  58.7583275
  81.1824722  59.1143494   7.2981634  82.1096420  59.0756874   7.5328674
  81.1657944  59.5848083   6.4647226  64.5358582  53.8354301  82.9920883
  63.9785004  53.7655640  83.7671356  65.4077072  54.0224762  83.3401184
  84.6650085  25.9115219  74.1862869  85.5442047  26.2104855  74.4183731
  84.7638168  24.9715309  74.0350037  71.5211411  43.6414032  80.8663559
  71.1862183  43.1454544  81.6134186  71.4059219  43.0550766  80.1185760
  52.3308029  15.7028561  79.1633453  52.7662239  14.8578529  79.2756348
  52.9494247  16.2250710  78.6526260  47.2107048  34.7059441   0.9500221
  47.6766434  35.5405998   0.9001763  46.3159599  34.9147224   0.6815531
  17.1885357   6.1502247  87.2185516  16.5767860   6.7604303  86.8066788
  16.6289940   5.4954944  87.6362534  19.1036339  32.7296791   4.2984781
  19.4508133  33.6143951   4.1845527  18.4003811  32.8291473   4.9401741
  19.5095387  59.6805954  26.5017281  20.2837029  59.1934586  26.2195950
  19.3782902  59.4154167  27.4120502   1.2379353   1.4599522  14.9396381
   1.1589595   1.5056288  13.9867954   1.8827187   0.7694813  15.0937033
  77.3509445  10.0932837  79.0039291  77.5628433   9.2467556  79.3972702
  76.4618073  10.2812099  79.3045044   2.1805205  66.3584976   9.8855667
   2.1187875  66.4117279  10.8392887   1.3000443  66.1124420   9.6019239
  59.4313660  52.0460930  38.0644875  59.6599808  52.7870407  38.6257057
  59.9344788  52.1887016  37.2627563  20.1995029  44.2015762  10.2167749
  20.5836582  44.2188950   9.3402157  19.9501762  43.2872162  10.3509855
  65.8585663  28.7914486  35.1699524  65.3871613  29.5998116  35.3713341
  65.2541885  28.0928783  35.4208565  20.3050766  61.5592728   5.2888780
  19.3794556  61.5558434   5.0450597  20.3656235  62.2079124   5.9901867
  46.3354836  23.1406918   5.1565785  46.5258636  22.2675171   5.4994392
  45.3861389  23.1483040   5.0344391  66.1927490  34.5193291  65.8296356
  66.5206909  33.9039764  65.1738739  66.1047592  35.3476105  65.3580017
  14.2810726  41.6689987  33.9884033  14.3829298  40.8849792  33.4488029
  13.3520956  41.6821899  34.2187538  51.9590340   7.9013519  61.4278831
  51.5152702   7.1085892  61.7292709  52.8617172   7.6250672  61.2695694
  62.9984932  59.6125069  89.0733490  62.4616432  59.9615555  89.7848206
  63.0620880  60.3325310  88.4458542  38.2007065  47.2984772  58.9952316
  38.2878075  46.4438477  58.5730286  37.3557014  47.6304474  58.6919250
  12.5900698  24.5814590   9.2621651  12.2154903  23.9294472   9.8544521
  12.1156778  24.4586773   8.4399071  49.2423744  22.1815434  73.5352249
  49.5281639  22.4412136  74.4110794  49.0945740  23.0085621  73.0764999
  54.7390900  36.2287445  82.2736206  54.4272957  35.8264542  81.4629517
  55.4233170  36.8359604  81.9919281  37.9217072  52.0834084   7.0893555
  37.3842201  52.8604164   7.2429476  38.1713295  52.1433029   6.1672196
  53.2354698  23.4655418  64.3190994  53.6878319  23.3977146  65.1599350
  53.7472992  22.9148407  63.7266579  82.1260986  23.9422874  61.2336578
  82.5218201  24.3576317  61.9998970  82.3583069  23.0173321  61.3159065
  10.6370220  43.0188751  58.7704811  11.3102112  42.5874252  58.2442703
   9.8312263  42.5455513  58.5633850  34.9843369  40.3358231  73.8190002
  35.5215111  41.0148659  74.2271500  34.0833130  40.6277122  73.9575272
  65.6741104  58.3521576  50.6513672  64.9903793  58.0707588  51.2592773
  66.4678955  57.9204140  50.9671745  13.3157806  58.2587700  88.4742050
  13.6977634  59.1117897  88.2676239  14.0655422  57.7099648  88.7042160
  84.9065704  26.8577194  56.3625069  84.0498581  26.4390888  56.4463005
  84.9199524  27.1989899  55.4683113  26.8344727   4.4017606  61.4974747
  26.7260590   3.4735568  61.7046394  27.7062340   4.6204324  61.8267937
   3.1077964  11.8490505   8.4662790   3.8862844  11.3039961   8.3518057
   3.4385400  12.6616869   8.8489819  86.2177353  53.3826218  83.5841522
  86.5261459  53.5317345  84.4779510  86.0328598  54.2585449  83.2453079
  18.7984810  38.4681778  48.8955345  18.1697941  37.9217110  48.4239845
  18.8678379  39.2635498  48.3675156  70.7979355  32.9066582  23.2254753
  71.0306015  32.8401604  24.1515827  70.1460648  33.6067848  23.1919670
  83.3819427  28.8580704  34.0927353  83.0981903  28.3870831  33.3092270
  83.9384003  29.5624409  33.7604027  75.1182785  33.2447815  15.4762611
  74.4341812  33.8789635  15.2616520  74.9643326  33.0284271  16.3958931
  35.0263786  50.4157257  19.2637749  35.2616081  50.3752327  20.1907387
  35.5024071  49.6879234  18.8638592  85.6320724  49.4695206  15.2174263
  85.5882645  49.1028671  14.3343210  84.7790833  49.2688980  15.6026459
   6.0613213   9.0662394  63.0293961   6.5464649   8.8524961  62.2324104
   5.3386292   9.6174984  62.7292900  22.0126495  36.5478210  76.6538467
  21.3326607  37.2150040  76.7471924  21.6868172  35.9684753  75.9650650
  38.7123604   6.5294280  18.9112701  38.3310318   7.1510854  19.5312405
  38.4565773   5.6699157  19.2460022  50.5624809  51.7637787  23.1034470
  50.2377052  51.3331146  23.8941936  49.7877121  51.8652687  22.5505791
  57.1220245  39.3169632  73.9519119  57.0206299  38.4444160  73.5716248
  58.0464554  39.5287704  73.8223114   6.1711030  22.7402744  13.0523586
   5.4660363  22.1545677  12.7765684   6.7522330  22.1865902  13.5738506
  61.6623116  44.2146301   0.4139920  61.0569649  43.4799423   0.3138562
  61.0963211  44.9831657   0.4863541  60.1015739  26.7758751  86.4144897
  59.6315079  26.1238441  86.9342270  60.1066284  27.5606613  86.9625015
  21.1541443  54.1890259  61.7847137  21.3591423  55.0662842  61.4612541
  20.6365585  53.7906342  61.0849838  45.8286400  62.4208145  67.6511765
  45.1622925  62.3075523  66.9733963  46.5118332  61.7903633  67.4231110
  69.5133972  67.6642075   2.5410614  68.7619476  67.9426346   3.0645487
  69.6444321  68.3748016   1.9132714  14.8765354   2.4326990  87.9202118
  15.1271248   3.3547873  87.8637390  14.0231514   2.4425328  88.3536530
  15.4638710  45.2379265  56.2853775  14.5892582  45.4127617  56.6328201
  15.8091288  46.1017609  56.0599480  35.5949821  52.9909744  30.2911911
  35.8910332  52.5297585  29.5064182  34.9091682  52.4304161  30.6540508
  28.0559845  60.4479904  79.0151825  28.8002796  59.9250793  78.7171478
  27.7146263  59.9698334  79.7708740  11.2881479  67.6135178   7.3462806
  12.0364780  67.9989243   6.8905444  10.5818081  67.6264038   6.7004089
  83.1253815  71.9143448  66.7740936  83.2812042  71.4062653  67.5702133
  82.2371216  71.6765518  66.5082169  23.8891926  22.1309071  53.8803673
  23.2509365  22.2803249  54.5778885  24.2262688  23.0025616  53.6734047
  50.3977051  59.0516434  59.6704941  50.6716576  58.4273071  60.3423462
  51.1706314  59.1621437  59.1167755  84.4251175  36.1253891  50.4455986
  85.3180847  36.1447258  50.7897873  84.0885315  37.0074959  50.6031837
  43.7863846  66.5090485  47.4414558  42.8426170  66.6556091  47.5051575
  43.9078217  65.6031723  47.7258339   9.8015432  65.8130798  20.7533302
  10.1481047  65.9588699  21.6335983  10.5148392  66.0708237  20.1693726
  79.3428879  63.3985710  52.2569313  79.9167709  63.4251289  53.0225601
  79.9328766  63.2361259  51.5208931  35.4589157  70.3812332  34.3702507
  35.3048096  70.6115417  35.2864609  36.4117546  70.3858948  34.2791214
  44.4785500   9.5393133   0.3934872  44.9486771   8.7973089   0.7738027
  43.7659683   9.7121725   1.0087782  82.5507050  60.1339951  70.7978973
  82.0417786  59.9150200  70.0173416  82.7553864  59.2877159  71.1955719
  50.3110809  46.2194176  30.7525120  49.9965630  45.5730896  31.3846283
  50.4081955  47.0244026  31.2612324  53.4339561  36.0528793  35.5583649
  52.5016174  36.2523613  35.6431122  53.8348083  36.4482040  36.3324890
  22.5280266  39.2088547  13.4722071  23.2690735  39.0343704  12.8920021
  22.2350197  40.0870552  13.2290144  11.7959232  26.3396988  83.6208801
  12.5998907  26.6467953  83.2018814  11.1367502  26.9907799  83.3804245
  63.1009178   1.3230329  31.6519909  62.3968430   0.6746262  31.6430645
  63.1992989   1.5823946  30.7358665  24.6465549  67.8221436   8.9468985
  25.5702457  67.5720749   8.9246902  24.3414001  67.5353241   9.8076229
  61.4413605  70.0396423  69.5167389  61.6126137  70.7448578  70.1409073
  62.2950287  69.6291428  69.3790131  69.8784485  33.6303902  71.6392670
  69.2569122  33.7832832  70.9275513  70.6628113  33.2957268  71.2045288
  50.8146667  44.6211090  80.9559708  50.2099495  45.3628273  80.9759903
  50.2486076  43.8523979  80.8860397  55.6688499  59.8399849  30.3759403
  55.7887573  58.9003105  30.2385750  55.7456169  60.2215919  29.5014610
  46.5344124  40.7679977  86.7502594  46.1118927  39.9114189  86.8134155
  45.9221916  41.3001633  86.2421112  50.8804474  47.9029922  39.5835152
  50.8031883  47.0364189  39.9826622  51.5761871  47.8060341  38.9333038
  56.3609962  22.5970650  28.9283752  56.1965599  21.6920090  28.6636715
  56.2110062  23.1099033  28.1341896  45.1057854  63.4857826  57.5967751
  44.7189140  62.9000702  58.2475471  44.9931259  64.3617325  57.9658928
  16.6438637  65.7944489   4.1605225  16.9736748  65.9377136   5.0476141
  17.3505497  65.3273926   3.7147737  43.4522095   1.0465961  20.6771984
  43.6835060   0.6176263  19.8533535  43.9390526   1.8706226  20.6630955
  45.1682129  27.7199688  12.5402727  44.3569145  27.5701675  12.0549011
  45.4538422  28.5914822  12.2662077  15.1816015  16.7269535  84.6282349
  15.0824814  17.4832916  84.0499878  15.4151974  16.0067310  84.0426178
  55.3587303  66.5651550  54.8322296  54.4604836  66.4676361  55.1482506
  55.6749916  67.3648987  55.2524948  85.1325378  54.3164330  24.7462215
  84.9952927  53.3691330  24.7421722  84.2508545  54.6863785  24.7014294
  68.6824112  47.9392281  63.1470261  68.6626892  47.3034515  63.8623085
  68.0425720  48.6045876  63.4002762  45.0256615  66.8941193  17.9305649
  44.9269180  67.7322006  17.4787884  44.7398148  66.2420197  17.2908077
  80.0967789   3.5810285  46.2467384  80.6765671   4.0637217  46.8358727
  80.0733948   4.1085711  45.4483757   2.0482450  67.1135178   1.3451676
   2.9928074  66.9854202   1.4324864   1.9578813  67.7592163   0.6443558
  56.6718903  23.6457520  64.1712341  57.6200981  23.7445126  64.0853577
  56.5225143  23.5785980  65.1143188   0.7443630  60.6769676  82.6800079
   1.2293357  60.3922119  81.9054489   0.9937248  60.0528488  83.3615723
  73.5426941  30.3417664  43.6231918  74.0282440  29.7666740  44.2145805
  73.9658432  31.1951122  43.7179413   4.2109318  11.5416527  36.0030861
   3.9309380  12.4526129  36.0924530   4.8723168  11.5611229  35.3114052
  33.0783463   6.8822517  77.8506775  32.9843445   6.6671762  78.7786560
  32.4592781   6.3027806  77.4066086  79.6492538  28.9073620  39.2576447
  79.7127304  27.9528370  39.2905350  80.4325867  29.1832447  38.7817192
  42.8335228   2.6924994  14.8841505  42.9525909   2.8175554  13.9426537
  42.7629662   3.5796590  15.2365723  22.1879845  11.7063913  41.4587784
  22.7990074  10.9701557  41.4298210  22.4528580  12.2663174  40.7290115
  14.2608585  40.4908447  70.7776489  13.8529539  41.0666580  70.1309052
  13.9673548  40.8331413  71.6220016  30.7032108  58.8143921  37.4560852
  30.2750320  59.6692734  37.4105911  30.3716621  58.3395920  36.6939354
  32.6655312  66.3311615  13.8634253  33.4222908  66.3173294  14.4493933
  32.9697990  66.8067093  13.0904408   4.9875169  55.8429146  15.7222414
   5.0791922  55.0103111  15.2589903   4.1021509  56.1386642  15.5103703
  72.6054840  53.8023872  43.0874519  72.3034744  53.6941719  43.9892883
  71.9748611  53.3090744  42.5628586  85.1971130  52.5265961  78.3597717
  85.8739471  52.9145050  77.8051071  85.5024261  51.6338959  78.5213394
  71.7383804  53.3735619  16.4669247  71.7396622  53.5130272  17.4139099
  71.4381943  54.2062607  16.1026001  12.6942654  49.0120316   6.0510125
  12.5078773  49.5286789   5.2670708  12.7368460  48.1085014   5.7378726
  81.9403000  37.3572655  13.6695843  81.3900604  38.0421333  13.2895479
  82.7015762  37.8248253  14.0132065  17.2743149   5.2670374  56.0458336
  17.6804886   5.6557145  56.8205490  17.8754845   5.4747472  55.3305130
   2.4222009  45.4155617  86.9655609   3.2234895  45.7442436  86.5579681
   1.9596933  44.9674110  86.2574081  70.6422806   9.0410042  58.8500519
  70.3965378   9.4562454  58.0233612  71.4026413   8.5024548  58.6308403
  70.1375046  17.3792019  22.7651978  70.7093277  18.0602360  23.1193714
  69.2710724  17.7850227  22.7364273  21.6275101  67.6726685  77.3922348
  20.7881489  67.5649033  76.9449158  21.3921909  67.9117966  78.2887115
  78.0393219  13.7560081  22.8984737  78.4031982  13.4207325  22.0790730
  78.7631226  13.7005091  23.5223885   5.6223426  24.1433067  45.6136818
   5.4229574  24.6295700  46.4137001   5.3578238  24.7296238  44.9048157
  37.8541451  10.4206285  83.6846771  38.2886581   9.8933916  84.3550873
  37.1127167  10.8214006  84.1384354  50.9422226  32.7221107  64.7204285
  50.9358444  32.2250214  65.5384140  50.4363174  33.5109177  64.9155731
  61.7391739  49.7477379  28.7384453  60.8428459  49.5464058  28.4695740
  62.2699165  49.0597076  28.3370056  61.3986206  12.3253117  86.2139816
  61.4023094  12.5719900  87.1388397  60.8125877  12.9585752  85.7995224
  25.6631260  36.0421753  54.6961899  25.0912094  36.7628975  54.9602013
  26.5010777  36.4610214  54.4996223  54.0512390  31.3686562  53.3295670
  54.9983101  31.3820190  53.4677849  53.9227409  31.8390293  52.5058746
  84.9965363  53.1041679   6.1249595  84.2617111  53.5260735   5.6796966
  84.7325058  52.1877899   6.2072716  44.3313713  16.2187309  84.9880371
  45.1763153  16.0976048  84.5548706  44.5450325  16.6578922  85.8112717
  25.2551003  53.0225563  17.4463043  24.5752335  53.3909149  16.8821011
  25.3790760  52.1308746  17.1210880  42.3026123  68.4931641   5.8918085
  42.2960777  67.9313202   6.6667433  41.6361809  69.1564255   6.0712166
  53.8343201  46.6219368  61.8649750  53.5877266  45.7317009  61.6141624
  53.0109749  47.1100464  61.8560371  80.4786377   2.1947491  23.7560558
  81.2499237   2.3028324  23.1995773  79.9827576   3.0049446  23.6381016
  19.6248817  35.8095284  16.5919876  19.5329647  36.0645943  15.6739874
  18.7981739  36.0713501  16.9972496  82.9943390  47.5891571  70.1559906
  82.7466278  47.1225319  70.9541931  83.9505539  47.6218643  70.1846390
  60.6420708  28.5743713  88.3897324  60.6952705  29.5080414  88.1856155
  59.8815155  28.4981232  88.9659042  32.1389732   6.2517099  66.1877213
  32.8744431   5.9859800  66.7397156  31.4938412   6.6033411  66.8012314
  68.8726120  64.5970612  66.6084518  68.8015442  63.6429558  66.6380157
  68.3891068  64.8489838  65.8216858  59.9264107  27.5119190  16.0903893
  59.6713028  27.1109066  16.9212570  60.3737602  28.3199406  16.3418007
   3.1827161  55.8527641  59.8462029   3.4994471  56.7268143  60.0741272
   3.2318118  55.8218231  58.8907623  40.0692787  49.5203972  59.2415771
  39.3738518  48.8667984  59.3152237  39.8285713  50.0409164  58.4751854
  39.2521095   1.9274044  31.7126675  38.8284912   1.0692817  31.7328243
  39.4681358   2.1094086  32.6272392  38.6452522   9.6946440  86.4298630
  38.0603180   9.2930222  87.0723419  39.1237755  10.3598852  86.9245377
   1.1843648  48.2461510  37.5149574   1.9779830  48.6366119  37.8809357
   1.2709925  48.3689766  36.5696335  17.3771267  50.5257301  28.1462307
  16.7183781  50.0408363  28.6433830  16.9623737  50.6946259  27.3002472
  63.6791267  53.2765312  24.3991852  63.0201874  52.5921974  24.2820759
  64.5161743  52.8203964  24.3124542  50.2466125  46.4877319  78.7924652
  49.3073273  46.6717033  78.7810593  50.3595543  45.7789230  78.1591644
  71.3839264  28.9826412  42.6082573  71.6619263  28.3837681  41.9152260
  72.2006912  29.3311462  42.9655533  81.9617233  50.1452065  15.1293726
  82.3592606  50.3786621  15.9682388  82.2468414  49.2452087  14.9714279
  36.6040001  44.6547127  19.4224129  36.0456963  43.8867340  19.3010406
  37.4752426  44.2939034  19.5866928  23.0420837  44.3168602  21.4621181
  22.7852306  45.1419983  21.0505276  22.5639229  44.3037453  22.2912273
  82.9772644  69.7277069  14.6116009  82.9790039  68.7785492  14.4877806
  82.4888763  70.0662460  13.8612041  69.1395187  38.7052536  30.3454285
  69.2440491  37.7829361  30.1116753  69.1753006  39.1697960  29.5092754
  60.7619896  58.4742393  74.9761353  59.8894157  58.3584175  74.6000671
  61.3205261  58.6799088  74.2264938  45.6188622  55.5998039   6.1160512
  45.6792221  54.6475792   6.1925864  45.9447708  55.9285660   6.9538660
  29.2002735  56.7597656  32.6165085  28.3295212  56.4395332  32.3809814
  29.5522633  57.1179237  31.8016129  68.9187622  51.2553673  30.1154079
  69.0515366  50.3713074  29.7732964  69.1315613  51.1864929  31.0461082
   6.7311740  47.5360794  39.2032433   7.2510681  46.7348824  39.1398087
   5.8371258  47.2578125  39.0045547   7.9180160  30.3886414  18.3114395
   7.7758632  29.5337448  18.7178555   7.1802473  30.9209652  18.6090317
  24.5389957  69.2921143  83.5025558  24.5050583  68.4222946  83.1044388
  23.8685379  69.7939911  83.0390472  44.5128937  19.6251526  18.8273659
  43.7007103  19.1886044  19.0843067  44.2259254  20.4264832  18.3894749
  54.8030014  66.5475388  48.4127960  54.9273071  65.9115906  49.1173172
  54.6748161  67.3822327  48.8634453  58.5640945  66.0763855  78.8479843
  58.7831192  65.2678680  79.3111954  57.6308060  65.9946671  78.6517105
   6.2755046  42.1351280  22.6083450   6.0287204  41.8902321  23.5001736
   5.8533626  42.9825325  22.4671612  23.4380608  35.0640297   3.5096660
  24.3771629  35.1175880   3.3323247  23.1535015  35.9758987   3.5709450
   5.4754677   0.6301436  41.1657143   6.1518455  -0.0109099  41.3843346
   5.7220273   1.4148693  41.6552505  23.5917072  34.1592140  32.5099220
  22.9018955  33.9258270  31.8886948  24.3905716  33.7947922  32.1288109
  13.1346283  29.2077007   6.0400176  13.7786837  28.6246567   5.6381645
  12.4420462  28.6233330   6.3483644  75.7322617  35.3168907   0.4932217
  75.2764664  34.8452110   1.1903565  76.0697174  36.1052818   0.9184194
   5.4055214  17.2124748  28.4179306   5.7634549  16.6897507  29.1354790
   6.0197616  17.9403400  28.3222656  41.4566498  46.8486748  28.5281296
  40.9296227  47.6128807  28.7614956  40.8552055  46.2810860  28.0461159
  16.5060024  52.9846153  39.9597168  16.7434292  53.0335922  39.0337257
  16.6003799  52.0585022  40.1825142  10.9799881  36.1235809  34.3483696
  10.4186802  36.3269844  33.6001740  11.8453579  36.4426422  34.0923119
  19.7926865  30.1019974   4.2064533  19.6710453  29.6761646   5.0550408
  19.6775684  31.0347729   4.3878641   8.5763359  55.6731415  82.4323196
   9.0806065  56.4465179  82.6849594   8.8683643  54.9893608  83.0351410
  34.2916870  47.4530640  72.6178513  34.0500641  46.7763786  71.9854355
  34.4175110  48.2410316  72.0891571  62.1093979   8.3067465   2.8885624
  61.2936783   8.2618170   2.3897517  61.8520508   8.1019230   3.7874787
  65.8735275  16.9436321  30.7225513  65.6213837  17.8645744  30.6553307
  65.7419815  16.5943375  29.8411198  75.8226852  47.8708916  15.4048061
  75.5617981  48.3405838  16.1969929  76.4859009  47.2483864  15.7029018
  63.6456909  53.2544556  53.6082573  63.5290070  52.3282394  53.3967361
  63.5746841  53.7033157  52.7658119  64.2746506  63.7741776  68.8622055
  64.5968170  64.6265030  69.1554337  64.5716400  63.7050934  67.9548721
  26.0582066   5.6230373  24.3659096  25.7305832   6.1121807  25.1206493
  25.4451103   4.8944807  24.2681847  59.1482811  18.4798317  63.0847855
  59.8150558  18.7091217  63.7321434  59.2097702  19.1688938  62.4232407
  10.4988089  50.8562965  30.9099350  11.2068176  51.4150429  30.5893784
  10.7403183  50.6591682  31.8149452  19.2311440  61.3539009  50.4343109
  19.7045326  60.6817436  49.9440689  19.7662048  61.5032806  51.2138176
  17.0241451  51.8239403  21.8226757  16.1645164  51.4792366  21.5809135
  17.5232983  51.0536995  22.0943508  81.2158585  35.6712799   8.7554560
  81.5477448  35.9853363   9.5965586  80.3472595  36.0660095   8.6782322
  11.2184277  12.7006521  15.1009550  11.3065081  13.6365709  15.2813139
  10.9874105  12.3146181  15.9458456  66.4337921  21.0544930  56.6954269
  65.5893097  21.4749298  56.5332222  66.2161179  20.1384182  56.8676376
  45.0637779  54.1922531  10.4652424  44.9060173  53.6648865   9.6821537
  45.6156921  53.6398392  11.0188360  79.5726395  34.7439957  37.8659325
  79.7914047  35.5892601  37.4736252  78.6175690  34.6989555  37.8206978
  45.7568512  63.7761536  40.6814194  45.3688850  64.4549179  41.2336845
  45.0172386  63.4104767  40.1961517  51.4300499  67.7198029  16.8495941
  51.3449707  67.3511734  17.7288570  51.4473076  66.9575195  16.2709312
  60.1523933  24.8320103  24.6417427  61.0586815  25.1364708  24.6883850
  59.9944992  24.4189472  25.4906712  17.4404297  65.9815140   6.7197528
  17.7284584  66.8840561   6.5830793  18.1157799  65.5965500   7.2782674
  24.1125641  17.0811081  85.3755646  24.8686714  17.0929413  85.9624100
  23.8589878  18.0004177  85.2930756  52.3992729  16.6657848  88.1626434
  52.2748032  17.5090618  87.7271881  53.3111076  16.4360943  87.9836807
  27.0375080  26.0987434  82.4437714  27.7675991  26.2540455  81.8445435
  27.4517059  25.8021450  83.2541428  55.1000328  41.0192680  56.9540443
  54.5745010  41.4464417  56.2776070  54.5031509  40.9234695  57.6961937
  18.3860283  38.5599098  79.2048111  17.9826679  38.9086990  79.9997177
  18.1043510  37.6455917  79.1746445  77.0684357  25.0998936  84.2435837
  76.6603699  24.3118172  83.8849106  77.5005646  24.8026314  85.0442886
  25.9807739  46.3702469  46.8192444  26.0794010  46.9256668  47.5925560
  25.6295528  45.5470924  47.1587868  18.4720383  65.5699921  -0.0036026
  19.2998505  65.9152985   0.3306470  17.8948612  66.3323364  -0.0475968
  32.4764595   0.2971064   6.9158950  33.3389702   0.6925732   7.0420399
  32.2112579   0.5754021   6.0392804  14.9103775  41.5320549  56.1561203
  15.2135363  40.8778000  55.5266151  14.6117859  42.2637596  55.6160469
  71.0655136  64.7332306  59.8731270  71.5168381  64.4893036  59.0650215
  70.3421860  64.1099930  59.9409752  22.3770123  10.6834583  86.9106750
  23.2642078  10.4198360  86.6665039  22.0976753  10.0244217  87.5461884
  54.2641945  33.5617638  87.1394424  54.3161926  33.3821373  88.0781937
  54.4044495  32.7106094  86.7245941  55.3315926  49.3229027   8.2518930
  55.2075310  49.8062401   7.4350553  56.1970825  48.9234428   8.1647434
  35.7168236  69.9270020   1.9782466  34.8759727  69.8529510   2.4295962
  35.4851723  70.0228043   1.0544549  13.0624599  50.5568886   3.8884013
  13.3930216  51.4551544   3.8974032  13.3299246  50.2117729   3.0365863
  36.2899284  59.2970543  88.0720139  35.5889053  59.7660065  88.5246506
  35.8899460  58.4701729  87.8027267  66.3129044  37.2672348  32.5550003
  65.6624527  36.6395607  32.8699226  65.8236542  37.8462334  31.9705124
   7.6758566  48.9300690  86.2483673   7.5613809  48.8749695  85.2996368
   6.8608756  48.5804596  86.6086578  24.5436821  13.6536245  23.5788383
  24.7229118  13.0161495  24.2700214  24.8967094  13.2518167  22.7850170
  70.3003006  59.4889488  59.2865868  69.6816254  59.9902420  58.7553825
  70.9498062  59.1694870  58.6602364  62.5496407  60.0253906  79.7660904
  62.2236786  59.8538475  80.6495819  62.6428032  59.1578331  79.3725204
  86.4475861  21.6633396  50.9767036  85.7433853  21.2502022  50.4770546
  86.2024307  22.5877457  51.0167198  75.7138214  37.4037247  75.0042725
  76.4159927  37.0808220  74.4395447  75.8576431  38.3490219  75.0485611
  29.6627789  54.1232109  29.9021740  30.6160221  54.2096138  29.9119186
  29.5064449  53.1837578  29.9982166  42.5626068  30.5439663  40.1611252
  42.7534409  30.4737072  39.2257767  43.0405197  31.3231487  40.4452095
  38.1133385  12.6247530  79.4248581  37.5574303  12.2291393  80.0961838
  38.9800034  12.6714249  79.8285217   2.8697648  62.3330574  14.9169464
   3.0653315  63.1294136  14.4231825   3.7269049  61.9973984  15.1793880
  80.4772949   5.6777840  20.5686245  81.0752792   6.3614936  20.2666531
  80.7451630   4.8953333  20.0867023  49.3432693  46.2086678   2.8164091
  49.0679932  47.1148720   2.9551568  50.0574303  46.2697487   2.1820011
  61.0435905   6.2156467  56.8155479  61.6631546   6.8796282  57.1180420
  60.4756203   6.6803308  56.2009659  64.4523239  46.4310417  16.5883408
  64.8952866  47.2744484  16.4951458  64.8053665  45.8953056  15.8780050
  33.4454803  29.3443012   7.4894695  34.1460953  29.3328190   8.1415710
  33.8200989  28.9021606   6.7276249  86.6740341  22.1521034  76.2269287
  86.3227844  22.7294788  76.9047928  87.0379028  22.7466125  75.5708923
  14.1575537   9.9341183   0.5563648  14.2151747  10.0305338  -0.3942222
  13.2189970   9.8742657   0.7345807  38.0385666  53.1174088  65.8432541
  38.9065437  53.4050560  66.1262741  38.0793724  53.1379929  64.8871460
  30.8187580  64.3695450  46.3732071  30.8335915  64.2178497  45.4282227
  30.1178398  63.8030548  46.6957512  85.4083862   2.5629585  57.6613426
  84.6641235   2.0416141  57.3605042  85.0393219   3.4286604  57.8362274
  18.2165775  37.6494904  59.2458382  18.0373573  38.4891357  59.6690483
  17.3510609  37.2838669  59.0629883  37.1282463  44.7094040  38.6807938
  37.2088661  43.9734077  38.0741272  36.6838188  45.3894653  38.1745949
  18.2541866   1.3735077  63.5881310  18.4253960   0.5971513  64.1212234
  17.7771358   1.9639896  64.1712112  57.9505653  60.1797409  57.6697578
  57.0914574  60.5962677  57.7380905  58.0031586  59.8870659  56.7599182
  63.3209000   2.6513190  29.1689110  64.1308517   2.3391826  28.7654572
  62.6703148   2.6029930  28.4684563  21.7006588   8.3268280   7.3201938
  21.8425808   8.4538517   8.2582531  21.2781982   7.4703250   7.2556896
  48.5747147  19.3987236  85.7553711  48.3446274  20.2771282  85.4525604
  48.0575027  18.8120213  85.2035522  39.4609795  51.4693298  57.3758163
  39.3088455  50.7927856  56.7159920  38.6473694  51.5002937  57.8791161
  52.6878166  47.6809807  68.4535980  52.6493187  47.9027328  67.5232315
  52.5545731  48.5148621  68.9042892  54.0407906  66.4498825  51.2274704
  54.9379387  66.3918839  51.5561028  53.6790199  67.2264099  51.6545105
  13.3709688  61.9306984  65.6206589  13.7803669  61.3158455  66.2294159
  12.7972021  62.4651070  66.1696854  73.5417786  38.6886330  60.7066116
  73.7117157  37.8698044  60.2409134  74.3923569  38.9407120  61.0660591
  67.9377747  60.1552544  81.7705994  68.3576355  60.2171097  82.6285782
  67.3513947  59.4023170  81.8446198  50.9842453   3.4223442  63.7534981
  51.6773148   4.0816407  63.7883682  51.3857536   2.6332886  64.1173859
  72.0597992  42.8968811  56.9271698  71.1792526  43.0041122  56.5674934
  71.9862823  42.1506119  57.5220718  37.8665924  57.7481422  43.7221603
  38.0535202  57.2506409  42.9260559  38.3351898  58.5743675  43.6038399
  65.4614029  70.6802902  77.3711090  64.5439835  70.4897385  77.1754913
  65.6673813  71.4444427  76.8327179  82.9171524  59.8311501  78.6488419
  83.5831833  60.1828957  79.2395248  82.8179550  60.5018578  77.9731674
   2.5459087   5.5252428  81.2035370   2.0193472   5.0816474  81.8685074
   3.4459593   5.4482093  81.5200882  64.4326172  24.3950272  63.3858109
  65.3382797  24.4248333  63.0774117  63.9159241  24.2340374  62.5962868
  83.3751755  50.4470520  28.6604004  83.5157242  49.5547409  28.3437729
  82.4405289  50.6042862  28.5264721  19.7221813  47.7556190  87.2166138
  20.3273773  48.4899101  87.3204498  19.6845131  47.6080780  86.2716064
  44.9339561  63.5228195  30.7915745  45.7907524  63.9312134  30.6677074
  44.3952866  64.2103424  31.1832085  51.1780472  23.8736801  62.4284439
  51.9007797  23.6259899  63.0051079  51.5333672  23.7786407  61.5447350
  32.0976830   0.4299030  51.2855072  32.7992821   0.8647140  51.7702065
  32.0296669   0.9234734  50.4681969  42.7184296  23.5605927  74.9961166
  43.2071266  23.5291367  75.8185577  42.0358772  22.8972187  75.0975571
   7.6452551  59.0898972  56.1341362   8.1965179  58.3170929  56.2570877
   7.9639921  59.4847984  55.3225365  28.0112076  14.6222019  60.4788246
  27.3418560  14.0486679  60.1056480  28.2846375  15.1777687  59.7488823
  42.8587151   0.1326846  53.1626587  42.2357063   0.5145584  53.7809334
  43.2016449   0.8815018  52.6749039  31.0402050  26.2528076  64.2398071
  31.5758591  25.5626469  64.6309433  31.5078964  26.4950066  63.4405365
  73.8775482  26.9894905  31.1279297  74.7681274  26.9059258  31.4686832
  73.9904175  27.0759983  30.1813526  50.7542000  23.7163601  66.1653442
  51.6214104  23.8251724  65.7750397  50.2903709  24.5248585  65.9475708
  36.1893806   6.8241692  69.2055817  36.8769875   6.6487694  68.5631943
  36.6542130   7.1802411  69.9627991   7.6394382  45.3129272  22.4148216
   7.9329848  44.6258850  21.8164635   8.2737303  46.0200806  22.2971802
   4.5765047  61.2248840  80.1905060   5.0278358  60.7807121  80.9083099
   4.5932345  60.5944176  79.4704590   9.7489443  71.9160690  30.0786476
  10.2888088  71.2781906  30.5454369   9.2806482  71.3993301  29.4229736
  58.2443275  68.7266693  17.7389889  57.9909439  69.2329483  18.5108109
  57.6373100  67.9866409  17.7280998   1.9205441  38.6167145  69.2077484
   1.3546953  39.0674858  68.5809708   2.4453161  39.3138962  69.6011734
  65.4617538  43.5062943  86.2797012  66.3683777  43.2850151  86.0668640
  65.3767090  43.2988396  87.2102661  21.7266159  55.8441772  15.5307732
  22.0335979  56.1142159  16.3962631  20.9938583  55.2548599  15.7096558
  48.2638359   7.1079063  71.2622528  48.5569916   6.2238941  71.4831924
  48.8464851   7.3836112  70.5546265  43.2769318  59.2835617  48.6027985
  42.7209778  58.5333633  48.3922119  42.6712036  60.0227127  48.6574211
  31.8569698  64.1875916  33.5109978  31.4729595  63.8988914  32.6830978
  32.6540680  63.6652145  33.6003571   8.7965612   0.3547216  87.3279114
   8.1275892   0.4284667  86.6472702   8.5318966  -0.4079395  87.8422394
  30.7391949  20.2696114   4.8165345  31.2240162  20.6871510   5.5284605
  31.3613892  19.6512680   4.4334445  67.0775452  68.1614532  87.8668289
  66.7516708  67.2614517  87.8732071  66.8840027  68.4800186  86.9851913
  23.4439087  21.2350483  51.3052292  23.7358017  21.3212013  52.2127571
  22.7591038  21.8970222  51.2100220  58.0919151  28.0098591   0.0232827
  58.0465164  28.3340473   0.9227675  57.9553375  27.0657120   0.1017944
   2.3178146  48.0966301  18.6557236   1.9098513  47.6824265  19.4161396
   1.6371405  48.0852165  17.9828300  35.7655067  58.9355125  82.2333984
  36.1084480  59.7368164  82.6290512  36.3108025  58.2371750  82.5956268
  55.3574028   8.2467079  59.6008072  54.9025879   9.0195713  59.2660522
  56.2111168   8.5747890  59.8832283  18.9821110  59.1003799  45.7528152
  18.4597931  58.3053474  45.8593102  19.8659191  58.7832146  45.5670166
  44.9822006  17.2020645   2.1961527  44.1768837  16.7496281   2.4471478
  45.6793900  16.5756664   2.3905396   5.4561453  61.1015244   4.6332216
   5.1402321  61.3799744   5.4928126   4.7945461  60.4828491   4.3237739
  62.0460396  59.8224754  20.8694878  61.1203537  59.8722534  21.1079426
  62.2224388  58.8851624  20.7885094   4.5102243   9.0122700   2.4542272
   5.3561268   9.4545174   2.5256302   4.1828279   8.9749956   3.3529229
  20.0547390  44.2473450  35.1872940  19.4411850  44.2493858  34.4525948
  19.6347637  43.6972466  35.8485374  46.8542519  38.5948334  29.2517262
  47.1434441  39.5036430  29.1701202  47.4844666  38.0954018  28.7324657
  61.1531219  32.6743965  32.0763092  61.8343124  32.1713524  31.6300430
  60.5054550  32.8570251  31.3955688  44.7467842  59.2106667  35.0602188
  44.9087067  58.7582626  34.2323647  43.8310013  59.4843369  35.0084801
  63.3992348   9.1920567  87.3870773  63.9119568   9.1420841  88.1938324
  63.8201180   9.8850765  86.8783417  45.5989838  67.3184662  38.1661911
  45.7628708  67.4988251  39.0918503  46.3416824  66.7805481  37.8918343
  64.8388977  59.0701332  82.9550018  65.2630005  58.7048683  82.1785126
  65.1195526  58.5007133  83.6714020   3.2297301  35.2292786  17.3951473
   3.4819276  34.8888664  18.2534866   3.2447386  34.4641457  16.8201904
  69.7469788   8.7725830  34.0893440  70.4952698   9.1745234  34.5306244
  68.9926453   9.2826662  34.3843460  47.5094337  14.3443279  25.6271839
  48.0884018  13.6100969  25.8319569  46.9434013  14.4243546  26.3949299
  86.2114258  49.3304253  10.5571375  86.7750473  49.0073471   9.8541555
  86.7996368  49.8255234  11.1273270  48.1864853  57.2029762  31.6006660
  47.4699287  57.7581558  31.2931805  47.8364296  56.7691994  32.3788261
  54.7003136  49.6659813  34.5950317  53.8020706  49.4289322  34.3643761
  54.6068382  50.4166718  35.1815109  80.3172379  69.6893921   5.2978520
  79.4252243  69.6799927   5.6449251  80.8765869  69.6650543   6.0742307
  69.7636566  21.3722115  12.9581308  68.9924240  21.1538773  12.4349070
  70.3186417  20.5942898  12.9028645  50.6139221  23.8372059   0.3728345
  49.8591156  23.9238834   0.9550599  50.3162537  23.2462864  -0.3188592
  22.0630207  52.8953438   0.2680601  22.9050770  52.8863144   0.7231313
  21.9952621  52.0263786  -0.1275920  81.7112885   7.8944440   7.8127236
  81.9403839   7.7063580   6.9025755  81.7488403   7.0437264   8.2498751
  39.7976875  66.8499680  50.2883492  40.3997192  67.1923676  50.9490700
  39.0334053  66.5615082  50.7872429  36.2611656  14.9974651  73.9148636
  36.1691322  15.7321262  73.3082047  36.3668213  15.4075127  74.7733154
  25.0593834  43.3820305  51.7280502  24.3384495  43.4104500  52.3570786
  25.3381710  44.2936745  51.6419182   3.5703621  16.3669701  47.9356956
   3.7755592  16.5505428  47.0189476   3.0654960  17.1270142  48.2249641
  45.0045815  21.7038040  63.9354286  45.3293724  21.3118095  63.1248207
  45.7936134  21.9869175  64.3974915   2.1995473  34.7650261   5.2151370
   1.7646310  34.2213097   4.5582895   1.5922210  34.7788391   5.9548640
  12.1013613  22.8379116  17.4591293  11.9842396  22.3546524  18.2770386
  12.9803152  22.5999489  17.1640930  10.6723404  27.9187737  79.5980377
  10.2871475  28.7753220  79.4131546  11.5138063  28.1181107  80.0084457
  45.9701691  70.0831146  31.0144405  45.4838333  70.7197037  31.5383339
  46.8555412  70.4430313  30.9614010  48.7091942  18.8202724  70.0650024
  47.7527733  18.8549614  70.0818787  48.9182014  18.3728065  69.2450485
  80.0024490   7.4655375  60.4854736  80.1565247   7.7427702  61.3885994
  79.0744858   7.6454887  60.3346939  73.6591644   1.8581144  81.6275482
  73.5234528   2.5785820  81.0121307  73.9638443   2.2824376  82.4296417
  64.0207443   5.0201120  52.3878822  64.1785202   5.5267825  53.1845131
  64.8506165   5.0569606  51.9122963  60.8896294   8.4243937  73.3240891
  59.9374695   8.4921131  73.3950882  61.1663132   8.0515947  74.1611633
  13.2319756  64.3793869   4.7791886  13.2968760  65.3322983   4.7160921
  13.8130131  64.1471939   5.5035577  33.8773727  62.3769226  30.4672222
  33.9899788  61.4701805  30.1819630  32.9338951  62.5293694  30.4138927
  46.0380974  20.9847641  61.3423615  46.7178802  21.6332188  61.5257568
  46.4554214  20.3620815  60.7470970  15.3601866  46.0408363  71.1503296
  16.2042789  45.9393387  71.5901489  15.5604811  46.5432930  70.3606186
  63.0288124  61.4984016  43.9696846  62.8359299  62.1146126  43.2630615
  63.5480270  62.0050049  44.5941887   5.1912322  33.9228783  11.8104639
   5.1256232  34.6091423  11.1464090   6.0545435  33.5344200  11.6689587
   7.6998773  39.7152405  44.2015076   7.0888996  39.5623093  43.4807091
   7.2708039  39.3292885  44.9651604  27.2776966  67.6832962  24.0493202
  27.1370430  67.0275269  24.7322617  27.2830009  67.1823425  23.2336922
  61.8128090  23.4608860  79.6649246  62.0151596  23.4314308  78.7298203
  60.8564262  23.4722404  79.7027817  59.2976570   1.5805335   9.7642059
  59.5892792   1.9533808  10.5961742  58.3683739   1.8044736   9.7140169
  35.1198502  46.0775986  17.6346436  34.3079491  46.0862083  18.1415672
  35.6905861  45.4713173  18.1067867  38.9068756  57.3075752  82.1604080
  39.4196663  56.5900307  82.5324478  38.2091331  56.8737907  81.6692734
  36.4106712  41.1346512  61.8917351  36.1566467  42.0313797  62.1098595
  37.2261200  41.2297058  61.3995552  34.3551712  70.5302429  62.7035866
  35.2103004  70.8003387  62.3688660  34.5354576  69.7382431  63.2100067
  40.6461449  36.9121857  19.9319801  40.9244118  36.1235886  20.3977184
  41.3455658  37.0760994  19.2993851  58.7424545  30.6938190  36.4879570
  58.2065926  31.1605816  35.8466988  59.6442108  30.8633785  36.2153511
  59.3641968  44.0477295  53.2657242  59.0710449  43.6585999  54.0896606
  58.6024017  44.5298958  52.9441452  73.5583267   0.3450250  84.1924515
  74.4351196   0.7289840  84.1864395  73.6498718  -0.4688795  83.6970596
  85.9093323  31.6998520   8.6013632  85.2070618  32.3335762   8.4549437
  85.9804077  31.6369171   9.5538445  86.1636200  49.0424004  46.5688591
  85.8121872  49.3203430  47.4147186  86.6645584  49.7965508  46.2581367
  36.9475403   9.7502680   4.7308693  36.0697327   9.7223949   5.1115427
  37.1119003  10.6804008   4.5757241  86.3631058  61.9494438  51.9777107
  87.1016312  62.5472336  51.8617172  86.7622833  61.1288414  52.2666702
  43.3937759  52.2501030  57.4869347  43.6632309  51.3334808  57.5455132
  43.9646263  52.7074814  58.1043205  21.2065697  43.6492882  13.0057497
  20.6328907  43.8490868  12.2660170  21.7968979  44.4007607  13.0608311
  78.8269806   4.6866832   0.2088539  78.5757675   4.1831584   0.9831841
  79.7805328   4.6112647   0.1730918  72.1008224  18.6754265  76.4833145
  72.7352066  17.9892902  76.2759476  72.5384140  19.4894600  76.2341309
  64.2027893  21.8235188  16.3545151  63.7134933  21.0586395  16.0515633
  63.5288162  22.4494781  16.6194057  18.4489460  67.8258667  70.3281021
  17.9269695  67.0543289  70.5483246  19.0292873  67.5301895  69.6266708
  63.0176544  29.0697575  21.9681358  63.5968513  29.3892994  21.2762852
  63.4575119  28.2904034  22.3077888  53.8478622  33.2276459  35.8843803
  53.4673653  32.6672935  35.2080193  53.7210541  34.1181145  35.5569458
  50.4342575  54.1277733   2.9511616  49.5489922  53.9680176   3.2782941
  51.0033455  53.9351883   3.6963315  68.1282043  35.1237183  81.9742508
  68.4666977  34.4059830  82.5095215  68.2690811  34.8367233  81.0720215
  67.1986542  10.2002411  72.1958313  67.2775345   9.3655825  72.6577301
  66.2933731  10.4724989  72.3460464  60.8960724  47.2199554  34.8909111
  60.3135452  47.9058380  34.5646286  60.9644585  47.3906517  35.8302803
  68.6377563  17.8646984  64.2258301  68.3689041  17.3147430  64.9617004
  69.5871582  17.9427719  64.3194885  42.1071548  39.2959557  80.3198929
  41.7993050  40.1880798  80.4798126  42.1738625  38.9057655  81.1914062
  71.4348679  63.5853348  68.5870132  71.5553055  64.0693130  67.7700043
  71.8589630  64.1281128  69.2516708  53.4227448  17.2179928  24.6940002
  53.5954094  16.3195496  24.4125443  53.5156097  17.7405586  23.8974247
  48.5944786  45.5275955  73.7044220  49.4016228  46.0352631  73.7881927
  48.2587204  45.7529907  72.8368454  34.2399673  63.6851311  26.4001102
  35.0549355  63.7897301  26.8911476  33.7929230  64.5260773  26.4960346
  50.9535522  16.6739502   9.1392803  51.1498146  16.2577991   8.2999163
  50.8741760  17.6051044   8.9321985  21.9886150  35.5272713  89.2988052
  22.5701733  34.9774895  89.8239365  22.0174980  35.1394157  88.4241791
  45.9739189  55.4448662  80.8394547  45.9813919  54.8371696  80.0999374
  46.7627678  55.2274361  81.3361130  77.3178101  10.4330921  63.4687195
  77.0007782  10.2913904  62.5767288  77.1427994  11.3582602  63.6409683
  51.8889580  34.4129982  21.2532444  52.3830490  35.1803970  21.5416965
  52.1792870  34.2656631  20.3531132  44.9426575   2.2435379  12.1470490
  44.2154694   1.7483399  11.7699413  44.5774040   3.1112683  12.3198643
  60.3906097  41.0012283  22.6443882  59.5742378  41.2070007  22.1889420
  60.1299095  40.8707962  23.5561218  38.1392097  23.5751495  62.5812416
  37.6587296  24.3487720  62.8759995  39.0248642  23.6987782  62.9226532
  64.1745453  37.2958450  12.0965624  63.2302094  37.2254257  12.2362413
  64.2652054  37.9364128  11.3910952  87.0823593  57.3495903  29.7619934
  86.2216644  57.4143639  30.1758041  86.9927216  56.6330490  29.1336899
  38.7739906  29.6330833  13.6610889  38.8331070  29.6549606  14.6162109
  39.4588547  30.2326565  13.3649340   7.7353163  42.6127586  55.5770760
   7.7001400  43.4380569  55.0934677   6.8739233  42.2182846  55.4406090
  54.0404549  54.1131706  46.2398987  53.5955582  53.4650192  45.6938210
  54.5696182  54.6215172  45.6252441  44.9813728  26.4146156   7.2659183
  44.1425362  26.5156555   6.8160515  44.9359169  25.5458431   7.6651697
  69.8130417  11.0816460  57.0602684  70.5661850  11.5845242  57.3703079
  69.1096649  11.7263460  56.9837456  18.5037975   3.4193268   1.4245712
  18.1499996   3.7767322   2.2390163  19.3614292   3.0711432   1.6684303
  36.9095039  53.6569443  21.8151569  36.8458405  53.7121506  22.7686405
  36.1583900  54.1568947  21.4956131  28.7332020  53.3186035  49.2915726
  28.0191040  52.7780304  49.6293259  28.3646069  53.7468834  48.5189476
  59.4201355  26.0366745  22.3796711  59.6955986  25.6492653  23.2104931
  60.2213593  26.0786362  21.8576431  26.8199730  45.8404655  27.2821903
  27.4338665  46.5747490  27.2683144  26.2294178  46.0080910  26.5477676
   4.1501541  53.5048637  66.4234467   4.5841231  53.9640579  67.1425018
   4.1062999  54.1509094  65.7185135  67.1021957  61.5800858  16.5256557
  67.0086594  60.8773346  17.1687927  67.1233215  61.1304207  15.6809139
  16.9363041  31.3854351  50.7373810  16.3467312  31.4513969  51.4885712
  17.2818737  30.4938908  50.7816925  16.0907726  63.9443207  12.9576969
  15.6081676  64.3786926  12.2543859  16.7745762  64.5687332  13.2000923
  64.9553223   3.3448586  87.3961105  65.4256134   4.1554079  87.5912247
  65.6324387   2.7439997  87.0851288  60.7067833  35.0389023   5.8005295
  61.3898544  35.0097160   5.1306067  60.9333153  35.7959213   6.3407459
  62.1019783  60.9132004  34.4629478  61.9695053  60.4270515  35.2767906
  61.2750130  60.8187943  33.9902458  73.2186661   4.2536383  34.5972328
  73.1577377   3.3065028  34.4729195  73.6938934   4.3569117  35.4216881
   3.3675580  42.5854111  46.3759232   2.4820735  42.8306274  46.1075630
   3.5532382  41.7845039  45.8857117  24.9419785  65.2513428  17.3389111
  24.0055904  65.1375351  17.1762638  25.1213570  64.7007217  18.1010571
  16.1149654  28.3133106   7.4858708  15.4630671  29.0082397   7.5771570
  15.8050900  27.7897949   6.7468567   5.3835874  24.1107006  50.6849709
   6.2136278  24.3940125  50.3015671   5.6217623  23.3857708  51.2628822
  58.5659904  57.5892372  46.9049568  58.4049606  58.2050667  46.1900711
  59.4154472  57.8511887  47.2599640   2.0287428  57.0768471  53.2363434
   2.5683639  56.8385925  53.9901848   1.8205252  56.2417908  52.8173447
  56.5804138  52.6373062  12.8425379  57.1550751  52.2551003  12.1792774
  57.1772957  53.0393295  13.4736786  32.8537025  49.0957985  88.6804504
  33.1194077  49.9110107  88.2549362  33.0042801  49.2521095  89.6127167
  21.8753452   4.8891058   1.9156487  21.5808868   4.0490437   1.5637665
  22.7818508   4.9686351   1.6187365  19.8683281  49.4241295  38.7639236
  20.0435734  50.0424538  39.4732895  20.7272415  49.0647316  38.5418167
  41.7762985  40.1681938  62.9819794  42.2436600  40.5212746  62.2249184
  42.3293266  39.4509277  63.2916908   5.5185041  55.0393753  64.4168320
   5.0556412  55.1337013  63.5843086   5.1828074  55.7527161  64.9596710
  86.8395996  21.7042027  25.8938541  86.1264954  21.3181992  25.3852081
  87.6147385  21.2049026  25.6367798  53.1622429  39.0626945  28.1830425
  53.6318932  39.3394127  28.9698639  52.4800377  39.7239113  28.0663280
  77.2864914  39.6057167  33.1977959  77.3307266  40.2928238  33.8627472
  77.4490967  38.7949715  33.6799622  55.1250534  32.9225388  78.7558899
  55.6058197  32.2952690  79.2959061  55.1721039  32.5618515  77.8704910
  81.8966751  55.3742104  28.6773529  82.6461105  55.1367722  29.2234344
  81.2208023  54.7368240  28.9079399  52.4956055  19.1721802  51.2701340
  52.2637711  18.2915993  51.5651932  52.4151268  19.1343727  50.3170700
   7.4286680  17.1012211  86.9411469   6.6245289  16.9152832  87.4259415
   7.6962109  17.9686832  87.2447357  73.4360657  30.2582951  47.0400391
  73.7734070  29.4529877  46.6477242  72.8366165  29.9588757  47.7235909
  34.3491936  62.7475014  74.2246094  33.6219711  63.1714516  73.7689285
  34.4643631  61.9139290  73.7683945  78.7667542  71.0598373  80.9166870
  78.1491241  71.7872467  80.9918442  78.4172745  70.3875046  81.5015564
  15.3273621  11.4687757  72.7156830  15.6497574  10.8884983  73.4052963
  16.0516148  12.0731726  72.5532150  72.4453201  65.3076553  37.4415359
  72.7567520  65.6640701  38.2735252  73.2099609  64.8701324  37.0671921
  40.9748306  53.4216995  44.1997528  40.7732353  52.7342262  43.5649529
  40.2338486  53.4130020  44.8056412  51.6977844  52.1178246  30.2702427
  52.1999550  51.8003693  29.5197220  50.8747292  51.6307144  30.2310467
  28.5795078  38.5444717  15.7914467  29.2919064  39.1837730  15.7949514
  28.7522869  37.9891586  16.5517159  54.3368950  45.4936142  68.7202606
  54.2419395  46.4431725  68.7947693  53.6379471  45.1391563  69.2698593
  63.7830353  36.8928757  19.7591667  63.0159035  37.1855698  20.2511749
  64.4144363  37.6061020  19.8533764  54.5670166  21.5240116  42.6501236
  53.9310532  22.2331161  42.5554924  54.2103882  20.9739361  43.3475914
  69.7509079  36.7342453  43.1787987  69.2586365  36.0959167  42.6626205
  70.2555771  36.2048759  43.7962952   0.7989376  66.8286438  51.2194099
   0.2506781  66.1694107  50.7939072   1.2037034  66.3661346  51.9532280
  50.0551796  28.7254601   9.2982950  49.5679359  27.9138947   9.1562119
  50.7936821  28.6707573   8.6917858  29.8640041  40.3138275  49.0492668
  30.2452297  39.4797707  49.3235817  28.9199696  40.1556892  49.0446434
  74.0713806  44.6001434  74.7167740  74.4284134  44.6372719  73.8294296
  73.4352341  43.8854446  74.6892776  11.0390968  20.2672462  15.0573044
  11.9960022  20.2728920  15.0342283  10.8148041  19.4433517  15.4898815
  85.9482346  35.4574356   9.7377081  86.2133789  36.3674583   9.8710709
  86.5685577  34.9483070  10.2594566  60.9355698  64.3578568  22.0871239
  60.3735008  65.1323395  22.1093597  61.4801292  64.4793777  21.3093567
   4.1578450  55.6134644  43.8412399   3.3449094  55.4169197  43.3756866
   4.5338712  54.7557640  44.0391846  39.2606888  19.0244732   9.4853659
  39.4063988  18.5304737  10.2921896  39.3379860  18.3729801   8.7883606
  84.6781235  22.7967091  14.9985437  85.1305466  23.1237583  15.7760916
  83.7641068  23.0490551  15.1293859  67.6473923   4.3734550  20.8556519
  68.0533829   3.5094497  20.9256477  67.1221390   4.4564657  21.6515484
  36.1452675  43.0277023  58.6295166  36.0427971  42.1098175  58.8809547
  35.3241882  43.4418793  58.8950615  64.8652267  55.1110039  18.4564857
  65.6352539  55.1305313  17.8882294  64.9339676  54.2788429  18.9244804
  34.5738869  60.4190903  72.7714615  34.9845467  59.5959854  73.0361938
  34.5603485  60.3832474  71.8150253  11.4084806  62.4159431  56.7111740
  11.6056061  61.4793510  56.6982193  12.1043406  62.7998047  57.2447090
  37.5932083  33.0865555  88.3178711  38.3383331  33.6870613  88.2976379
  36.8264465  33.6533699  88.2340012   3.7101552   5.6036453  65.2502670
   3.0788641   5.5948687  64.5308075   3.3310668   5.0213671  65.9086609
   4.8779860   4.9055538  71.7114639   5.0701137   4.5054359  72.5595322
   4.0224442   5.3182406  71.8296585  83.7787857  15.8519888  32.6925964
  84.2797852  15.7085714  31.8896866  82.8654785  15.7424650  32.4278145
  49.9330559  10.7491522  14.0369606  50.0530014  10.2525959  14.8464527
  49.4829674  10.1429605  13.4485884  83.4631882  66.9333115  20.9232788
  84.2763672  66.4903336  21.1656437  83.6560364  67.3436432  20.0802708
  81.0288239  30.2856026  85.6061020  81.9726868  30.1265354  85.6132736
  80.8104401  30.3892612  84.6799316   2.7354250  37.0532646  52.4003563
   2.0926385  36.6458092  52.9809036   3.5515182  36.5871429  52.5818863
  59.8855476  35.3666420  27.4412613  60.0803032  36.2470856  27.7623882
  60.6370964  35.1397552  26.8936043  58.5442009  63.9470253  16.6894531
  58.4311104  64.5403595  17.4320164  58.1413879  63.1268921  16.9746780
   2.5725105  55.7924461   8.9331636   3.1480906  56.4157906   9.3763142
   3.1529875  55.0811157   8.6624451   8.4568443  58.6211014  59.6877899
   8.0310841  59.2186127  59.0730209   9.3931408  58.7420464  59.5298271
  13.0757685  69.5232010  68.9175568  12.2941809  69.6399307  69.4576721
  12.8202953  68.8720474  68.2641296  85.6025162   3.6575422  17.6865387
  86.3855209   4.2042856  17.7514172  85.2982407   3.5668240  18.5895443
  85.7421036  35.9073639  55.1778984  85.1883011  36.0758324  55.9402351
  85.4564896  35.0512810  54.8588676  32.9470406   6.1515970  31.7192955
  33.3590279   6.7562280  32.3364830  33.0853958   6.5535779  30.8616810
   3.1071317  38.9890785  23.1636963   3.2417557  38.4625702  23.9516659
   2.9434147  39.8733444  23.4915676  48.1758728  64.2027283  14.5229425
  48.8478279  64.4814148  15.1450672  47.9113464  63.3351364  14.8287964
  49.7752151  11.8810835  27.0362473  50.0232773  11.3575411  27.7982178
  48.9157677  11.5438976  26.7834854  84.7760010  60.3856888  14.3873444
  84.5534821  60.9313774  13.6330614  85.6078110  60.7396851  14.7019987
  63.4800377  16.0840950  53.1632690  62.9417076  16.3456211  53.9102898
  64.2884140  15.7532005  53.5547600  56.9368706  19.3012199  68.2523422
  57.8351974  19.0481129  68.4648895  56.4117432  18.5337658  68.4792480
  69.6167755  27.5326767   2.0976310  69.5089722  26.7954388   2.6985376
  70.4030304  27.9817314   2.4080987  76.9043198   9.7985239  72.6835785
  76.8191757  10.3202600  73.4815598  77.7123566   9.3006964  72.8079910
  72.7527313  20.8347282  54.6983147  72.7753525  19.9151611  54.4335136
  73.1416550  20.8417587  55.5729103  68.0017471  28.0273495  67.6704941
  67.7601013  27.3852463  68.3379898  68.5364990  27.5354042  67.0473938
  16.9529114  42.1282730  31.6068935  17.3964748  41.3945961  31.1812191
  16.0511284  42.0796280  31.2896404  77.4058838  69.4158630  27.7728844
  78.0196838  70.1503525  27.7706795  77.8330688  68.7451401  27.2400913
  38.0644569  54.8623924  15.5473652  38.8418388  54.9670181  14.9987659
  37.5881233  54.1327744  15.1511374  66.3573990  40.5757942  65.6849289
  67.0182724  40.4934578  66.3724518  65.7738037  41.2680969  65.9953537
   9.5334625  69.6443634  74.8498306   8.8101597  70.0352173  75.3400269
  10.3198299  69.9290314  75.3154678  86.0746384  57.6643143  49.2201004
  85.1368561  57.5253181  49.3523216  86.1904373  58.6108971  49.3025818
  79.0189667  17.3933487  49.5808258  78.8090668  16.4980183  49.8464508
  79.9276657  17.5176487  49.8547783  49.0931168  34.6823196  17.6793346
  48.6048164  35.2188034  18.3038177  49.3533096  35.2937698  16.9903812
  57.6951942  45.0583954   8.6670332  57.9530144  45.3514442   9.5410366
  56.7513466  44.9128914   8.7319317  85.1578598  67.3163528  25.2243881
  85.4867325  68.1434708  24.8723297  85.5915375  66.6434097  24.6996975
  26.4447975  15.6935167  48.2568474  26.8059731  16.5795078  48.2852287
  26.1389046  15.5308704  49.1491547  41.0986938  21.2753830  71.1766815
  40.6357918  20.4376411  71.1647873  41.5805779  21.2710381  72.0037231
  22.0234356   3.4427848  17.5409374  21.9360065   2.5362127  17.2464619
  22.9584675   3.6314156  17.4611492  66.2763748   9.5825520   7.3920784
  65.7223511   9.7173100   6.6232257  67.1539459   9.8307295   7.1013970
  69.4360046  40.8059120  80.1264954  68.7280731  40.7914276  79.4824142
  70.1673737  41.2209549  79.6692505  75.2189178  38.4519806  57.7195892
  75.4917068  37.6071053  58.0773659  74.3088608  38.3175049  57.4551048
  60.8645363  31.5177078  82.0871887  61.7141647  31.1691685  81.8172150
  60.2301903  31.0497208  81.5442123  45.7618675  62.8458214  -0.0692463
  45.8840256  63.1490974   0.8303836  44.8383598  63.0149345  -0.2556959
  13.3729324  11.0820780  59.2959938  12.6821442  10.9854593  59.9515152
  13.3166866  10.2846909  58.7694550  27.6260452  37.7794991  54.2380714
  27.7497845  38.2541466  55.0600395  28.5116043  37.6595802  53.8950882
   7.4508834  45.1162910  84.8195419   7.7329702  45.4083977  83.9527435
   8.2497368  45.1245537  85.3467941  51.5631027   6.8462210  14.0752211
  51.6280403   7.4234338  14.8360367  50.8649330   7.2284217  13.5435104
  58.1357918  57.0853729  63.2324600  58.8847466  56.5090370  63.3845558
  58.2255554  57.7737312  63.8915024  67.8419189  45.6671486  30.0334625
  67.5592880  45.2888718  30.8660831  67.1662827  45.4032593  29.4088783
  83.6220169  38.3900070  77.3835373  82.9445877  38.1768417  78.0253143
  83.5798950  39.3424644  77.2982025  33.9228134  13.3425646  71.3936920
  33.6908836  12.5989056  70.8374481  34.4459724  12.9605751  72.0984116
  38.6113434  65.3969269  32.5388947  37.8457146  65.8897705  32.2436943
  38.3855057  64.4816360  32.3731613  59.4329872  45.0148659  46.6462479
  59.3147354  44.4257088  47.3913269  60.2643700  44.7443275  46.2565765
  58.7402000  61.8192863   7.9549818  59.1154289  61.3293495   7.2232728
  57.8625832  62.0592422   7.6575818  11.9507236  60.5047798  75.2936935
  11.7499285  60.1009941  74.4493713  11.6771431  59.8549461  75.9410706
   0.4050604  28.7690945  22.7238197   0.3113343  29.6254959  23.1409817
   1.3207408  28.5309429  22.8688869  42.2056885  19.5681667  85.3463058
  42.8971367  19.5459957  86.0078506  42.2490768  20.4531136  84.9840622
  37.0969734   2.7397144   2.2283092  37.8112526   2.1470573   2.4623940
  37.2131500   3.4945025   2.8053966  76.2027740  30.1040802  57.2663689
  76.1006241  29.1596451  57.1487274  75.7421799  30.2948608  58.0834923
  44.4520569  42.7401428  56.9822769  43.5436745  42.6891708  57.2797165
  44.9503746  42.9563713  57.7704124  10.3726988  38.1859245   7.7723060
   9.7858515  37.5710526   7.3321066  11.0326281  38.4008598   7.1131186
   9.8223362   8.0458565  16.8443623   9.9366827   8.2983265  15.9281664
   9.5448275   8.8507776  17.2817669  68.2121429   7.7960496  26.5630493
  68.0273590   7.6901412  27.4962559  68.7334595   8.5971746  26.5115242
  62.9129066  51.1750526  58.7951546  63.2337875  51.8261032  58.1711388
  62.0431442  51.4888496  59.0426903  72.2391357  64.0050507   3.4053891
  71.9569016  64.4683456   4.1940188  71.5424118  64.1680374   2.7695882
  28.5229473  71.0580444  78.5029449  28.3361759  70.4164429  77.8175964
  27.7636147  71.0155487  79.0841827  21.6007710  14.8428078  57.5273170
  21.3772030  13.9442968  57.2845726  20.9539394  15.3818941  57.0720940
  34.3023148  11.1007004  63.1254997  34.9641037  11.0103025  62.4398613
  34.6953659  10.6866961  63.8938370  54.4853630  44.2889748   5.9238148
  53.6952286  44.2993774   5.3836174  55.1477509  43.8739204   5.3713632
  13.8067732  27.9437542  59.9854126  14.0087385  27.1309395  59.5219765
  13.1462631  28.3721294  59.4409370  73.6016693   7.0087752   3.9168496
  72.7407913   7.4107299   3.8004317  73.4636383   6.0837626   3.7130582
  13.1999350  50.8177605  88.1003723  13.6320925  51.6161804  87.7970581
  13.5314054  50.1312904  87.5214767  11.4011202  46.6572952   2.0169637
  11.3508368  46.5756683   2.9693506  11.8105879  45.8417892   1.7279657
  13.8197260  40.8177376  13.9672232  13.0430613  40.3014183  14.1827145
  13.8444748  40.8251877  13.0103722  21.8714523   1.6815275  10.4640932
  21.7247028   2.5301273  10.0462723  22.0702705   1.0888466   9.7392263
  38.7750397  66.1317825   3.7520809  39.4192085  65.6351242   4.2566671
  39.2979012  66.7354355   3.2243953  61.1702919  16.6870594  54.8347473
  61.1553307  15.8070908  54.4583664  60.2479057  16.9085045  54.9627953
  10.1298990  14.5573931  89.0395966   9.5282164  14.0480833  88.4966278
  10.8958693  14.6964006  88.4826431  80.1571503  35.9739571   1.8825917
  80.9380188  36.3268280   1.4560181  79.8516541  35.2857971   1.2915421
  17.7477570  27.4516602  78.7722626  18.1372604  28.3236103  78.8372421
  18.2177715  27.0324936  78.0514221  75.2651291  71.3421707  22.2996101
  75.7704620  71.2725677  21.4896564  75.9133377  71.2373734  22.9960861
  74.0089569  42.2843513  31.9676304  74.0574722  42.6350327  32.8569565
  73.1527023  41.8586845  31.9244003  40.5033112  41.4764175   6.1096501
  40.0984688  42.1723747   5.5919900  40.3351440  41.7252045   7.0185266
  66.6444321  22.6651535  51.5096016  67.4077072  22.8676586  50.9686432
  67.0125732  22.3734150  52.3436241  71.2482300  15.9657955  73.5926361
  71.1890793  16.6949253  72.9752960  72.1353378  15.6253653  73.4769211
   0.3175837  61.7438889  60.2987442   0.6085202  62.3512192  60.9789963
   0.4239858  62.2307701  59.4815216   6.5365429  32.6163635  37.6614151
   5.9562368  33.3505783  37.4603996   7.0984321  32.9408760  38.3651199
  68.8338089  70.5567627  85.2103653  69.2527161  70.7761154  84.3781204
  69.2738953  71.1122665  85.8537674  12.8337851  62.6121483  24.9236031
  12.6177483  61.7298737  25.2255211  13.7470722  62.5524445  24.6432934
  22.8392830   8.9043198  32.6998100  23.0961151   9.6091423  33.2943649
  21.8829422   8.9413700  32.6834030   6.4302049  67.7918472  11.8230038
   6.8396068  67.8924789  12.6823616   6.9425278  67.1075745  11.3922768
  68.5476685   8.9129963   9.6837273  68.5676651   9.2784662   8.7992706
  67.6447372   9.0399609   9.9749861   8.6984529  63.6044044  80.8151016
   9.4368153  63.7075500  81.4154434   8.6405573  62.6605721  80.6665878
  31.5650520  58.6759262  49.9854774  30.6093712  58.6629562  50.0378113
  31.7618446  58.3334846  49.1135635  59.6472778  31.1689949  46.2761841
  59.4553337  31.3089027  45.3489189  59.6788597  30.2172565  46.3732872
  83.0237961  41.7868004  45.7229118  82.8530731  42.3761559  44.9882431
  83.2982330  40.9664497  45.3131065  27.0953407  19.1120014  84.8477859
  27.6371975  19.4429264  84.1314697  26.2281170  19.4820385  84.6827850
  32.3804092  53.1818924  49.3846779  31.9540691  52.6077156  50.0209084
  31.6680584  53.7087555  49.0224609  28.5366898  50.6855392  76.9192352
  27.6913376  50.4110641  77.2745819  28.6256905  50.1915283  76.1042099
  86.5485458  28.0411873  26.7877560  86.7043152  27.2240505  27.2613144
  87.3848038  28.2360058  26.3647251   6.6162300  22.0968456  51.8315964
   5.8478174  21.6326504  52.1637077   7.2166572  21.4025707  51.5601120
  63.6167870  42.4491501  59.7852821  63.6773262  43.4032211  59.8333855
  62.6936798  42.2767792  59.5998268  15.5828247  10.4351616  57.5962830
  14.8134527   9.9902086  57.9516907  16.2920189   9.7992048  57.6902695
  47.1183929  17.8207817  31.2145863  47.5087509  17.7935543  30.3410244
  46.1816406  17.6961269  31.0623207  30.2308521  41.0380783  73.5544510
  29.4135437  40.5576210  73.6863632  30.5754261  40.7019424  72.7270966
  70.3253250  34.9496803  48.8569260  70.7113876  35.7274055  48.4540291
  69.4175262  35.1968231  49.0331573  48.8163681  70.5652466  15.0926714
  49.5272865  71.1844940  15.2580795  48.3849335  70.4637070  15.9410725
  14.0608044   2.4266257  30.5303841  14.0044165   2.6983056  29.6142826
  14.6932201   3.0299397  30.9206333  36.6342850   8.4219131  72.0710220
  37.3796234   8.9537992  72.3499527  35.8804054   9.0066223  72.1485901
  68.2415695  33.4559250  42.0505447  67.6886368  32.6977539  41.8616791
  69.1049500  33.0838356  42.2304344  10.4467993  23.7149639  14.5544605
  10.9655561  23.9410610  13.7824478  10.9331675  23.0027161  14.9696474
  76.0838470  37.7215080  80.8003998  75.2241821  37.6444092  80.3865585
  76.7055969  37.6499062  80.0761566  62.3332672  25.2938251  81.9562912
  62.2305679  24.9077473  81.0864487  62.5434608  26.2122593  81.7873917
  57.5827408  11.3935795   3.6113338  57.2144470  12.2680845   3.7371545
  56.9925575  10.8136272   4.0925503  46.6807251  71.0536652  71.1653671
  45.8156509  71.4231644  70.9883118  46.8825874  70.5332031  70.3878021
  80.9571075  19.8297367  31.9524632  80.6966324  20.7367535  32.1127930
  80.6156998  19.6331329  31.0800991  46.8760796  57.8502312   4.3687797
  46.5844154  56.9854813   4.6575227  46.3529930  58.0310020   3.5877972
  52.0034637  21.3163776  86.3341827  52.6542206  21.9456978  86.0232086
  51.6783180  20.8951340  85.5385208  66.1508484  54.0733147  89.0010071
  66.4645996  54.2960548  89.8774643  66.9092102  53.6820297  88.5673904
  48.4626999  17.5256100  28.7594147  48.3555489  16.6496220  28.3887463
  49.2587776  17.4664440  29.2876110   4.5674524  27.5734406  39.9538193
   4.8113914  26.6651421  40.1319199   5.2569847  28.0922604  40.3680725
  81.5133286  68.3746872  47.2743111  80.5649567  68.5012131  47.2459564
  81.6328583  67.4322739  47.1568604  49.0827293  51.3436470  82.4654999
  49.7410278  51.3895493  83.1588745  48.3621407  51.8878899  82.7829666
  67.6529922  52.5345650  14.0913258  67.7991180  51.7457314  14.6134567
  66.7925186  52.4023972  13.6933880  59.2413254  27.9802456  35.8822060
  59.0851059  28.9013157  36.0906639  59.5613403  27.6004219  36.7004700
   8.6537132   0.8350574  73.4809341   8.7330923   0.2133019  74.2043610
   9.4406977   0.6924008  72.9550629   3.5914323  15.0825253  23.6274929
   4.4219375  14.6066189  23.6250858   3.8441403  16.0050812  23.6630039
  46.4387169   7.7251368  56.3593750  46.3881531   6.8757954  56.7978897
  46.6120224   7.5114055  55.4425812  81.4070892  64.8405304  20.2071857
  80.4703903  64.8394394  20.4042130  81.7494583  65.6019058  20.6755009
  37.2016335  31.6799278  53.4984055  37.5678139  32.4209404  53.0156631
  36.5634308  32.0735283  54.0933914   6.6900678  55.7606201   0.4477693
   5.9762478  55.2632980   0.8469721   7.4672451  55.2202415   0.5899540
  75.1193466  32.7931709  18.1895714  74.6586151  33.3132133  18.8479919
  75.0746689  31.8955784  18.5190563  61.5043030   9.0182285  58.5722389
  61.6624794   9.9342012  58.3437538  62.3693581   8.6740093  58.7945557
  10.1565180  47.9002342  52.3298416  10.1245565  47.1833878  52.9633598
   9.2424374  48.0446167  52.0852127  77.6035538  30.8061962  54.9791565
  77.1916504  30.9753513  55.8264809  77.9354248  31.6593876  54.6995926
  15.3800354   6.6040025  68.3368149  14.9114838   7.3520832  68.7070389
  16.3051357   6.8126488  68.4667664  57.3497086  10.2554474  21.4365158
  56.4695015  10.2021179  21.0641918  57.9166107  10.4347801  20.6863861
  47.0565300  60.6289673  12.0326300  46.1587067  60.9564362  12.0866108
  47.5992889  61.3748055  12.2883081  10.0885029  66.9086609  54.1345329
   9.6571960  66.5423279  54.9065437  10.5741196  66.1736755  53.7601013
   5.5116863  41.7628708  40.2007408   6.1705666  41.1411705  40.5099297
   5.3658838  42.3471413  40.9447861  78.8689880  59.4930382  86.6892700
  78.6315308  59.6797981  87.5975494  78.1652756  58.9287758  86.3689041
  71.9279480  50.4739990  77.4568176  72.6209259  50.9347382  77.9298325
  71.3540649  50.1345062  78.1435776  34.4725304  16.7279987  78.9789581
  35.0217094  16.7349281  79.7629166  34.7748833  15.9682121  78.4814301
  85.4764938  34.2583427  45.5676842  85.2300644  34.5493011  44.6897087
  85.1126709  34.9239388  46.1515045   4.3726182  30.0506115  80.1792374
   3.5622859  30.3505497  79.7673721   4.9191499  29.7601433  79.4490509
  70.4996643  60.9016914  40.1106606  70.6373062  60.2410927  39.4317703
  69.8624191  60.5053329  40.7048454  74.1287308   7.1583314  76.8688354
  73.3243027   7.6673183  76.7685623  74.1373291   6.5723891  76.1119766
  22.3855267  66.2103806  35.1345406  22.0036793  66.0588303  34.2699852
  22.6712551  65.3443375  35.4253311  53.5291023  69.5760422  16.5073967
  53.3529701  68.6745071  16.2382622  53.6895065  69.5178375  17.4492645
  55.8100891  10.5381603  29.5819168  55.0534477  11.0836868  29.3671455
  55.6074371  10.1764927  30.4446793  28.9373474  23.6306152   0.2418199
  29.8831043  23.7362156   0.1387464  28.5871868  24.5179043   0.1621988
  38.9764633  58.9471397  28.9515781  39.1111488  58.0567780  29.2761517
  39.8584061  59.3125267  28.8815861   2.8690724  71.3571701  15.9971304
   3.8142390  71.4544373  15.8812389   2.7784181  70.6808243  16.6683750
   3.9996257  35.9922791  75.2462006   4.1006451  36.9299965  75.4096298
   3.7277400  35.6301079  76.0894928   6.1429601  47.7519493  23.8572769
   6.2162704  46.9225998  24.3295441   6.8036308  48.3158302  24.2595043
  81.8010254  22.2923298  70.0557938  81.4524231  22.4689960  70.9295731
  81.2820740  21.5545158  69.7355499  23.0225220  59.5247078  75.2189331
  22.5002861  59.2438431  74.4675217  22.7343063  60.4214745  75.3891525
  76.8135529   6.0040359  23.8379822  76.2529068   6.3911781  24.5103130
  76.3367615   6.1425743  23.0196266  42.0124702   3.4099336  75.1380844
  42.4176979   3.5808132  75.9882736  41.4820061   2.6257038  75.2788849
   7.2299533  53.0893669  64.6013870   6.8563266  53.9340668  64.3501587
   7.7478018  52.8212509  63.8423233  70.5095749  22.1968193  23.4692764
  71.0827789  22.4225559  24.2018833  70.8685684  22.6815987  22.7260780
   7.4226046  66.8579941  72.3931503   7.7166715  66.5619278  71.5317001
   8.2236500  66.9112701  72.9144211   2.6821604   0.1934988  37.4539680
   3.2527182   0.4043346  36.7148857   2.0413921  -0.4200310  37.0944824
  51.8691978  15.5117016  31.9997025  51.3331795  15.6617861  32.7784119
  52.6804886  15.1318302  32.3369560  29.6910839  32.8487358  72.8912582
  30.5569820  32.7087212  73.2744598  29.8389530  33.4845276  72.1911621
  85.3058624  47.2258987  76.8405685  86.0437164  47.5853500  76.3480225
  85.3555450  47.6559372  77.6942825  65.3804550  55.8224220  56.2790337
  65.2626038  55.9187012  55.3340073  64.5490341  56.1118507  56.6548004
  23.4362011  64.0236664  57.6663094  23.6876812  64.4975128  56.8735542
  24.1142826  63.3563385  57.7717285  72.3326340  14.9268961   7.3996420
  71.3804092  14.8336477   7.4280829  72.4832230  15.6691742   6.8143411
  62.4641495  58.8324089  46.1579056  62.8250351  57.9615097  46.3238335
  63.2182655  59.4191132  46.2154579  58.6509628  29.2032757  70.1500854
  57.9627686  28.5597725  70.3189621  59.4367409  28.6787910  69.9961319
  75.3619308  24.7165852   5.7491708  74.5763092  25.2498646   5.8701973
  75.7520294  24.6633549   6.6216521  45.2475204  29.4783325  71.3800278
  45.4562531  28.8576889  70.6818466  44.3281136  29.7016830  71.2349777
  75.5141068  29.5276604   5.6064105  75.5685120  28.7774563   6.1984134
  74.8871613  30.1178036   6.0246143  40.6590652  68.9967575  13.2770071
  39.7902718  68.6448212  13.4708509  40.7349396  68.9363708  12.3247318
  85.5298843  15.8961468  42.6290970  86.2912521  15.5093555  42.1967354
  85.5092545  16.7999363  42.3144989   6.3099570  15.2418871  82.4058609
   5.3596749  15.3420582  82.4620895   6.5636783  14.8828735  83.2561417
   8.1662989   2.5600882  28.0313835   8.2039289   2.5632939  27.0749283
   7.5614557   1.8495915  28.2449055   0.8610277  35.5292625  19.0783272
   1.6031575  35.5655403  18.4748707   1.0888642  36.1443939  19.7754154
  57.8648949  17.0090103  46.1380920  58.3793755  17.1059284  46.9394302
  57.5931549  17.9002132  45.9186668  54.5745583  17.6889381  52.5143471
  55.4564438  17.5140247  52.1858482  54.2158737  18.3346310  51.9055328
  37.7997589  26.1934757  66.9170532  38.3630104  25.6750145  67.4916611
  38.3935738  26.5464382  66.2544556  25.4369507  48.2049484  44.8798752
  25.4268703  47.7167854  44.0565720  25.3860779  47.5315514  45.5582428
   5.4724751  12.9982796  18.1026611   5.9533372  12.6458893  17.3537788
   5.2280803  12.2273235  18.6146469  53.6651115  12.0832758  57.8747940
  54.5026360  11.6786976  57.6487389  53.1785774  12.1032152  57.0507050
  41.6390457  53.0698013  80.5857391  40.8446350  52.9350166  81.1024399
  42.1766129  52.2989349  80.7674408  83.7088089  33.4774666  87.1852798
  83.2226105  32.7643585  86.7713699  83.0449448  34.1394310  87.3784866
   8.6004829  49.1050186  17.5211411   8.8089466  50.0382500  17.5642204
   8.3413467  48.8760414  18.4136944   6.4437127   6.1452389  49.5058784
   6.8961983   6.1173930  50.3489151   5.8744292   6.9124894  49.5648270
   1.2966582  49.0834694  76.0385437   2.2187898  49.1741295  76.2787247
   1.2349578  49.4820251  75.1704559  40.2409401  60.6057167  46.1259499
  39.3639183  60.9759102  46.2260704  40.4232025  60.1902618  46.9688072
  50.4711952  69.4423523  42.3057251  49.9092979  68.7257538  42.6006584
  50.3039703  70.1497345  42.9285240  14.1660414   9.4207859   6.4118381
  14.0874414   8.5390463   6.0477099  14.9673967   9.7703085   6.0221014
  54.3726883  52.9573402  48.6723595  53.5888824  53.3658295  49.0398102
  54.6182213  53.5246429  47.9415283  71.9974136  34.4353104  78.1147003
  72.2359009  33.5146027  78.0067749  71.1707764  34.4136734  78.5968246
  26.7443180  58.0157776  85.8854904  25.8361340  58.2523537  85.6971741
  26.7155838  57.0749817  86.0595932  23.9933529  67.1884842  65.6161880
  24.8645611  67.4863663  65.3544769  23.9423790  66.2875061  65.2970123
  63.8355942  67.5881119  79.1143951  64.0960846  67.2073517  79.9530792
  63.3040466  66.9095993  78.6980896  65.7928848  52.1593246  27.7736053
  65.3794403  52.9159966  27.3579788  65.2708969  51.4114761  27.4829597
  60.7162285  67.6485672  82.9650116  60.7424393  67.9600525  82.0602951
  60.0248413  66.9866104  82.9704819  63.2380104  53.1253891  38.0010834
  62.8747711  53.8990669  37.5701370  63.1569862  53.3120041  38.9364090
  79.4762268   7.6059303  34.6160774  79.3795624   7.6007376  35.5683708
  78.6030426   7.8205128  34.2878685  19.6701279  63.4295235  72.3426819
  18.9074593  63.8312225  71.9264984  20.2838249  64.1533966  72.4676132
  66.4809418  41.6803474  27.9738789  65.6619644  41.6812210  27.4783916
  66.9677200  42.4308853  27.6333218  42.1419983  41.9320374  51.5883484
  42.7054634  41.1720390  51.4429436  41.5411110  41.9307518  50.8432541
  10.1678839   2.5336461  83.5278091   9.3983440   3.0502264  83.7669373
  10.2669067   2.6733139  82.5860443  19.2611885  47.0207291   6.3008881
  18.9822578  47.6830254   5.6685982  20.1759014  47.2349319   6.4843264
  48.6834030  70.3190384   4.3073592  47.7597542  70.5106964   4.4697523
  49.0833054  71.1759262   4.1588464  67.8787689  56.8879013   1.3291304
  67.2727814  57.2806396   0.7008264  67.5159225  56.0189362   1.5008103
  47.8997917  59.3446426  49.8474312  48.0665779  59.8273125  49.0378380
  48.4116669  58.5408897  49.7568779  49.9936829  48.9327202   4.4069242
  50.3766556  49.5975838   3.8346303  50.4968224  48.9968262   5.2186952
  68.9139328   1.5961887  62.7769241  69.7236023   1.9096751  62.3739357
  69.2052765   1.0080417  63.4736557  77.0325699  34.4759560  66.4678574
  77.6300888  34.6469269  67.1958466  76.2737656  35.0318298  66.6452026
  32.9083977   3.6645644   6.1321082  33.2015991   4.4340644   5.6441178
  31.9710674   3.8071978   6.2636504  29.2418537  46.3184624  73.4951324
  29.0518951  47.1821060  73.8615494  30.0232468  46.0258522  73.9642181
  82.1470413  44.0514069  10.0318069  82.9292450  44.3789482   9.5878325
  81.4171677  44.4247017   9.5376787  68.2934265  59.3421478   7.1001792
  68.5149536  60.2646637   7.2271652  68.6361771  58.9040909   7.8791904
  78.9260406  63.4467697  71.5209885  78.0634460  63.8251114  71.3506317
  79.4957504  63.8427925  70.8615723  14.3027725   0.5090869  18.9732132
  13.8108253   1.0666023  18.3703899  13.7774868  -0.2878660  19.0451412
   5.0496769  52.5145645  48.8690262   4.7562003  53.4131088  49.0197754
   5.1100130  52.4388962  47.9167328  78.9840622  19.8780193   2.8642311
  78.0481262  20.0199337   2.7224123  79.0348358  19.0216007   3.2887325
   3.2990539   2.8260257  16.6264172   3.8800991   3.3498602  16.0748596
   2.6576619   2.4591341  16.0179443  22.4879303  13.3193178  11.3226795
  21.8623104  13.0033932  10.6707411  22.8627110  14.1087723  10.9321251
  33.3682899  43.5616150  76.5073166  33.1278496  42.7438507  76.9428406
  33.2604179  43.3768044  75.5743408   8.5549183  10.9147844  14.1318026
   9.5035429  11.0161133  14.0538549   8.4185266   9.9687538  14.1833258
  64.5500870  -0.1383222  23.3098640  64.1732025   0.2818164  24.0829582
  65.4483719   0.1902196  23.2726822  40.4225159  11.0027981  59.0366211
  39.8051567  10.5275421  59.5927086  40.7677040  10.3386602  58.4399643
  56.4936943   2.9330044  53.3433189  57.0465965   3.2401626  54.0617790
  56.5285530   3.6374738  52.6962166  10.6753950  51.1358795  83.2403107
  11.6211748  51.2755585  83.2874603  10.4179049  51.5208054  82.4025955
  61.9277382  46.5460091  29.5688305  61.8987999  47.0889740  30.3566017
  62.6801872  45.9696922  29.7026691  21.9853210  42.2179642   7.0004940
  21.1541767  42.1793747   6.5272703  21.8080482  41.7784767   7.8321519
  62.0245132  33.0450745  13.0775757  62.5742760  32.9281082  12.3027773
  61.1292534  32.9490891  12.7527256  65.1543350  61.0306015  25.6032925
  65.1095581  61.8280411  25.0757332  64.8870316  60.3325424  25.0053825
  68.8009720  17.8419819  86.2776031  68.4169464  18.7029018  86.1115494
  68.7510834  17.7366829  87.2276840  79.1603928  67.4127197  11.5108938
  78.7786331  67.8429794  10.7457991  79.8680038  66.8751526  11.1551638
  37.2087593  21.5960751  77.4021072  36.9922752  20.8396492  76.8569565
  37.2743340  22.3250046  76.7851868   9.9559813  12.6067562  86.7821808
  10.2492666  11.7089987  86.9378967   9.1161633  12.5099001  86.3332367
  71.7612152  61.1040001  27.4698544  72.3816376  61.0394554  26.7438145
  71.5005569  60.1994514  27.6432991  72.5307999  38.5631027  64.2246780
  73.2575836  38.9106598  63.7077446  72.8002777  38.6924210  65.1340103
  53.4924660  59.7581367  74.2657928  52.5706329  59.5805206  74.4526215
  53.6301270  59.4084358  73.3854599  26.8952942  70.2306366  31.8636150
  27.2531166  70.2854996  32.7497215  26.9022903  71.1336288  31.5461521
  39.1079559  22.5018349  84.9533081  39.3256378  21.9225483  85.6835632
  39.8226509  22.3786411  84.3285980  73.4198380  17.9752254  68.2393341
  72.8890152  18.7695713  68.2983093  72.8659515  17.3513184  67.7700958
  57.6731644  68.8367844  46.7945442  57.8129349  67.8905716  46.7574501
  56.8683586  68.9402847  47.3022919  13.2530823  13.5012941  72.7693710
  13.9338121  12.8384008  72.6535721  13.7246733  14.2795630  73.0662384
  75.3753662  43.7875290  40.2023506  74.4584656  43.8848534  40.4593353
  75.5892181  42.8795700  40.4170876  57.4378090  41.7983208  88.5769348
  57.6767197  41.4207306  87.7304230  57.2078209  42.7059364  88.3780136
  65.2831879  18.6723080  14.3896666  65.3294754  18.9987221  13.4910326
  65.2032242  17.7230759  14.2958755  39.7099800  63.4641075  64.2193222
  38.8571167  63.3713417  64.6438828  39.8857307  64.4048462  64.2379303
  16.6988621  70.6217041  11.5787888  17.2590866  69.9869461  12.0254021
  17.1246777  71.4654465  11.7304993  70.1041565  32.9493790  62.9843330
  70.9809875  33.0328026  63.3590698  70.2194977  33.1555786  62.0567474
   3.0248005  62.8068237  34.1270866   2.5263553  63.4631271  34.6139679
   3.9404321  63.0446053  34.2730713  79.3166580  11.0645142  14.1430836
  78.5633392  11.2798071  13.5931873  79.9863510  10.7683592  13.5266132
  70.4084244  61.6720924  44.9917946  69.4958420  61.4183502  44.8538017
  70.7585983  61.7959671  44.1096001  57.9227371  10.4536428  27.7448578
  57.2397079  10.4303331  28.4150524  58.1860733  11.3729591  27.7031307
  74.8776550  63.3853188  23.7609062  75.0319061  64.3246536  23.8613052
  75.7517319  63.0085487  23.6595631  19.5252800  43.1866798  56.2820473
  19.9335518  43.0649872  55.4248810  19.5614853  44.1312637  56.4326515
  75.2128983  42.2744141  53.4558296  75.3253403  41.7182922  54.2267532
  74.9946899  41.6650162  52.7506714  43.1406670  60.7365112  54.8034554
  42.5067139  60.0629387  55.0496941  43.7732964  60.2790031  54.2496490
  46.5754776  66.6533432  13.8405581  47.0345154  65.8201065  13.9465456
  46.7533913  67.1296616  14.6515474  62.7716942  51.8132820  70.8509598
  63.3115807  51.8110046  71.6413651  63.3426437  52.1727219  70.1719513
  42.9921112  14.1584911  -0.0014187  43.8739128  13.8357506   0.1843213
  42.4132385  13.5560856   0.4657446  59.5250511  29.2837944  27.8173809
  58.9154930  29.2193413  27.0821819  59.0233192  29.7182617  28.5071163
  74.7369461  52.0043945  55.4153252  75.1288986  52.5152702  56.1235695
  74.8975830  52.5241928  54.6277771  64.2064514  64.8708572  61.5901451
  63.9072838  65.7079773  61.2352333  63.4944611  64.2608185  61.3973961
  80.7347946  20.2366161   8.0428286  81.6737289  20.1210270   7.8970046
  80.3700256  20.3621807   7.1668081  28.1766682  13.9231653  84.6175232
  27.9396820  14.7621164  85.0127792  27.6695900  13.8888044  83.8063965
  53.5433960   1.2370780  31.9979115  54.3234787   0.9111235  32.4467468
  53.8735161   1.9087169  31.4011250  30.6828289  51.0466461   5.9115686
  30.4536858  51.6579933   5.2115822  30.5532284  50.1805725   5.5251117
  54.3103104  36.7619820  69.7095947  54.1096878  36.1113930  69.0367584
  55.2325134  36.6136284  69.9188004  42.1976318  16.3877239  83.0740509
  43.0316925  16.4684334  83.5367203  41.5546265  16.2296219  83.7652664
  52.8988762  56.1021957  69.9673462  53.1008186  56.6838379  69.2344437
  53.4860382  56.3866959  70.6677246  10.5310631   7.6847458  21.3833294
  10.2022038   7.2256408  20.6104736   9.7472115   8.0396194  21.8027000
  79.1054459  11.0319099  52.8822632  79.8167953  10.4535408  52.6071243
  78.7918854  10.6521778  53.7030678  33.4452438  45.6976547  70.5264435
  33.9404793  46.0672340  69.7954254  32.5609627  46.0476646  70.4179459
  48.6484337   9.1950121  72.9086761  48.6997185   8.9146643  73.8224640
  48.6687279   8.3802595  72.4066849   2.9356272  34.7883224  77.4835968
   3.4861691  34.0477104  77.2293777   2.0475423  34.5176964  77.2505798
  77.8560715   1.6495264  30.3107376  77.2686615   1.5404189  29.5628872
  77.3154984   1.4401978  31.0724392  77.2832336  65.4050140  75.6465836
  77.8252640  66.1202087  75.3135223  76.8289871  65.0689163  74.8739700
  46.9357529  44.2875786  33.7438698  47.8161049  44.3285637  33.3703270
  46.9861298  43.5925484  34.4000893  36.1954956  54.2215118   0.9596249
  35.4656792  54.7286110   1.3152305  36.5083733  53.7009125   1.6994307
  78.1810684   4.5637913  52.5123749  77.4438019   4.3269482  53.0750198
  78.8007584   4.9970617  53.0993118  21.3263092   5.4967036  82.3752670
  20.9906216   6.1612701  82.9768448  22.2595482   5.6944208  82.2965012
  71.0971985  28.8918304  23.8411293  70.7528458  29.4087620  24.5694389
  71.8172302  28.3899002  24.2230358  66.0959091  59.5992966  67.6060257
  66.0740356  60.4187622  68.1002197  66.9673538  59.5813560  67.2104340
  26.4894199  10.7753000  56.7725945  25.6548386  10.3881025  57.0367622
  26.4972153  10.6996164  55.8184242  40.5744133  60.5647240  75.2781143
  39.7806625  60.6853638  75.7993088  40.9820328  61.4305763  75.2585983
  14.6801434   6.3914042  17.4120922  14.1268969   6.5189180  16.6414490
  15.1095343   7.2370834  17.5412540  82.4396362  62.6939583   5.9300799
  83.1990280  62.2872009   6.3473334  82.0833054  62.0103264   5.3627090
  17.1837311   1.4888856   2.7163794  18.0316982   1.8922458   2.9020796
  16.7261715   2.1318285   2.1746261  76.3454742  38.2102699  52.9561424
  76.5240173  38.4823837  52.0559731  77.2057800  38.1898346  53.3752899
  47.6520195   4.7621675  29.9705830  47.8471985   3.9014804  30.3411980
  48.5005760   5.0952396  29.6786118  54.1458282  10.8865395  65.3233032
  53.6030350  10.8846359  64.5348892  53.9915085  10.0303040  65.7224045
  16.6453934  20.5697002  85.8141022  17.4288464  20.4314709  85.2818222
  16.5382576  19.7517166  86.2995529  38.6579018  56.0856247  68.7488403
  39.1902809  56.3820038  68.0106277  38.1568604  56.8587875  69.0084763
  48.1954651  53.1513481  89.5340729  48.2513466  52.3652534  88.9907913
  48.5687675  53.8451920  88.9905167  39.9990578  21.0645161  64.4348755
  40.9238243  20.9120331  64.2404785  39.6336594  20.1890793  64.5626602
  58.1620522  35.7405624  87.1821671  58.2049179  35.1989288  86.3941193
  57.3279495  35.5059776  87.5889511  24.2886467  64.9230042  21.3195477
  24.1297245  65.8027039  20.9773560  24.5391788  64.4090424  20.5518818
  18.7409725  64.8620148  55.9179382  18.7899036  64.2165680  56.6230850
  18.3083916  65.6180420  56.3148460  66.5594025   5.6710930  87.5034485
  66.6262436   6.3192759  88.2046127  67.1287842   6.0073295  86.8113632
  61.6424408  42.7556419  70.3918076  62.5710831  42.5921555  70.2271042
  61.4023438  42.1174088  71.0635529  48.4097137  26.7674026  84.9024506
  47.5056381  26.7004719  85.2096863  48.4230309  26.2671814  84.0864639
  59.5399818  35.2666969  82.5863953  59.0103722  35.2393379  81.7895279
  59.7935677  36.1855278  82.6740112  74.9591293   3.4467974  13.3221350
  74.5965347   3.0492921  12.5304613  74.5160217   2.9960754  14.0409822
  19.3869152  18.1186981  12.5253220  20.0770931  18.5591240  13.0212135
  19.6657677  18.1891174  11.6123524  79.8866501  46.9403877  46.5496559
  79.0915680  47.1463242  46.0580635  80.0018234  45.9971352  46.4345932
  52.7322273  32.8544502  50.9275208  52.9278412  33.6735840  51.3824806
  52.0220184  33.0782318  50.3260574   1.1562144  63.8338318  51.5566483
   1.1966777  64.2350616  50.6885452   1.7955157  64.3215332  52.0759506
  70.6576004  48.6597557  15.1451311  71.3270798  48.9574738  14.5291815
  70.3177872  49.4643059  15.5368748  72.6213989  13.4366217  59.7412071
  73.5475693  13.6779079  59.7265434  72.4805298  12.9768782  58.9135437
  60.7150040   5.8766932  69.7071381  61.6300621   5.7652998  69.4492722
  60.2542839   5.1599813  69.2709122  38.7746277  58.5732155  35.4157982
  38.3964195  59.2150497  34.8147736  38.3294601  58.7329712  36.2479858
  62.2636452   1.7974802  39.4015808  62.9560089   1.2518864  39.7746620
  61.4812851   1.2469274  39.4338455  31.1443882  69.5129242  50.8484230
  31.4152679  70.3105469  51.3030167  31.7541752  69.4366760  50.1145439
  49.3415184  57.2205009  80.9720383  49.3117752  56.2706642  81.0867538
  50.0951271  57.5009804  81.4913025  69.7161865  59.2883873  62.8619652
  69.7550659  60.2447281  62.8505859  68.9961929  59.0708885  62.2699051
  77.5900955   1.7823892  54.8093910  78.2234573   1.1131393  54.5501747
  77.2854843   1.5023597  55.6725388   1.0715358  54.4060402  79.2677231
   1.2197378  53.5027351  78.9878769   1.0936846  54.9146004  78.4570999
  53.7638855  59.7989998  54.4639053  53.1888695  60.5137901  54.1906548
  53.3901863  59.0200806  54.0517616  34.2065506   6.5948987   9.7935295
  34.5361900   7.3093662  10.3386059  34.9911461   6.1167097   9.5252361
  10.4341555  66.1561279  82.7441330  10.9215660  66.6851807  83.3756104
   9.9770155  65.5064850  83.2781906  15.9636164  62.9144173  81.6410599
  15.4645128  62.3088493  81.0929642  15.3018208  63.3590050  82.1707764
   1.2060786  56.0098114  65.2557068   1.1143248  56.2096977  66.1873016
   0.8909582  56.7960434  64.8098755  35.7834206  47.2325974   7.7844181
  36.7090988  47.0536995   7.9498000  35.7813034  48.0629387   7.3082266
  16.2739754  68.2300873  42.1172371  16.8760033  67.9179306  42.7927742
  15.4312086  67.8395615  42.3484573  40.4604378  60.1257210  48.8457832
  40.0666847  59.5177994  49.4715767  40.7238312  60.8779449  49.3758965
  27.7038116  52.2568283  39.4645348  27.2205582  51.4944916  39.1458740
  27.3431721  52.9928436  38.9701157  57.0841255  23.1918488  61.5483627
  56.8222313  23.3991814  62.4453888  56.3215408  23.4210453  61.0171661
  74.2300262  55.4247704  80.3242569  74.7644043  56.1896477  80.1106415
  74.8648071  54.7273903  80.4884186  66.9495773  37.9007301  63.3781815
  67.0825424  37.7343140  62.4449844  67.8264389  37.8474159  63.7583008
   1.1151446   5.6472883  51.2830658   0.6548936   5.2185502  52.0045815
   0.5734103   5.4696240  50.5141754  30.0850277  55.0740547  51.0113907
  29.3469830  54.6741333  50.5514069  30.2911339  54.4581757  51.7145615
  71.3119659  22.5497837  75.5938721  71.2295227  22.8900414  76.4847488
  72.1354065  22.0617714  75.5991287  11.6248455  28.0330963  77.0133286
  10.7798843  28.3174210  76.6648560  11.4085073  27.5881119  77.8327332
  21.2902336  15.6970701  78.2739792  21.5719509  16.0346241  77.4237289
  22.1027546  15.4451771  78.7128296  58.0990219   2.7165368  57.7143860
  58.5375443   3.0474193  58.4982529  58.1475105   1.7641259  57.7968140
  27.4479656  10.8475447  12.0231009  27.8473263  11.2504129  11.2521019
  26.6311932  11.3303461  12.1496620  42.8339577  52.6551590  35.5249062
  42.1249580  53.1595612  35.9238129  43.3870201  53.3122444  35.1023102
  76.3324051  26.6304455  38.5298958  76.6009521  27.4209919  38.0617599
  76.6542664  25.9101372  37.9878693  23.5162792  25.7983322   0.9119268
  23.1849346  26.4586773   1.5205221  23.5201283  26.2371140   0.0612279
  82.5548553  48.6712189  53.6171074  82.7005005  48.3368874  54.5021172
  81.6491776  48.4342308  53.4175797  25.5337543  52.7750206  21.6534462
  25.1202087  51.9245567  21.5053673  26.4429188  52.6498604  21.3814430
  37.3662071  37.1906052  88.7344055  38.1831245  37.6876526  88.7770157
  37.1429443  37.1760826  87.8037186  65.7845154   2.1069205  51.4018631
  65.0550461   1.5671399  51.7063942  65.4060059   2.6556406  50.7149429
  26.6083755  67.9747314  11.4637089  27.1817131  68.0718994  10.7033958
  26.2337933  68.8458939  11.5941067  45.5616074  20.2030106  81.9494019
  44.7822113  19.7161255  82.2171936  46.2844467  19.5896893  82.0819702
  75.8221893  68.1222305  16.5423737  75.6847458  68.3654556  17.4578972
  76.5534058  67.5049667  16.5657158  43.0192757  36.9843216  70.9268570
  43.1142807  36.3272285  70.2373352  42.4637260  36.5640373  71.5833282
  64.9736176  19.2643375  69.5944748  64.7648849  19.8137016  70.3500290
  65.8946152  19.4494877  69.4108582  62.9797058  50.3807602  33.4826126
  62.1513481  50.7725677  33.2059479  63.3464622  51.0097656  34.1039619
   1.8958787  59.7316208   7.7543631   2.1642704  60.6502724   7.7710290
   2.7159426  59.2438545   7.6781468  64.8022690  24.1834888  58.6061554
  64.3881912  24.9978561  58.8917770  64.1963043  23.8203888  57.9602509
  79.0863037  36.8830338  60.2257805  79.9853668  37.2100182  60.1941299
  79.1176529  36.0501404  59.7551041  52.8687782  25.9061661  78.0179977
  52.0782967  25.3695621  77.9594574  53.2128258  25.9240131  77.1249466
  82.1081009   9.2994289  25.9610577  82.0921783   8.8268881  25.1287804
  82.8004379   8.8725090  26.4656677  74.2052689  22.7905865  69.3467255
  74.5092850  22.9016762  68.4459152  74.1991272  21.8430557  69.4823074
  70.8061142  61.7781982  35.9789581  69.8831253  62.0315361  35.9907951
  71.0160904  61.6816673  35.0500755  15.5000286  37.4926720  53.6484299
  16.0992470  37.6319122  52.9150925  14.6421623  37.3807449  53.2388306
  53.3062096  43.4267540  51.8314323  53.9422760  43.0220528  51.2416306
  52.8690910  44.0880775  51.2949562  62.9502754  44.8206024  43.5155258
  62.1427574  45.0308304  43.9845161  62.9791603  43.8638954  43.5052643
  70.8132324   5.0125465  21.0973053  69.9372940   5.0817628  21.4770145
  71.3944016   4.9162745  21.8517590  17.2698612  59.1304283  10.2449188
  16.6707191  59.3918877   9.5457058  16.7206402  59.0885391  11.0277557
  81.1018143  30.7782021  82.7784195  80.5294113  31.4779739  82.4639282
  81.8325653  30.7705002  82.1602173  75.1411591  62.3392754  58.9639931
  74.7022247  62.0695267  58.1572685  75.2890930  61.5225563  59.4407730
   5.5261197  40.8481522  59.6979866   5.4132929  40.3298759  60.4947891
   5.6100264  40.1987839  58.9997673  64.4018326   9.2179174   0.7702577
  64.1531296   8.4249258   1.2451713  64.7185593   9.8140936   1.4488515
  26.9758167  28.8416595   3.8377995  26.3794785  28.1871796   3.4741139
  26.9439201  28.6956387   4.7832584  27.6831436  57.6375732  22.3727245
  27.8323479  58.2072754  23.1273193  27.8008461  58.2092247  21.6140480
  55.3792267  14.9116697  84.0425339  54.6833191  14.8316517  83.3901978
  55.9516907  14.1630125  83.8751068  33.2860947  21.0924511   8.5694160
  34.0109215  20.4904728   8.4006567  33.5593719  21.5854645   9.3430367
  53.5832520  63.1667900  12.5854683  54.4663429  63.2352486  12.2225761
  53.0058670  63.2352905  11.8250961  58.8838348  21.3929386  16.7013245
  58.1525154  20.7756691  16.6817837  59.0637550  21.5803490  15.7800550
  70.1131516  17.8780289  80.8449631  69.9232407  17.8293877  79.9080505
  70.4631500  18.7597046  80.9729462  39.7912674   0.8104411  25.3261490
  40.3803558   0.8473096  26.0797043  40.3454208   0.5166520  24.6030769
  43.9224663  12.0154047  76.6859131  43.0018730  11.8650179  76.4711533
  44.3883514  11.2956009  76.2603989   4.0779796  36.8122101  44.7283478
   3.9082603  36.8701439  43.7880974   3.2361722  36.5613136  45.1086655
  38.2993584  41.2443314  59.7224541  39.1376457  41.4413719  60.1403999
  37.8322678  42.0798111  59.7168808  12.7780247  27.6353359  88.0774078
  12.3849611  28.2524681  87.4602509  12.8559055  26.8192654  87.5832443
   2.4656801  51.4710770  64.8378754   3.4069831  51.6268196  64.9148483
   2.2004457  51.9805450  64.0721588  28.9284630  18.5346851  10.7595806
  28.6239510  18.0447273   9.9957447  29.7712479  18.8995323  10.4897099
  41.5123253  57.1324806   9.4112015  41.4826508  58.0859070   9.4907684
  41.9212189  56.9757805   8.5600357  20.8600769  57.1062431  47.8566360
  21.7577343  56.9004288  48.1175613  20.8755455  57.0749130  46.9000740
   2.5575712  61.0971756  46.4019127   3.3342721  61.2450294  46.9414558
   2.8856206  60.6323738  45.6321220  42.2530823  35.1839790  24.0655327
  43.0564728  35.1178055  23.5493793  41.5766411  34.8028793  23.5056877
  43.9411087  15.1957512  81.5364990  43.2321358  15.7722330  81.8215637
  43.9299126  14.4736481  82.1647339  71.0511017   0.9725002  21.8265762
  71.7180176   1.3546457  22.3970280  71.0932770   1.4947543  21.0255127
  48.5052757  41.9582176  78.2665405  48.9296188  42.3446617  77.5005035
  47.9524765  41.2633400  77.9090576   2.5947859  21.4129944  61.6034470
   1.8907723  21.5454750  60.9685898   3.2433076  22.0822945  61.3850708
  35.0587730  56.1851616  36.1852493  35.6731415  55.5115356  35.8936768
  34.2322273  55.7183685  36.3083725  79.2773666  29.0116386  81.5625610
  78.8162918  28.8925953  82.3929062  80.1371307  29.3501778  81.8124008
   4.0017281  63.7912598  37.1544876   4.6039629  63.9932823  36.4384346
   3.6728759  64.6440887  37.4386940  75.2538452   4.3894954  40.2909241
  74.8236465   4.9285245  40.9547043  74.7117920   3.6026843  40.2331657
  85.9482422   0.6322399  36.8058281  86.2104568   0.2249607  37.6314201
  86.7736664   0.8668575  36.3817253   7.5861216  44.3872414  74.3534546
   7.7826929  44.7989464  75.1949387   8.4433165  44.1699638  73.9870682
  83.3479996   1.6216666   4.0217509  84.1595917   2.0968060   3.8434448
  83.4763718   1.2468789   4.8931212  70.3471680  64.8080292  22.2677536
  71.1064072  65.3883972  22.3221264  69.5953064  65.3995743  22.2359295
  82.6389999  52.5238762  62.5675430  82.4478378  51.7595444  62.0239601
  82.5885925  53.2654076  61.9643669  39.3814049   7.2398934   3.4890134
  38.6607170   7.7770805   3.1599712  40.1710358   7.6782002   3.1718361
  10.9313869  65.2071991  29.4156914  10.0792160  65.5311279  29.7074223
  11.0502224  65.5935135  28.5480099  58.5677185  62.2489662  64.9392548
  58.9780197  62.2687149  64.0746765  58.0123253  63.0283241  64.9586563
  30.1323833   3.9001343  27.7278595  29.1806469   3.9870863  27.6743011
  30.4449215   4.7888412  27.8974228  21.8370228  33.3181114  23.4390850
  21.2375946  33.8145447  23.9962845  22.0483761  33.9161339  22.7221985
  25.0499229  66.2171249  67.9591293  24.4856281  66.4256058  67.2145844
  24.9696426  65.2689056  68.0623932  56.7882690  42.0405769   9.7577457
  56.2183495  41.3164406  10.0166759  56.1870575  42.7267570   9.4680309
   0.9443129  36.0219765  61.2027130   1.2295865  36.9317818  61.2869835
   0.7840501  35.7369118  62.1023140  73.0483704  31.2177219  84.0589828
  73.6483459  30.5667934  84.4230652  73.6155167  31.8319111  83.5927734
  59.0086174  31.9019489  69.8738251  59.1730309  31.8799076  68.9311142
  58.7526970  31.0060940  70.0933304  41.2741394  33.4387703  48.9498558
  41.9616051  32.8320160  48.6751328  41.4633446  33.6135788  49.8717422
  40.3744698  37.5771217  -0.0360385  40.9911652  38.1839485  -0.4455236
  40.6911926  37.4837074   0.8623997  80.7518158  35.0259705  75.2426682
  80.9036484  35.7095222  74.5900345  81.5845566  34.9504280  75.7085724
   8.8478842  29.1530857  39.6659050   8.3080997  28.9678707  38.8974228
   8.9142199  30.1077385  39.6875534  41.3953285   6.0515709  63.4960938
  41.7044525   6.7121205  62.8761368  41.1151466   5.3197260  62.9464302
   7.2267828  13.8694277  89.0267105   6.8937507  14.5151224  88.4034882
   6.5772624  13.8578997  89.7297211  82.7141953  59.3882904  88.2228851
  83.6050568  59.4859047  87.8866272  82.1538696  59.6892929  87.5075836
  58.8302078  27.7515297  56.6048241  57.9504166  28.0621281  56.8186646
  59.0082664  27.0709019  57.2538834  62.2876968  13.7790899  35.0392914
  61.8078575  13.1346560  34.5190086  61.7586975  13.8910542  35.8291359
  47.3907166   1.5436218  39.4709206  47.5617790   1.4750628  40.4102135
  47.4423141   0.6427000  39.1516876  80.4779816  54.0117836  11.6632805
  80.5160141  54.3211670  12.5683041  80.9665833  54.6672096  11.1653709
   4.4941545  59.8437843  71.0949173   4.8166075  60.6378517  70.6686401
   3.5710993  60.0249786  71.2720337   9.0120239  33.6537209  36.8440437
   9.0669918  32.7265625  36.6125565   8.4979315  34.0466309  36.1386604
  25.8471241  30.6527138  86.2516632  26.4442081  31.2090645  86.7518616
  25.1437740  30.4430313  86.8661194  50.4949760  39.9369583  48.2630005
  50.9886932  40.3311768  48.9820747  50.8930969  40.2999496  47.4718208
  26.2497768  61.7315712  42.8339691  26.2100925  61.2793922  41.9912415
  26.1385422  62.6566963  42.6148605  60.5132866  17.7763672  74.1158600
  60.3113365  18.6420937  74.4707718  59.8535690  17.1996956  74.5011520
  28.8392677  47.2622528  49.1721191  29.3863754  47.1647644  48.3927612
  29.1996994  46.6339836  49.7978973  22.3054848  24.9145832  77.8446350
  22.1101685  25.1163540  78.7597198  23.1504803  25.3338318  77.6820145
   3.5648575  30.7123642  65.4108200   3.1755381  29.8438091  65.3094559
   4.2167563  30.6033134  66.1031799  62.8321571  57.3879585  16.4924488
  62.0863419  57.9832306  16.5675468  63.1452446  57.2817612  17.3907413
  74.8811417  35.3785286  22.4992733  75.6058426  35.9848557  22.6522446
  74.7645340  34.9286690  23.3360882   6.4366016  43.8404350   7.8855367
   7.1779356  43.3369751   8.2219687   6.1170979  43.3287239   7.1423669
  83.8052216  70.0418396  42.0314331  83.0276337  70.3694687  41.5794983
  84.4018250  69.7871323  41.3275681  48.9143410  45.2581406  58.8121910
  48.6366081  44.3685036  58.5939140  49.4982224  45.5091705  58.0964394
  30.3134155  54.4480400   0.8508972  29.6171856  54.5654335   1.4972036
  29.8760109  54.5527954   0.0059510  85.8205795   1.0227312  23.4088154
  86.3651810   1.7266672  23.7611141  86.1699142   0.8658320  22.5315552
  21.6931019  64.7584686  18.2035961  21.2798138  64.3703156  17.4323921
  21.4561481  64.1727676  18.9226494  37.0487328   3.8941889  73.0479813
  36.4099541   4.6027708  72.9698257  36.5618439   3.1053910  72.8092957
   7.0810580  46.1171341  45.8321915   6.6595960  46.8992424  45.4759483
   7.2047782  46.3136406  46.7607956  49.2834549   0.8910475  78.5686951
  49.7327614   1.4469776  77.9320679  49.9403305   0.2450011  78.8282547
  69.9775772   6.3206472  24.9625549  69.3650513   6.4030299  25.6934795
  69.9020157   7.1507730  24.4920082  32.6385307  43.4787140  62.1729202
  32.2425537  43.0802460  62.9479408  32.0458641  44.1940422  61.9420815
  12.9936361  57.3407516  16.8498325  12.5570021  57.7795181  17.5799465
  13.1634903  58.0391655  16.2176914  81.8177795  41.7179871  83.6721420
  81.0577316  41.9920006  84.1854401  82.3929520  41.2893944  84.3059540
  39.1538010  62.3059196   3.1182137  38.9669685  62.3948593   2.1836467
  38.4501114  61.7489891   3.4512007  63.3937187   2.6064851  36.9232330
  62.9200516   2.6029932  37.7550125  62.9071579   1.9972457  36.3679695
  44.7312355  25.1576252   1.1539398  45.4412537  25.6570892   0.7506515
  44.1115799  25.8223171   1.4546756  68.5935135  11.7386980  47.4093132
  67.7855301  12.2436714  47.3176804  68.3481522  10.8471918  47.1618347
  21.7134666  60.6933060   8.8808746  21.6294708  60.7532921   9.8324938
  22.5589771  61.0989380   8.6890202  44.8218803  43.4605637  52.1320038
  45.1182861  43.3423233  53.0344429  44.2161369  44.2005348  52.1738701
  37.1443787  40.1072197  14.8869629  36.6458168  39.2932701  14.8151741
  37.2324486  40.4145164  13.9847183  30.3015118  48.4663315   4.5685349
  29.5378113  48.2296486   5.0948181  30.4111786  47.7335701   3.9625111
  12.6867075   1.6683737  43.2666550  13.1388388   2.5111217  43.2268448
  11.7619390   1.8870375  43.1516724  49.9178009  63.7793007  69.1333694
  49.3162956  64.0961685  69.8071747  49.9177856  62.8281059  69.2404251
  61.3209534  37.5121040  12.9695292  60.7280579  37.0779190  13.5828705
  61.0659866  37.1750641  12.1106777  68.4693375  19.4851665  35.2500343
  68.6564331  19.9471893  34.4328690  69.0306778  18.7103825  35.2210503
  71.5070877   2.0399032  61.4797897  72.1690369   2.4897645  62.0048523
  71.8990784   1.1906031  61.2766418  41.8626671  27.5089626  57.0776253
  41.7100792  27.0467606  57.9018326  41.3789940  27.0018959  56.4255676
   9.7347927  51.7895126  66.8033600  10.0624123  51.1966705  66.1270218
   8.7984161  51.5981750  66.8564682  67.5710602  70.6228333  43.4915886
  67.4732285  71.5469055  43.2619247  67.9348755  70.2176056  42.7044029
  50.0839996  67.1503601  48.4752655  50.7328835  66.4486389  48.5279465
  50.5501442  67.9306488  48.7754021  82.5420914   3.9353833  76.3627701
  82.4030457   3.0462623  76.0366364  83.1813431   4.3145137  75.7595749
  73.4675064  27.7023640  63.6691856  73.7700577  26.8942356  64.0834579
  72.5185547  27.6949577  63.7943764  50.1250763  64.2636490  57.5910339
  49.3611946  63.7160187  57.7721863  50.4380417  64.5315552  58.4550438
  20.4162407  63.5132751  20.7378101  20.7910080  63.2884712  21.5894241
  19.6773663  64.0855026  20.9448090  43.2343674  58.7802887  83.5551605
  43.4139671  57.9049644  83.2119675  42.2841721  58.8738518  83.4872894
   2.4635673  47.5592194  53.2716789   2.8638482  46.8456421  52.7748756
   1.6494979  47.7486496  52.8051605  38.5945854  53.2162209  11.3275824
  39.4326859  52.8567810  11.0366755  38.7843094  53.6055717  12.1811876
   2.5377893  33.2717705   8.4395475   2.3953166  32.9457779   9.3281765
   2.7315524  34.2021523   8.5539303  39.8355408  21.8587837  11.1435480
  40.2741547  21.1358891  11.5921812  40.3468208  21.9906540  10.3451529
  19.9634666  53.6056862  81.8587341  19.7113209  54.4894524  82.1263428
  20.7871571  53.7244835  81.3858109  58.6576118  39.0762749  79.8295212
  58.8755646  38.3971100  79.1911926  58.2773666  38.5988083  80.5668564
  86.5017471   1.3739700  70.2087402  86.4702759   1.9686675  70.9581223
  85.9277039   1.7780501  69.5580215  37.1715050  28.0632744  83.6710434
  36.4304504  28.0331860  84.2761612  37.5186729  28.9507046  83.7614594
  62.7080307  36.3367004   2.5268142  63.2845993  35.5995827   2.7279425
  63.2866135  36.9955292   2.1428652  46.7476959  17.9499836  73.8678131
  47.6293983  18.2983131  73.7355347  46.8424187  17.0054264  73.7450562
  11.2800198  45.6887627  83.3494339  10.9842634  45.0865936  84.0321884
  10.7465305  46.4735718  83.4747314  71.3339462   1.7676206  83.5378265
  70.6407394   1.2632982  83.1119614  72.1052170   1.2027786  83.4896240
  40.8593712  48.2844849  46.0404625  41.7912827  48.1918526  45.8425026
  40.7891121  48.0664711  46.9698524  21.5246029  43.5948257  71.5339432
  21.9618340  44.3859367  71.8489075  21.8956642  42.8890953  72.0635529
  14.6141376  23.4565487  71.1918564  15.5231447  23.1619129  71.2477722
  14.0981827  22.6906223  71.4436111  85.6474686  19.2251282  44.7267456
  85.9308701  18.3181438  44.6114273  84.8754120  19.3078327  44.1669998
  64.4558945  25.0254364  32.3212395  64.0548019  24.1589355  32.3885956
  65.0580673  25.0690250  33.0640182   1.8928573  24.3623791  35.9020691
   2.5807676  24.4502239  36.5618362   1.3895357  25.1736107  35.9713593
  46.1142349  13.3009195  62.8068428  46.7310715  12.5727558  62.7325134
  45.8864975  13.3279848  63.7361603  62.7971840  28.0799809  82.6563492
  63.7275848  27.9389324  82.8315506  62.7821121  28.6925755  81.9210052
  65.5872421   0.7156467  20.0960751  65.1110001  -0.0318473  20.4575729
  66.4817810   0.3957897  19.9789658  43.6644020  65.1373367  81.9729996
  43.0116158  64.4374161  81.9877167  44.5036850  64.6837616  82.0511475
  59.2677841  69.3024597  59.8459435  60.0623970  69.1189194  59.3448143
  59.3858986  70.1979599  60.1627388  31.7226067  70.6655350  62.2194824
  31.4435062  70.7393494  61.3068581  32.6788788  70.6778793  62.1792412
  43.7915802   5.2416015  58.4418602  43.6997566   5.9784346  59.0459099
  42.9422951   4.8010125  58.4706573   4.3937960  20.7595844  12.9253340
   3.7141876  21.4018764  12.7208195   4.4878445  20.8051186  13.8768129
  42.7114792  30.0023842  15.2224627  43.6446228  29.8162670  15.3265333
  42.6224899  30.2778549  14.3100872  28.2699089  68.7454071  80.8272934
  27.7516727  68.0229492  80.4727249  28.2360477  68.6215057  81.7758331
   6.0616579  63.6475563  89.2521362   5.1074147  63.7195015  89.2739334
   6.3009458  63.9045486  88.3616714  55.7962151   5.2907748  84.9479980
  56.4113617   4.9261532  85.5842972  55.4958153   6.1077151  85.3462448
  82.7164459  32.3633804   1.2817973  82.2104721  31.6382866   1.6484873
  82.1847763  32.6816101   0.5522217  39.7368507  34.9771805  88.0981216
  39.6568222  35.0830040  87.1501617  40.0298042  35.8331299  88.4107895
  66.3650055  14.9231701  75.5750046  66.8510971  14.2092438  75.1623840
  67.0417328  15.5093622  75.9136047   8.6373720  26.9549580   6.2256985
   7.8916359  26.5622272   6.6794295   8.6400146  26.5381699   5.3640070
  73.1712952  18.6859932  45.2320633  73.9000244  19.1171036  44.7856064
  73.4636154  18.5997524  46.1394463  52.3117104  26.4080696  55.3060913
  52.3851357  27.1456470  55.9117470  51.9093857  25.7113953  55.8247566
  62.9991150  31.3322601  39.5652962  63.2753716  31.1076393  40.4538116
  62.2185669  30.7989445  39.4151306  65.7466965  32.7632599  13.3228350
  66.3182526  33.1973915  13.9561472  65.1368866  33.4460106  13.0431576
  81.5428543  69.9266815   7.8620486  82.4895401  70.0247955   7.9640269
  81.1783905  70.7372971   8.2174406  85.1585693  71.7461166  43.5344810
  84.6026306  70.9873047  43.3573532  85.3287735  72.1248703  42.6720352
   0.5305454  30.2982922   6.6882377   0.2092560  30.8175278   7.4253936
  -0.1246552  30.4254360   6.0021048  77.5882568  51.2371407  88.7780685
  78.1828308  50.5699272  88.4352264  78.1199417  52.0318680  88.8222198
  30.6994019  19.7839279  83.5752716  30.0218887  20.2847748  83.1210022
  31.5235748  20.1401615  83.2435074  48.2335091  65.0617828  80.7430725
  49.1395226  64.7688599  80.6452332  47.7136154  64.3768845  80.3225327
  17.5338192  42.1845665  51.7373810  17.8915920  43.0154991  51.4246826
  18.2744942  41.5789223  51.7086143  70.0633392  29.9713860  26.2050896
  70.5493088  30.7928638  26.2774601  69.5884247  29.9003029  27.0331230
  17.4445686  63.6253052  26.6144753  16.8249931  63.2352180  25.9978790
  18.2994022  63.5121460  26.1989193  29.5744133  49.5740433  70.4099350
  29.9472103  49.4040489  71.2750092  29.6375866  50.5232887  70.3042221
  68.7403030  41.1278839  31.3856087  69.6722031  41.3414154  31.4324989
  68.7177277  40.2175255  31.0906963  68.3075867  21.6856136   7.3775549
  68.8718262  22.0287724   8.0704527  68.2513199  20.7471256   7.5572877
  18.9181290   6.5618448  60.0949631  18.2627926   5.8643889  60.1128960
  19.0867977   6.7557812  61.0170097  84.5655518  33.2860794  23.9885406
  85.1702576  33.9750023  23.7129536  85.0905991  32.7179337  24.5522480
  59.6566238  19.8510475  42.0384369  60.3649292  20.4728661  42.2053947
  59.2872772  20.1281967  41.1999855  80.0693054  45.8660355  66.0990753
  80.3611374  44.9689445  65.9369202  79.7790680  46.1818542  65.2433548
  48.9280243  55.3681946   6.7684717  49.0698280  55.9495773   7.5155444
  48.4588966  54.6182823   7.1342330  35.8472633  44.4122238  65.5865555
  36.6678467  44.3456650  66.0748672  35.8902016  45.2688751  65.1616669
  66.9876099  41.0500107  85.8629532  66.9194565  41.2280998  86.8009644
  66.3013535  40.4052315  85.6910934  71.5763321  49.3272324   5.1194701
  72.0557709  48.5213394   4.9273767  70.6595459  49.0556717   5.1640406
   3.8169100  12.4138393  46.0747604   2.8631132  12.3578024  46.0167618
   4.0415430  13.1987638  45.5750961  83.3917236  59.2255478  49.3295135
  84.0540161  59.9060364  49.4500999  83.2971115  59.1489677  48.3800850
  14.5200090   9.5191479  63.9477119  14.5305252  10.4363441  64.2213364
  13.6696758   9.4056044  63.5231285  83.8488541  11.0034180  18.1461010
  84.5667267  10.4564009  17.8272629  84.1773376  11.8990965  18.0680695
  25.5330086  41.6530190  62.1148987  25.0985775  42.2907104  61.5484657
  25.2911758  41.9172249  63.0025635  16.1662884  54.8891945   3.9183857
  15.3335056  54.5009232   4.1866250  16.1336040  55.7838287   4.2571898
  28.1870213  55.9337082  54.7300491  28.5766506  55.0602798  54.7693558
  28.6099300  56.3510742  53.9795914  74.3416748  25.1356373  82.8220749
  74.8646698  25.8230553  82.4095764  74.3274002  24.4269676  82.1787949
  52.6105194  40.9127007  79.1054230  53.3088760  41.4929733  78.8024216
  52.4735947  40.3035393  78.3798904  28.0691910  20.5242577   4.6531076
  29.0183792  20.5779610   4.7644062  27.8753452  21.1421833   3.9482498
  82.7483597  62.6572838  73.8555832  82.4534454  63.3961601  74.3878632
  83.6442184  62.4926300  74.1497879  35.1860619  60.5585747   5.4872041
  35.0810547  60.2379570   6.3829770  34.8875465  61.4673882   5.5215602
  58.0328026   9.2259626  53.2934875  57.8288498   8.8824863  54.1633492
  58.2594566   8.4522257  52.7775497  21.1792488  67.9098816  27.4889870
  20.3805275  68.2497635  27.8924160  20.9464264  67.7793121  26.5697594
  34.3140297  55.6829147  49.3587875  33.7291718  54.9318123  49.4588852
  34.5074730  55.9569893  50.2552795  37.0160980  66.6773834  47.9597511
  36.8302689  66.9836578  47.0721169  37.6935043  66.0107117  47.8461876
  76.0777740  48.0266418  54.1526642  75.5539322  48.6170387  53.6111374
  76.6824341  48.6032333  54.6197357   3.3246350  29.2695732   0.3761210
   2.7247334  28.6588058   0.8042723   4.0139470  29.4211636   1.0227281
   1.9504590  47.9563828  82.2601700   2.7681460  48.4140205  82.0647507
   1.7182811  48.2468948  83.1421738   8.3679609  25.0146217  69.6756210
   8.6759653  24.2501736  69.1888046   9.1559896  25.3706226  70.0861130
  59.2954445  41.1043320  42.6416664  59.9827156  41.5173492  42.1188812
  58.4803391  41.4683418  42.2962189  52.0629501  59.6461449  78.2516479
  52.6020966  59.9613991  77.5262756  52.4648018  58.8152275  78.5052719
  86.0656204  68.7248001  57.2674217  85.2531204  68.5713806  56.7852058
  85.7876282  69.1626129  58.0719566  18.7583218  58.6203651  86.1129608
  18.8300228  58.2273788  85.2431030  18.6976280  57.8737221  86.7088394
  79.6639786  22.9271126  22.4269085  79.7682877  22.3692570  21.6560974
  78.7658157  22.7686539  22.7174778   4.7087436  45.7506523  36.4251251
   4.9970326  44.8379822  36.4375534   5.1314640  46.1248474  35.6521339
  52.2482376  17.0816689  20.1214294  51.8032455  16.8406792  19.3089409
  52.4899597  17.9997082  19.9989147  78.4613037  65.5039368  46.7522850
  79.1397247  65.4454727  47.4250107  78.9150085  65.8507156  45.9840889
  28.4039040   2.3103776   4.1215863  28.9141712   2.4484930   4.9195728
  28.4122829   1.3618778   3.9930954  58.9165497  60.6379585  36.4658394
  58.9820557  60.9574852  35.5659256  58.5659676  61.3799629  36.9585381
  63.5300903  69.9331512  81.9921265  63.0465126  70.0207367  81.1707230
  63.0721474  70.5110931  82.6024551  83.5652924  23.5009117  76.6846466
  83.6272736  23.5843544  75.7331009  83.5721512  24.4028435  77.0051193
  20.8718872  65.6874390  13.4071455  20.6849346  66.6093750  13.5840788
  20.7903748  65.6045761  12.4570293   4.6671758  24.9615059  12.9119272
   5.0572748  25.6532860  13.4462461   5.2819266  24.2309608  12.9798679
  32.6122055  42.1374664  56.6093445  31.7565079  42.5664330  56.6095238
  33.2196579  42.8146248  56.9071426  70.9251175  36.8479652  70.7788315
  71.5394211  36.1667519  70.5053177  70.7742462  36.6753159  71.7081680
  67.5250626   5.6576018  71.2186203  67.1564255   5.0621376  70.5661163
  68.1954346   6.1484342  70.7433243  30.2684650  10.5391445  76.3796616
  30.6328926  10.2907248  77.2292023  29.3247128  10.5927057  76.5303040
  83.8322906  49.4058075  17.4806976  84.0481415  48.8186989  18.2052288
  83.2255936  50.0415382  17.8601685  66.2569809  29.2504940  38.2949905
  66.4455795  28.4338551  37.8326492  66.2696838  29.9209023  37.6118927
  47.4014969  46.9976349  46.3748589  47.0646896  47.0002670  45.4788742
  46.8698006  46.3437462  46.8286819  70.1488190  14.1903343  65.2597733
  70.8011093  14.4060011  64.5932693  69.9594803  13.2627735  65.1183090
   3.0628469  42.9388390   8.2554388   3.9097424  42.7721329   7.8416648
   2.7770789  43.7751007   7.8876929  36.6771469  38.2532845  79.1646423
  36.6596489  38.9868317  79.7793274  35.7851372  38.2079124  78.8204193
  37.5296249  16.2335739  66.1402740  37.4576874  16.2582874  67.0944519
  36.7923584  16.7597752  65.8307953  83.2940979  50.9164124   6.1180558
  82.4832077  51.2043839   5.6988177  83.0307159  50.1778221   6.6670094
  48.7394791  55.5242424  60.9734764  49.4445534  56.1649666  60.8808784
  49.0017929  54.9856606  61.7200394  32.7034264  18.2124710   4.0217419
  33.4190407  18.1418781   3.3899624  31.9183674  17.9932594   3.5198843
  74.7509384  52.4534950  61.9506302  75.0243759  52.9548645  61.1824532
  75.4130707  51.7676888  62.0371590   7.6630416  60.1679688  18.9031258
   6.8003721  59.8171883  18.6817970   7.9228406  60.6700096  18.1306686
  50.9716110  45.1354027  76.4494781  51.2919922  45.3534966  75.5742493
  51.3689766  44.2869186  76.6454468  71.5670090  69.0879898  31.2278900
  71.3967972  69.9002838  30.7509861  71.1965942  68.4020386  30.6724663
  29.5886116  47.1882019  85.3058929  30.3949566  47.1963158  85.8216171
  29.5972652  46.3406372  84.8611526  46.3226700  47.7759094   7.3289289
  45.7641449  48.4904785   7.6349864  46.2693787  47.8222809   6.3743391
  18.1447086  61.5832825  58.9617538  19.0895863  61.6197853  58.8130798
  17.8448772  62.4809761  58.8186646  40.5489349  13.0947218  80.6530762
  41.1193428  13.3810816  79.9397278  40.5815697  13.8104172  81.2878571
   2.4276762   7.2591844  13.0654707   3.0667548   7.6767220  12.4879990
   1.8616117   7.9752150  13.3537455  18.7854748  57.6460915   0.0067296
  18.9274349  56.7103386  -0.1362501  19.6079731  57.9582329   0.3839529
  46.8433685  64.2833481  34.1252441  47.6016312  63.7652893  33.8552589
  46.5004921  64.6490021  33.3097916  71.2811279  29.8125134  72.9402313
  71.5786285  28.9057961  72.8654480  70.3825607  29.7439232  73.2628784
  58.5580635  48.5009346  55.3198547  58.9898071  47.6635971  55.1504555
  57.6356888  48.3392525  55.1215858  26.8680019  10.6575689  82.9585953
  27.7878761  10.8393774  83.1509781  26.4068432  10.8716583  83.7695999
  86.1155930  53.4700813   1.4597131  85.7802734  54.0313148   0.7605593
  86.9825058  53.2010422   1.1558857  16.6053181  14.8051538  83.1338043
  17.4922314  14.4479628  83.1788712  16.6150780  15.3741236  82.3641205
   7.0148416  69.7230453  32.6490593   7.5903373  68.9738541  32.4949608
   7.5198836  70.4787445  32.3489151  79.4217529  28.4167023  70.1390915
  79.8562698  29.1902275  70.4983826  78.6336060  28.3151836  70.6727142
  86.2280045  24.4302750  55.1808472  87.1409607  24.7039566  55.0922928
  85.7218170  25.2214661  54.9964027   9.1821175  55.1542931  45.1882858
   9.8728876  54.5120239  45.3512535   8.6843348  55.1831970  46.0053596
  25.7052517  69.0957031  60.3176765  25.7578735  69.7897110  59.6605492
  26.5829964  68.7142181  60.3339577  22.5902138  67.6168213  80.1369629
  23.3412495  67.3726044  80.6778336  22.6694317  68.5648499  80.0311508
  73.7299881  19.7219124  83.5342712  73.6330566  18.7804184  83.3913574
  74.4896393  19.9673710  83.0061493  36.3885918  47.0016975  64.5252533
  36.5396347  46.6891556  63.6332092  35.8378410  47.7771034  64.4173279
   1.9809247  17.4113750  13.1803265   2.2082608  17.5279922  14.1027966
   1.7013605  18.2798843  12.8908987  64.7951431   8.9294615  50.7150269
  63.9182243   9.3075504  50.7805557  65.2072906   9.1335039  51.5545082
   1.3292992  15.6764793  87.9532318   0.8246785  15.3928680  88.7155685
   2.2271216  15.7544775  88.2758255  36.3442383  53.2537651  56.0951767
  36.6368675  54.1589737  56.2009964  36.9738846  52.8681641  55.4860039
  67.2732468  21.3144665  37.0828552  67.8875198  21.9316654  37.4803047
  67.7518539  20.9443073  36.3411369  75.2808456  47.8996925  84.8521423
  74.7609787  48.5009995  85.3854294  74.9050293  47.9716415  83.9747467
  73.4900513  43.2803612  69.7306137  73.0548553  43.8067207  69.0599518
  72.7988434  42.7172928  70.0790634  24.8029976  36.5229073  13.0027952
  24.9108219  36.0912590  12.1552792  24.4523315  35.8411522  13.5759201
  58.0060959  45.0373077   5.7028375  58.3796616  44.1934471   5.4487023
  57.9138184  44.9817009   6.6539550  55.2597313  46.1893768  64.4815903
  54.8692322  46.3394203  63.6206398  56.0912781  46.6626129  64.4531860
  29.8927288  69.5818710  57.9284897  30.2605820  70.2039490  57.3008499
  29.6171989  70.1228867  58.6684990  75.3942719  24.9542694  34.1549377
  75.7488785  24.1706638  34.5749969  74.5585098  24.6701965  33.7847595
   4.4665761  16.2771606  67.4122314   4.2657566  15.5239344  66.8567581
   3.9528825  16.9935589  67.0392380  33.4755211  60.6004143  85.1430588
  33.8050385  60.3877869  86.0162354  34.1323853  61.1925430  84.7768021
  10.7589922  29.5356941  30.8903503  10.1051006  29.6861477  30.2076912
  10.2873201  29.0580559  31.5727119   8.0011902  44.6845551   3.1605527
   7.0702014  44.6934204   3.3828433   8.0332861  44.3144798   2.2783709
  47.4069328  69.8491287   7.3399606  47.6440773  69.7262268   8.2591410
  46.4824524  69.6048584   7.2963929  68.5830002  37.1603279  25.0237122
  68.6378937  38.0770264  24.7537403  67.8178864  37.1251297  25.5978184
  53.8419380  33.7592201  32.1464882  53.7339554  33.0328484  32.7604599
  54.7329597  34.0729752  32.3009834  17.7165489  51.0089836  13.8128157
  17.7289829  51.9593201  13.6990747  17.0217857  50.8534050  14.4526072
  43.4705391  47.0623474  26.6821918  43.0190773  47.6850014  26.1123562
  42.8069420  46.7949562  27.3180923  61.6393700  33.8656960  44.5896263
  61.9705925  33.5526619  45.4313698  60.8504410  33.3463020  44.4345436
   8.0805454  22.7003288  23.4142628   7.5488353  22.4974995  24.1839218
   8.0393715  21.9077873  22.8790855  42.9958801  59.7049522  11.6123419
  42.3609848  59.8126717  10.9041481  42.4716682  59.4283066  12.3639421
  80.6871948  37.4264641  84.3391571  80.0846405  37.5685196  83.6091080
  81.5189209  37.7920990  84.0378723   2.8093824  27.7648525  26.4243221
   3.0109715  26.8993092  26.7798920   3.5823598  28.2923813  26.6254463
  82.9869995  69.2739944  71.0654526  83.1568832  69.4676895  70.1435776
  83.8440018  69.0423660  71.4234085  13.0399971  63.0342751  63.2097855
  13.0712318  63.9000549  63.6168251  13.4304771  62.4498863  63.8595886
   2.9280691  19.8943653   7.7780247   1.9872602  19.7711105   7.6518550
   2.9958026  20.6758137   8.3266430  40.0010300  61.8176575  71.0951385
  40.7260437  61.2858925  71.4234848  39.8466988  61.4910316  70.2087250
  72.0532379  57.2659111  61.8205872  71.7218628  56.6047211  61.2129288
  71.5551987  58.0557594  61.6100426  44.4296188  63.2020874  43.4230232
  43.9240036  63.1181564  42.6146049  44.9334717  64.0077515  43.3078423
  51.5370140  65.9819717   1.7203740  51.8218002  66.8933411   1.7876829
  51.7585945  65.5985031   2.5689523  60.9968529  47.8116684  76.3607254
  61.7053032  47.4204826  75.8495483  61.2010841  47.5827751  77.2674408
  43.2742348  68.2762680  79.9695969  42.5464630  68.2564011  79.3481598
  43.9834671  67.8142014  79.5227051  42.8162842  44.6671715  12.7907839
  43.4142380  45.3144722  13.1645298  43.3874588  43.9645348  12.4804697
  14.4967384  25.5487595  73.6154556  15.0651588  24.7789822  73.5915070
  14.9234982  26.1424980  74.2331772   7.7069087  30.6633129  69.3870010
   8.0262394  31.1453991  70.1497955   6.9826531  30.1354637  69.7232513
  18.6558266  58.8130722  74.9985733  19.2843437  59.1383209  74.3540497
  17.8020687  58.9351692  74.5833359  83.3671722  36.9258690   3.7181151
  82.6676102  37.4036446   4.1637378  83.9236145  37.6092453   3.3444872
  78.5878677  57.8403969  56.3162613  78.8200760  58.5192986  56.9498253
  77.6337051  57.8860283  56.2552185  71.6497726  45.6690102  20.7407265
  70.7118988  45.7518425  20.5682087  71.9588623  46.5712357  20.8224945
  41.2861443  43.3326530  14.9492855  40.9364014  42.6033325  14.4374189
  41.8698387  43.7912407  14.3449440  77.9876328  63.1975822  65.4357452
  77.6457138  63.1539803  66.3287277  77.3104019  62.7851410  64.8995667
   8.5708504  66.4312668  10.4137096   8.1269951  66.6964722   9.6081724
   9.4031324  66.9037018  10.3952646  77.8165054  46.8281212  21.5487099
  77.3127975  47.5957069  21.2779274  78.7111588  47.1526756  21.6511497
  68.6741333  22.6221504   1.0539080  68.2614365  21.8953953   0.5872753
  68.7516022  23.3148479   0.3978595  20.4970207  48.0802422  62.9101143
  20.9163437  47.3267708  62.4945602  19.5655804  47.9721985  62.7178230
  58.2419586  30.0482330  17.3858585  58.0385895  30.5237350  16.5803947
  57.6413193  30.4115314  18.0366116  75.3786011  52.4754219  41.0865631
  74.4659500  52.1971092  41.1629715  75.6987991  52.0333023  40.3002853
  50.3175163  59.2473183  30.3324852  49.9603081  59.0941391  31.2072239
  51.2327385  59.4823685  30.4852982  78.9188232  43.7889977  67.9734955
  79.2463379  44.4404106  67.3533173  78.8077621  42.9950104  67.4505386
  68.1890335  50.7271767  74.8831711  68.8080444  51.2664299  74.3909683
  67.8347168  51.3165131  75.5490341  26.8895702  57.5268021   1.7602159
  25.9852524  57.2465706   1.9013258  27.0597801  58.1509056   2.4657314
  27.5780869  18.0659237  69.3582764  27.4209099  18.9530277  69.0348969
  27.6420631  18.1650944  70.3081741  46.5335541  18.5319824  17.7495689
  46.7685013  19.0978069  17.0141258  45.7835426  18.9663124  18.1558590
  86.1336670  46.0325813  32.6971245  85.8241348  46.0897141  33.6010933
  85.8114471  45.1864052  32.3866577  36.4655724  49.1639786  15.3867788
  36.8692474  50.0029449  15.6090736  36.0937767  48.8510971  16.2114620
  26.7016068  47.3508110  15.2188663  27.5096722  47.4645920  15.7191820
  26.7048531  48.0733681  14.5910683  45.6302986  22.9391212  -0.1408038
  45.3197403  23.6339626   0.4396980  46.5140991  22.7439442   0.1706971
  46.6787033  29.7579556  11.4760580  47.3196373  29.0593452  11.3442183
  47.2062645  30.5479908  11.5933514   8.5031404  32.4987907  56.4277954
   7.6468081  32.1324501  56.2070656   9.0686388  32.2414742  55.6996231
   4.4085550  69.2551804  19.8935242   3.6015017  69.7573853  20.0061646
   4.9896674  69.8412704  19.4087162  43.6920662  31.1845837  65.3946457
  43.9475136  31.5110188  64.5318527  43.6593094  30.2335911  65.2908630
   8.6226883  28.0701256  54.2534142   9.2247677  27.4194050  53.8924484
   8.7120409  27.9788914  55.2020569  41.0772209  50.6917610  22.9459915
  40.1652069  50.5260925  22.7072067  41.1088104  51.6296272  23.1347752
  50.3151093  36.4147186  70.5746994  49.9307480  37.2863159  70.4808044
  49.6250610  35.8912888  70.9822388  63.3241882  67.1901245  30.8224773
  63.5807610  66.8847580  29.9523296  64.0549774  67.7378006  31.1092339
  21.6676617   3.8575428  69.2274094  22.2820320   4.2148046  68.5862045
  21.8592987   4.3349948  70.0345917  27.1770706  62.4349937  59.9184990
  27.2666073  61.8002968  60.6293907  26.3288479  62.8504868  60.0737953
  64.7787247   0.5403754  40.5544434  65.2408142  -0.2000708  40.1614456
  65.2467728   1.3117383  40.2348137  73.2168198   7.5926528  22.1713238
  73.4635620   7.3813004  21.2709484  73.1428528   6.7426500  22.6052094
  54.7421188  51.7475662  72.2418594  54.5679398  50.8538857  72.5372162
  55.3029251  51.6408691  71.4735184  72.2886047  30.7570591  65.9556732
  71.5621643  30.3161831  65.5150528  72.0906219  31.6895733  65.8693390
  47.2409592  20.1178951  32.7323647  47.2763939  19.4317741  32.0658722
  47.5010834  19.6788292  33.5421715   3.6587777  57.1129608  21.5150013
   3.1361835  57.8983078  21.3526402   3.0784686  56.5380287  22.0139256
  64.9211044  48.2501526   3.6217046  65.4010773  48.5844078   2.8639927
  64.6292725  47.3784485   3.3548710  80.8587036   3.1941626  19.5847816
  80.4546890   2.4865925  20.0871201  81.7982330   3.0186253  19.6367855
  80.3614044  43.6643982  80.5240707  80.0685349  44.1958923  81.2643204
  80.2707977  42.7609863  80.8271637  45.7417908  30.8416214   3.8078110
  45.1807327  31.6106014   3.7072403  46.5651474  31.0891914   3.3870664
  27.8513622  33.7948189  10.8702850  27.7030315  32.9948921  10.3659601
  27.3827648  33.6500702  11.6922913  68.1269836  46.5759163   8.6096401
  67.4575653  47.0774689   9.0749874  68.5083084  46.0071907   9.2785015
  38.4149246  52.6285210  53.7296486  38.2561226  53.5263329  53.4381981
  38.8107529  52.1973190  52.9722710  28.7277451  38.4301109  12.9528084
  27.9253292  38.3336487  12.4399176  28.4588547  38.2518616  13.8540058
  34.1158676  50.2426605  55.2617302  33.9501343  49.6140785  55.9643326
  34.8306236  49.8546829  54.7569275  37.1909218  40.9152527  40.3886833
  37.2523232  40.4319267  39.5647545  37.6817360  40.3836403  41.0153580
  37.0303040  50.1625595  78.7570724  37.2042007  50.9866943  78.3023300
  37.6547775  49.5437241  78.3785095  62.3577766  19.6516113  24.4216213
  62.7982750  18.8237686  24.2296085  61.5950317  19.4017220  24.9431648
  13.4208946  32.8360405  81.3490524  13.6938295  32.7386627  80.4367752
  12.8814774  33.6267586  81.3545761  18.5767269  65.7337189  21.1889381
  17.6230145  65.7924347  21.1322002  18.8939362  66.3079071  20.4918594
  46.8476372   5.7112980  35.8749199  47.0655327   5.1001601  35.1711731
  47.4500694   5.4851947  36.5835686  30.1120567  51.8119049  74.2283020
  29.1939449  51.7905045  73.9584045  30.0863018  52.0924835  75.1430969
  70.7470703  67.1659088  11.6254044  71.3737488  66.9830475  10.9253559
  70.1476974  66.4197311  11.6112547  74.6057892  17.7691402  20.6777248
  74.2857971  17.0311871  21.1966343  75.5188217  17.5517368  20.4897709
  59.2484970  62.0864944  72.4889374  59.6724472  62.4357071  71.7050095
  59.9591446  61.9906120  73.1229935  36.7944756  17.8598537  63.6455383
  37.1165123  17.6459293  62.7698898  35.8973274  17.5264091  63.6588745
  54.5741310   6.8554654  61.6278458  54.9708900   7.3570518  60.9156494
  55.2063217   6.1609502  61.8128090  59.3886833  38.8632088   5.4481668
  59.0285225  38.1329575   4.9449258  58.6307144  39.2473221   5.8888149
  84.9045563   9.2987280  68.7341766  84.2247086   9.8653145  69.0988846
  85.7172928   9.7886114  68.8595276  38.8725700  18.6798325  64.8454971
  38.1114464  18.4441090  64.3150711  39.5251350  18.0107975  64.6386566
  54.6630745  25.9443989  67.6051865  53.7486115  26.2184238  67.5351944
  55.1569824  26.7637672  67.6355667   3.3308613  27.1139679  46.9939651
   3.9620268  27.5749798  46.4413986   2.8894565  26.5078430  46.3989792
  21.7139473  59.3434639  77.8996506  22.2738495  59.6042061  78.6309204
  21.7215824  60.0983353  77.3111420   2.3883038  13.0980015  15.0365877
   1.7279108  13.7886267  14.9804688   2.5467379  12.8436689  14.1274967
  61.5783119   7.8184781  61.1672440  61.3211555   8.2859068  60.3725014
  60.7551346   7.4902811  61.5290413  55.8710976  57.1006584  14.4565191
  56.8276863  57.0769997  14.4812326  55.6585541  57.2320328  13.5325069
   8.7448330   3.1642616  17.9489746   9.3414850   3.8854551  17.7486801
   7.8720126   3.5535164  17.8951473  17.2974758  31.6388607  72.9135590
  17.8361816  32.2335854  73.4354095  17.8247032  30.8437023  72.8361816
  53.0974808  13.5462494  60.1555023  53.2486382  13.0470791  59.3528709
  53.9724045  13.6915522  60.5155449  85.5532761  27.4831982  34.7957153
  85.7662354  27.1612835  33.9197845  84.8832321  28.1508770  34.6491661
   9.0169840  60.3858719  80.5726700   8.3902826  59.8962059  81.1053085
   9.8647871  60.2153702  80.9830246  83.8624649  66.1303253   9.0366850
  83.4136429  65.5964279   8.3811359  84.2507172  66.8479385   8.5361547
  54.6875458  18.3584251  83.0456924  55.1826057  18.5819607  82.2575455
  53.9114990  17.9025803  82.7198334  55.4425964  20.9417362  75.8393860
  54.6011810  20.5933762  75.5446091  55.9073334  20.1814709  76.1890335
   1.2908765  23.7420692  28.3578625   0.8658494  22.8911858  28.2502384
   0.5689020  24.3703938  28.3716850  36.3841743  28.9511566  77.7192078
  35.5141144  29.3478966  77.6764526  36.2272034  28.0154247  77.5927353
   1.4766107   8.5937443  68.8237610   1.0665138   9.4196472  69.0805435
   2.3626101   8.6445751  69.1824417  27.4005413  66.1498337  80.6672287
  27.6385517  65.3787460  80.1524506  27.6479015  65.9247513  81.5641022
  65.1589432  20.0259266  66.2461929  65.8668213  20.6638813  66.3364944
  64.6398163  20.3469524  65.5088425  83.3006668   9.0589237  36.0050735
  82.9483490   8.6687880  36.8050117  82.6327896   9.6873922  35.7308350
  14.9178820  25.0681858  12.4751673  15.2566366  24.1743431  12.5253744
  15.6524973  25.6183529  12.7469921  54.4964180   5.0383315  88.6210403
  53.7007179   4.8317685  88.1307144  54.7233887   5.9266462  88.3460617
  20.1508350  33.6691818  18.3401775  20.0154610  34.2525063  17.5934238
  20.7614422  33.0059586  18.0184212  77.6257706  29.5172215  76.6676788
  77.6543732  29.2991638  77.5992737  78.5040817  29.3127632  76.3467560
  32.1278114  60.6786995  45.8113174  31.8855438  61.3991280  45.2294884
  31.9644260  61.0166512  46.6918411  64.9191666   2.4487329   6.7581205
  64.9654770   1.5766326   7.1499481  64.1298141   2.4266462   6.2171392
  51.5477829   9.2122793  71.1514587  50.9601479   8.7160397  70.5816727
  51.5004997   8.7619467  71.9947815  53.3879814  11.5233374  46.5398636
  52.7636909  12.0782595  47.0073586  54.2347336  11.9486456  46.6753654
  21.5783920  63.4670105  38.2574120  21.2010899  64.3052902  37.9906502
  20.8264675  62.8798103  38.3351097  65.8154449  34.0346069  50.4111404
  64.9242935  34.0392876  50.7605171  65.7596741  33.4988670  49.6198692
  42.1080551  37.4491425  85.6414795  42.1749611  36.6112213  86.0993500
  42.8629951  37.4615402  85.0531387  13.5094271  44.8742294   1.1993768
  14.3921690  45.1383743   1.4586607  13.6313152  44.0353470   0.7547988
  77.1832428  70.4927216  50.2028503  78.1241989  70.5302582  50.3743782
  77.0553513  69.6589966  49.7503242  66.5720749  40.8838997  88.3951340
  65.6837463  40.6239777  88.6391602  67.0771027  40.7991447  89.2038345
  74.1773148   1.6908728  34.6570587  74.0842896   0.9264257  34.0885506
  74.4305496   1.3285596  35.5060768  32.1238022  36.7609482  72.6626511
  32.5630798  36.5974960  73.4972458  32.2199554  35.9417725  72.1769104
  22.4008751  64.7630463  70.9506302  22.5019169  64.5798569  70.0165710
  23.2873421  64.9599457  71.2533569  59.7687607  51.2485733   0.3932790
  59.3268776  50.5427933  -0.0787861  60.6269646  50.8875084   0.6154197
  78.9061432  35.1759148  78.7976913  78.5557938  34.3532143  79.1392365
  78.7145462  35.1470184  77.8603134  25.8806534  52.9066658  49.8388824
  26.1508236  52.0663948  49.4684982  24.9240131  52.8744164  49.8332176
  28.3394318  34.4681473  69.5580597  27.5994377  35.0459709  69.3716125
  28.1271248  33.6528740  69.1036530  74.9245148  63.7293167  81.5042953
  74.3416901  64.3944397  81.1380081  75.3982697  64.1834869  82.2010803
  13.3941793  39.6118622  84.6752167  12.6559715  40.1962318  84.5026169
  13.1951466  39.2191544  85.5251617  47.9579887  44.5302315  17.3846054
  48.6960945  45.0806808  17.6462059  48.3053093  43.6384926  17.4046345
  26.0613022  48.2839241  66.2281876  26.5519981  47.4620934  66.2346420
  25.2604809  48.0809364  65.7447433  65.6950226  65.2554779  87.8398132
  65.4928131  65.3945847  86.9146118  64.9925156  64.6872177  88.1557083
  13.7480688  33.5075874   3.9746752  13.6900539  34.2639656   3.3909268
  12.8794460  33.4443703   4.3718262  70.2384338  17.8989773  56.2225380
  70.8691330  18.3963165  56.7432175  70.4965973  16.9850807  56.3424416
  37.1325378  65.0433807  15.1466265  37.5775757  65.8857498  15.2392550
  37.7408257  64.5055923  14.6396742  26.9070988   4.3504901  87.8074417
  26.6284370   5.2101321  88.1230316  27.8590717   4.4190531  87.7348099
  76.4010925  27.8549995  86.9850159  75.6416397  28.3943520  86.7646332
  77.1401672  28.3020859  86.5725708  17.8153229  32.9659767  48.8741226
  17.5251122  32.6298752  49.7220879  18.7648792  33.0490913  48.9616814
  47.9194183  56.9890213  23.6619625  47.8322105  57.8973389  23.3728504
  47.0183411  56.6811562  23.7595158  66.5638504  48.7452202  78.9745636
  66.8435745  48.0598297  78.3677444  66.8308258  48.4256172  79.8364258
   7.3779120  67.2033844  38.4619293   8.2758598  66.8729630  38.4346886
   7.3770065  67.9446869  37.8563652  44.3901711  19.8922310   5.6542735
  44.2158546  20.6672325   5.1202154  44.7563248  19.2556763   5.0403013
   2.8104091  44.6277542  43.0643044   1.9211136  44.8785439  43.3142815
   3.3307190  44.7705154  43.8549538  76.5855637  47.6885529  67.0726700
  77.3751602  48.0570869  66.6764908  76.1187439  47.2818680  66.3426590
   9.1544809  36.4027176  41.1690331   9.0566235  36.3801155  42.1209488
   9.5079279  37.2730675  40.9851913  15.5576525  71.0072174   3.9209166
  15.9944201  71.7603149   3.5230391  15.9399900  70.2482986   3.4803569
   4.2942119   6.3548398  38.8477325   3.4097006   6.2494135  38.4973679
   4.7288828   6.9410567  38.2283440  71.6784744  23.6186333  70.2394791
  71.3767776  24.1317673  69.4898758  72.5260086  23.2687569  69.9647064
  43.1403809  49.2450218  44.7757263  42.6804657  48.9411888  43.9931717
  43.9378471  49.6550407  44.4408226  61.6182480  40.0044403  79.4701157
  60.8728943  40.1382446  78.8846436  61.5078278  40.6656380  80.1533813
   9.2416601  36.0979805  32.3777237   8.3020267  35.9174728  32.3505516
   9.4783611  36.2730331  31.4669209   9.0946531  60.4425507  31.8274612
   9.3154497  59.7841339  31.1686974   9.7940655  61.0925751  31.7602196
  43.8214302   7.2159200  19.2565727  42.9871788   7.4990664  19.6308537
  44.4717216   7.7930870  19.6568661  43.6726837  56.3034744  82.4599533
  43.3953629  55.5826988  83.0254669  44.4133186  55.9500198  81.9672470
  65.6122284  12.4205961  42.2536125  66.3070831  12.3642092  41.5976906
  66.0741196  12.5583334  43.0806046  48.1213417  22.8964233  60.7796783
  47.3189468  22.9253559  60.2585716  48.7027168  22.3129444  60.2920418
  19.1113338  35.8712540  62.4481277  19.5952435  36.5276299  62.9493637
  18.5777435  36.3809471  61.8384361   3.6067657  21.4384136  37.0298080
   3.8916512  20.5325603  37.1502304   2.6757908  21.4282665  37.2521019
  82.0673218  13.9758844  54.3955498  81.7258911  13.1660748  54.7748489
  81.3187332  14.3613653  53.9402924  37.6088829  44.5827827  13.7126446
  37.7737885  44.0778427  14.5089331  38.0807304  45.4045143  13.8480911
  53.2132607  42.6099205  65.1848297  53.4738922  41.9447021  64.5478134
  54.0195389  43.0902824  65.3729782   2.8112674  42.0911903  38.8659668
   3.7541280  41.9476128  38.9474030   2.6061740  41.8316727  37.9677353
  65.9749603  14.0528908  32.8918877  65.5068741  13.9622593  32.0618820
  66.4851608  14.8566790  32.7926064  76.9634781  19.8013229  55.0882721
  76.9869461  20.2994652  54.2712440  76.6422729  20.4247341  55.7397423
  45.4898491  57.9754372  67.7725143  45.7009315  58.3323212  66.9097824
  46.0602341  57.2119637  67.8619843   8.9818678  41.6470718  23.6702061
   8.2519426  42.0085487  23.1674385   8.5677414  41.2180901  24.4190102
   4.3537126  68.0136490  76.0707779   3.8328278  67.5407944  75.4216919
   4.8494020  67.3312225  76.5233383  85.7850342  25.3193703   7.1425681
  85.9444885  26.2594490   7.0585437  85.8225403  25.1533260   8.0845098
  38.3008156  17.3097382  82.7842560  38.8786201  16.9402924  82.1165085
  38.4126816  16.7356796  83.5419998   9.6125841  53.8960915  84.2366180
   9.6460285  52.9743881  84.4926987   9.5146704  54.3706245  85.0621262
   5.6038117  39.5644684  62.2107773   6.2259321  39.0092430  62.6808014
   5.7812648  40.4484100  62.5323143  19.6806641  26.4702740  61.2530899
  19.4905548  27.3461895  61.5890388  20.1799545  26.0486507  61.9524994
  70.0130234  48.4628334  42.8921852  70.1981506  48.9726524  43.6808853
  69.0586166  48.4719124  42.8196564  17.9773731  67.5390091  64.9159775
  18.7705936  67.9184265  64.5377274  17.3205547  67.6182938  64.2242126
  82.2436218  25.5384617  39.1261749  83.0911407  25.5760422  38.6828537
  81.6009521  25.6231689  38.4218750  77.1236572  25.9440460  19.2918472
  77.0390854  25.0003090  19.4276371  76.4830093  26.1462784  18.6100082
  15.2883301  20.5413914  79.1646423  15.5608091  21.0657387  78.4116211
  14.5387506  20.0378075  78.8472061  62.1329002  56.9620628  85.6784897
  62.2464218  57.7334251  85.1231995  62.8805809  56.9847450  86.2757263
  78.9016342  -0.0730355  27.7101269  78.1064987   0.4146284  27.4952488
  79.5971985   0.5843851  27.6952038  77.5952988  50.5685577  71.1079407
  77.2926331  50.4090805  70.2139664  77.5094070  51.5147209  71.2246857
  20.8815861  51.7954483  78.2033386  20.8340893  52.7326927  78.0148087
  21.0270329  51.3865891  77.3501663  57.0762329  64.2411880  43.2394905
  57.3041878  64.3019485  42.3118172  57.5502930  64.9640961  43.6504669
  21.9538307  36.9063606   6.9800310  21.5044823  37.0107346   6.1413274
  21.8826065  35.9719925   7.1752629  77.1000061  63.7806892  55.7689285
  77.9846115  63.7926025  56.1343956  77.2133408  64.0533295  54.8584023
  64.4747162   9.6920958  78.9461060  64.5403671   9.8811970  79.8821411
  63.6640129   9.1906271  78.8593521  42.6770592  15.7382574   2.7615657
  42.5020676  15.6342039   3.6968637  42.4478683  14.8911486   2.3793218
  25.9257984  62.1216164  35.7596779  25.7836952  61.3347473  35.2334862
  26.7473545  61.9554901  36.2219353  39.4080544  71.1828690  65.8323517
  38.6376991  71.7331009  65.9738922  39.4821053  71.1147461  64.8804550
  66.0647888  60.6916504  79.9073868  66.7420120  60.6386032  80.5817642
  65.4815674  61.3886108  80.2079315  35.7515831   6.6688743  76.5493164
  35.9003792   7.6129851  76.4969101  34.9123917   6.5834141  77.0017395
  62.4540596  59.3464203  84.2935638  61.9358978  59.2539139  83.4940720
  63.3605385  59.2399254  84.0051422  73.2813034  14.1032066  47.1116295
  72.6082840  13.5464945  47.5032234  72.8257980  14.9187498  46.9027367
   5.2564931  44.0647812   3.6725392   5.1453948  43.3360252   4.2831173
   4.5743656  44.6895676   3.9186563  75.0711899  25.8811703  26.3641491
  75.7954712  26.1027794  25.7788868  74.5231094  25.2862778  25.8523445
   7.4814034  46.1984558  64.0969620   8.0290642  46.0405731  63.3279572
   7.8753686  45.6629219  64.7856064  51.2574463  46.8138733  74.1564331
  50.7080688  47.5627632  73.9249496  51.8483620  47.1495781  74.8304901
  24.8257065  54.3961830  25.3196945  24.6118164  54.7437210  24.4538422
  25.6297245  54.8519630  25.5688000  85.3763123  53.4359741  44.3229332
  84.9009857  53.5344734  45.1479149  85.6466293  54.3253670  44.0945930
  74.2638626  25.2557564  64.8362427  74.1418762  24.4016342  64.4217224
  75.2025299  25.3019619  65.0178833  68.8652649  67.8207550  81.2623215
  68.2468796  67.0998001  81.3808594  69.3819122  67.5697174  80.4966278
  82.9592056  31.7571754  35.3793068  82.7819443  32.6019859  35.7929611
  82.8232269  31.9147415  34.4450073  66.1141434  44.7864456  28.3175926
  66.5900650  44.9136162  27.4968872  65.2664719  44.4311256  28.0503216
  65.6026764  51.6844788  75.5935364  64.8475189  52.0685577  75.1480484
  66.1042480  51.2637634  74.8952179  84.5781631   1.4628044  73.1981354
  85.3850708   1.2574140  73.6703110  84.2181702   0.6094083  72.9565735
  42.1227036   3.2038577  27.0536842  41.4086838   2.8279557  27.5685711
  42.5351982   2.4507825  26.6306496   8.0892115  60.4103355  45.1018982
   7.8040814  59.7363968  45.7189407   8.4943619  59.9225807  44.3848381
  78.1853485   8.9451962  51.0826530  78.2996521   9.8048887  51.4877396
  78.0270538   8.3531113  51.8179131  56.5130730  12.6893768  32.9689255
  55.8908539  12.2019300  33.5088043  57.2875900  12.7849426  33.5232048
  52.6614876  19.2470379  59.7522697  52.0454102  19.5060902  60.4375229
  52.3524704  18.3879585  59.4646492  31.1987133  47.8977776  64.0560532
  31.3693676  47.4022980  63.2550468  30.6788502  48.6479149  63.7674904
  31.8200874  65.0737991  59.5637779  31.8545780  65.5080795  58.7114601
  31.0502758  64.5072021  59.5129128  86.5299759  26.8281727  68.9604034
  86.5053864  27.7781162  69.0754547  86.6025772  26.4810333  69.8494797
  42.6016464  70.0599060  43.1734161  42.9412155  69.1655960  43.1395645
  43.1680946  70.5075531  43.8018875  71.6386642  62.2397423  42.2995911
  72.5290527  62.4239960  42.0004425  71.3690567  61.4742699  41.7920494
  26.0713615  44.2296906  37.4098167  25.5200844  44.5473175  38.1249619
  26.5902195  44.9912720  37.1509514  77.0782318  27.3719177  82.7594910
  77.2237244  26.5754681  83.2701035  76.4028244  27.1301079  82.1257858
  57.3832436  33.4352341  21.8451405  58.0045166  33.2626991  21.1376953
  56.6244240  33.8221779  21.4084473  72.8920135  49.9281845  84.2576218
  72.4240570  49.3303223  84.8405533  73.1709671  49.3789597  83.5249786
   9.5002298  64.2161026  84.1694107   8.9471865  63.4776039  83.9144669
  10.1593084  63.8331108  84.7483521  64.0828629  63.4038734  88.8234558
  64.0621796  63.0042419  89.6929932  64.0868530  62.6618042  88.2188492
   0.2166345  18.9429169  47.1505928   0.1761343  18.3045139  46.4385300
  -0.3708903  18.5925236  47.8201256  32.6958885  17.2811565  62.1933861
  32.9342232  16.5721264  61.5961418  32.7362442  18.0715675  61.6550064
  52.3878670  14.3501463  25.6044292  53.2235260  14.3161335  26.0699959
  52.6057587  14.1113949  24.7034550  68.0905609  17.5180550  69.1138687
  68.9228973  17.1265736  69.3788071  67.4435349  16.8284397  69.2622528
  80.1840668  43.9295807  47.0351677  80.1404572  43.7253761  46.1010208
  79.9922180  43.0992622  47.4710541  26.2006950   6.8399115  87.6908493
  26.8677540   7.1323361  87.0697556  25.4535980   7.4159460  87.5287933
  20.8726177  61.6762352  11.6953421  20.0790005  62.0513763  11.3136702
  20.7128849  61.6873245  12.6390553  67.0382538  59.4333878  70.3781662
  67.9669037  59.3430672  70.1644211  66.7515411  60.1996384  69.8812943
  74.5054398  46.7701454  50.8475227  74.7422333  47.6935654  50.7611885
  73.9567337  46.5911827  50.0838966  25.9188480  52.8802376  61.8689995
  26.3253727  53.0536194  61.0199356  24.9788208  52.8781242  61.6885071
  56.0493279  14.1866732  60.9230614  55.8358421  14.6394854  60.1072083
  56.8949242  13.7718029  60.7525368  60.8929214  22.7386246  58.7926559
  59.9989090  22.9928226  59.0214691  60.7860527  21.9966736  58.1974106
  69.2960892  16.6128349  34.8435555  68.8125458  16.6477661  34.0182114
  69.4199295  15.6782494  35.0092239  45.6637115   9.4738026  67.5709839
  45.7738762   9.5110140  66.6208725  46.0979195  10.2635117  67.8935547
   3.1723564  30.4357128   3.8904548   3.9502499  30.9858112   3.7982280
   3.2854660  30.0006866   4.7355523  55.7360649  40.0959473  80.3817291
  55.6071014  39.8079643  79.4780350  55.8339348  39.2845573  80.8800201
  14.2303572  61.1187401  73.8081360  13.6443491  60.7863007  74.4880676
  14.9710159  60.5124092  73.8128433  83.8231049   1.5728586  87.0725861
  84.5677032   2.1473989  86.8945389  84.0068130   0.7797312  86.5691681
  31.5630550  11.5969067  28.9516163  31.3492851  12.2858419  28.3224087
  32.5198822  11.5796776  28.9720421  85.6633072   7.6388044  20.3546391
  85.0839005   6.8989859  20.1724758  85.2767258   8.3700657  19.8729343
  71.8918991  50.4956932  61.2932587  71.4072800  49.6712227  61.3335838
  72.8079071  50.2311897  61.2084351  52.6176758  16.7178040  11.3352194
  51.9583969  17.0376129  11.9511003  52.1622772  16.6820450  10.4940519
  47.7916107  31.3805332   2.1838734  48.1086884  31.3250008   1.2824246
  48.1458435  32.2070694   2.5118783  42.3985176  66.8193588   8.0347424
  41.8399315  66.1064453   7.7249513  43.2356949  66.3992844   8.2319784
  17.2525158  45.7725601  17.8281956  18.1579895  45.4636154  17.8582115
  17.3051167  46.6272354  17.4004173  77.3999023  28.2003765  29.6061802
  77.1188812  27.3325272  29.8961716  77.9644165  28.5173397  30.3112259
  71.9547272  33.9595032  69.9116135  72.7938156  34.3932724  69.7566605
  72.1877899  33.1267052  70.3219299  75.3100967  39.9500427  55.2398987
  75.4425201  39.2722702  54.5770874  75.1900787  39.4659119  56.0568695
  18.9550934  26.6013889  74.6328049  19.2290649  26.4504128  75.5374527
  19.4193726  25.9341202  74.1274109  28.1870346  20.4400654  82.4525452
  28.1626892  21.3583870  82.7214737  27.2805634  20.2329273  82.2253189
  17.0615044   4.3107400  60.3121758  17.5055752   3.4970415  60.0735817
  16.9891891   4.2733674  61.2659111  68.4527359   7.2121987  53.5003319
  68.8916702   7.7843614  54.1297722  68.7009506   6.3271861  53.7674866
  74.8410339  70.7173309  65.4322586  75.5225601  71.0111847  64.8277664
  75.2647934  70.7198944  66.2905350  56.1952438  55.5169411  82.8228607
  56.6112099  55.0222931  82.1167984  55.7990685  56.2708702  82.3859787
  75.4397278   4.9692369  21.5259666  75.3974991   4.3506804  20.7966976
  75.3602905   4.4231720  22.3081017  41.5898132  48.0641136  48.6165733
  42.3653374  48.5516434  48.8942642  40.9089470  48.3232918  49.2374382
  33.4307251  47.6744919  38.8843117  32.4878960  47.5151901  38.8403854
  33.5241241  48.6101837  38.7054710  40.9247017  61.9635086  32.7643929
  41.5280495  61.3305016  33.1536293  40.0602417  61.6908607  33.0719757
  17.6758213  61.0568695  47.2948380  18.0284882  61.2846451  48.1550560
  18.2333546  60.3413429  46.9892082  82.6941757  61.0015640  36.8757515
  82.2980728  61.7218170  37.3662262  83.6295013  61.2047806  36.8652687
  33.2355003  47.8369789  12.0865040  32.5092278  47.2188454  12.0048180
  33.6334763  47.8552895  11.2161522   1.3303174  35.4527092  54.2032204
   0.4431490  35.5693054  54.5431747   1.8760494  35.3614807  54.9843025
  78.0035324  44.9161568  61.4978485  77.7815704  43.9883194  61.4198151
  78.7163467  44.9390259  62.1362877  36.5315094  69.2842255  72.6156082
  36.3857918  68.3443451  72.7234116  36.9739952  69.5519333  73.4210739
  32.8567619  67.8446274  87.8290405  33.5037346  67.2963867  87.3850861
  32.3875084  68.2835617  87.1195602  40.4055138  16.5223789  81.1033173
  41.0231857  16.3154259  81.8046570  40.7420273  17.3318424  80.7189178
  28.7058220   2.0484221  78.0060120  28.3428135   2.0487375  77.1203156
  28.8702698   1.1250249  78.1971283  41.6886787  52.8329353  62.1600380
  42.4239502  52.4952736  62.6714973  42.0717773  53.5199318  61.6145973
  42.8992004  25.4247379  63.6021080  42.2407265  26.1145496  63.5196266
  42.7882538  24.8922958  62.8144341  62.1045723  31.5307465   8.4412260
  62.9063950  31.0908947   8.7237911  61.4311180  30.8518906   8.4841661
   9.1229210  65.6427460  49.4856796   8.4883738  65.4183121  48.8050804
   9.2675896  66.5827637  49.3776779  66.6288071  54.0324059  35.5702858
  67.0451202  54.0404778  34.7084007  66.8343811  54.8894958  35.9436073
  67.1807327  61.7318459  65.2045288  67.7521744  61.0684814  65.5913467
  67.2957153  61.6258430  64.2601929  67.1267319  43.8065910  46.4681358
  66.8078842  44.7080879  46.4249077  67.3611069  43.6792564  47.3874207
  43.3501472  47.7391129  31.9400444  43.3003235  47.0891724  31.2390938
  42.8950462  47.3318405  32.6770973  17.0856647  41.2359047  63.9892349
  17.8448372  40.7028732  63.7530899  17.3847771  41.7641487  64.7293167
   2.7031083   2.1231046  42.6398354   3.1766047   1.3265980  42.8798561
   2.3783243   1.9515035  41.7559242  23.2608681  53.5965729  37.8041000
  24.0290184  53.8521957  37.2933807  23.4074287  52.6736794  38.0115089
   3.5786762  64.9664764   6.4905934   4.4220414  65.3779984   6.3018756
   2.9309475  65.6362381   6.2712865  39.5356369  71.0700531  81.8170319
  39.4447479  71.5495834  80.9936066  40.1607437  70.3723984  81.6201630
  30.2505035  13.0652761  71.7428436  30.4585724  12.1310186  71.7528915
  29.6664906  13.1886501  72.4911346  18.2379322  66.1249390  16.2549191
  17.7368908  66.5114822  15.5367432  17.6224957  65.5299835  16.6832905
  12.8822098  42.9219894  77.9669952  13.8092098  42.8208809  78.1830521
  12.5017738  43.3456345  78.7364273  11.0345154   4.2114630  73.1922989
  11.5402651   4.7063665  72.5476913  10.1364965   4.5245280  73.0837402
  12.3729715  40.2067566   0.5676797  12.0920019  40.0726929   1.4728400
  11.5922546  40.5333824   0.1204335  76.3898010  68.0437622   2.4687026
  76.2604980  67.1961899   2.8942931  77.1317978  67.9054718   1.8800238
  74.7819443  15.0454721  66.5146179  74.5275345  15.3357582  65.6386948
  75.3338242  15.7519131  66.8501816  21.9505482  63.3722878  67.2403793
  21.6506214  63.4262085  66.3329849  21.1654053  63.1463966  67.7391357
  35.4850311  42.1615868  45.8241730  35.8893547  42.8536644  46.3474197
  35.8055153  42.3150635  44.9353752   0.9715662  47.6884422   5.8339310
   1.2375904  46.9038544   5.3544712   0.2016312  48.0073471   5.3630471
  13.9886332  49.4002533  44.9627571  14.1851139  48.6961708  44.3447838
  13.0363255  49.4905014  44.9281464   8.3179102   8.4453325  22.4472294
   7.7485328   7.8657303  22.9532948   8.8374605   8.9058485  23.1061859
  85.3079071  64.7130203   1.8286767  84.3865814  64.9716034   1.8056939
  85.3517075  64.0431213   2.5109839  71.3498917  39.3161583  26.9307995
  70.4820938  39.6901283  27.0834980  71.1915436  38.3777962  26.8276577
  68.9450150  39.4894829  87.8308487  68.1007614  39.9405136  87.8366013
  69.3374481  39.7264748  86.9905701  37.6021080  37.2193985  72.1899567
  36.8089066  36.6953049  72.3012619  38.2240677  36.6260796  71.7687988
  19.9521351   6.8380785  11.0807247  20.3431492   6.0026731  11.3365345
  19.7067490   6.7167902  10.1634970  80.3921509  56.3409920  54.6528091
  80.0904541  57.1479683  55.0699501  80.5192413  55.7294655  55.3781471
  11.7128353  42.4969711  63.3633804  11.1297722  42.2172432  62.6576767
  11.9992352  41.6815529  63.7748375  51.1010437  58.3863754  38.5511589
  51.9121513  58.0340424  38.9174957  50.4455338  57.7115631  38.7276840
  68.8564758  49.9302750  70.2055893  68.0507660  49.7507553  70.6901779
  68.7553101  50.8310394  69.8979797  51.5855331  56.7223282  72.9437866
  52.0782204  55.9306374  72.7276535  50.9744301  56.4452438  73.6264343
  84.3834915  16.7171249  83.0127869  84.4246445  16.4867630  82.0846329
  83.5175705  16.4221859  83.2946091  49.3608170  29.3647442  84.7529984
  49.0639725  28.4595642  84.8466034  49.6213531  29.4376259  83.8348236
  43.9253616  61.9688148  59.5000725  43.6472473  62.5129204  60.2368469
  44.0409546  61.0964737  59.8767586   4.2116637  42.5848427  15.1313162
   3.2612798  42.6210899  15.2394304   4.3816319  41.7028198  14.8005953
   5.8346586  69.0150299  15.9785490   5.9709287  69.7007141  16.6323814
   5.5915537  69.4879303  15.1826277  82.0756912  12.3049612  87.1407089
  82.9933777  12.5594273  87.2372589  81.6655807  12.5707254  87.9637604
  14.5840750  35.3844566  78.2749863  14.4655933  36.0853996  77.6339951
  13.9465961  34.7171898  78.0208130  44.3595695   0.4291057  61.7429619
  44.9600105   1.1317152  61.4938736  44.0676308   0.0572301  60.9106712
  48.5179176  45.3829384  42.4791946  49.2909088  45.5215569  41.9319267
  48.1842079  46.2637024  42.6498489  70.0710068  23.0164814   8.9868078
  70.5004883  23.3191013   8.1866837  70.6333694  22.3119602   9.3087349
   6.0663843  22.1691151  43.7978783   6.1060376  22.9351788  44.3704185
   6.9692059  22.0405006  43.5070114   4.8320503  64.8104401  44.3202438
   3.8869462  64.6638031  44.2814331   5.2112470  63.9315758  44.3139992
  58.5186386  28.0918827  31.8935833  58.5269661  27.4844093  32.6332703
  58.2595634  27.5543709  31.1451225  71.3016129  31.0368500  11.0692549
  71.5663605  30.2753487  11.5852556  71.0576019  31.6944447  11.7206087
  19.2290478  17.6515236   0.8298816  19.5213699  18.4289989   1.3056015
  19.3757305  16.9283962   1.4396399  66.1856537  64.9906082  32.2215881
  66.3995819  65.9088440  32.0563126  66.2401505  64.5734787  31.3617821
  73.2327957  56.8175011  39.1639366  73.3393784  56.4814644  40.0538521
  72.3786087  56.4882622  38.8843002  28.2003250  68.2337036  41.9082870
  27.6618099  68.6442795  41.2317772  27.5702114  67.9072876  42.5506592
  85.5780869  24.4633045  51.5297356  84.8716583  24.3535995  52.1662521
  85.5379868  25.3876495  51.2843552  29.7818031  17.1916981  82.3269196
  30.2649536  18.0146675  82.2526474  29.7878170  16.9941120  83.2634811
  81.6594925  25.5286541  67.4306030  82.2311249  24.8899345  67.8566360
  81.9986572  26.3785210  67.7115326  19.7064266  39.4944267   0.0381619
  20.6177330  39.2029839   0.0666883  19.1991463  38.7180634   0.2751348
  14.1768970  35.7136536   7.2009196  13.4167747  35.2523613   7.5553951
  14.9066343  35.1079712   7.3307748  36.0330963  34.2339287   5.9619651
  36.8001022  34.7902603   6.0977259  35.4277496  34.4862785   6.6591787
   0.6313162   9.5414667  32.4512901   1.0713428  10.3734102  32.6258698
  -0.2755983   9.6893139  32.7193947  63.0696564  44.3410072  65.2481155
  62.6544876  44.2746735  64.3881912  62.8662834  45.2281609  65.5444794
   4.1456647  31.0995598  71.2307739   4.7966347  30.4030228  71.3162613
   4.0287714  31.4288216  72.1219330  48.4548683  69.7717361  85.7085648
  49.2541084  69.2464828  85.6692200  48.0187302  69.6072006  84.8725357
  82.6306076  17.9675350  11.1823339  82.9267044  17.5931606  10.3526344
  81.6850281  18.0702686  11.0748444  15.2842255  34.0117111  62.9618835
  16.0131187  33.7150612  63.5068092  15.5901585  34.8342705  62.5797386
  10.5893373  30.5963764  57.3839226  11.3572006  31.1045151  57.1223640
   9.8479624  31.1767998  57.2115746  55.9508934  16.9726486   2.5770731
  56.5845566  16.5770588   1.9785639  56.3725891  17.7792130   2.8734829
  12.1964378  66.6903381  19.9202232  12.4360437  67.3855209  20.5330391
  12.2565298  67.1004257  19.0574093  49.9468384  64.8970261  52.4078331
  49.1650810  65.4248962  52.2452393  49.6439705  64.1894684  52.9769287
  74.8171997   2.5994017   5.6474190  75.1685867   3.2644463   6.2394300
  75.5893402   2.2212336   5.2266841  33.1489143  61.5387268   3.2936738
  32.3264694  61.5170784   3.7829046  33.4653168  60.6356316   3.3169992
  25.4127769  69.9819183  20.2113247  25.8967419  70.7827454  20.0096188
  25.5796528  69.8290482  21.1413860   3.1836824  18.4463291  34.5089531
   3.0223873  19.3630905  34.2858696   3.4125798  18.0338516  33.6760635
  85.2498627  50.3956947  48.6474342  85.0455933  50.1976509  49.5613747
  85.2549286  51.3519363  48.6049271  37.5583076  44.6235161  34.6303902
  36.7099800  44.9931717  34.3855858  37.8029175  45.0928650  35.4279556
   2.5599511  16.6835270  37.9474869   2.5294728  15.7268677  37.9372635
   1.7507792  16.9535942  37.5132790  63.4110603  41.0559120  54.3365135
  62.9015961  40.2619324  54.4986076  64.2253265  40.7419128  53.9433174
  39.5424080  58.0976982  50.9344521  39.6359978  57.1926270  50.6372643
  38.6187744  58.1772385  51.1727867  57.4918900  32.9390030   6.8788004
  58.2948761  32.6087418   7.2817602  56.8059158  32.3509865   7.1948843
  62.6844368  16.3990517  66.2956009  63.0645103  16.5681629  65.4335251
  63.1962547  16.9433308  66.8939590  71.0825500   0.9740106  52.0011101
  71.6476669   0.3488450  52.4550323  71.6515808   1.7213409  51.8168907
  55.3957291  24.3307152  17.8550720  55.3436699  23.5920200  18.4615803
  55.9071617  23.9990711  17.1170464   8.5244627  38.5459137  53.9259491
   8.5865793  39.4656487  54.1837578   9.4310036  38.2771912  53.7769432
  15.8238277  18.5341682   6.5691099  16.1209145  17.7143021   6.9638138
  15.9563694  18.4094162   5.6293750  68.6453400  46.7298851  11.7784967
  69.1711273  45.9394073  11.6563263  67.7882843  46.5058861  11.4158621
  63.0392075  53.9685440  80.4295120  63.0319862  53.2687531  79.7764664
  63.6502953  53.6638565  81.1003113  75.2681274  50.3735352   0.5110676
  75.2865982  50.5589027   1.4499660  76.1609650  50.5499077   0.2144992
  66.1360168  53.6594505  11.0464458  66.9683685  53.2706451  10.7776546
  66.2055664  54.5779495  10.7861614  83.4391022  70.2510300  47.2571449
  83.7911530  69.6162338  47.8811150  82.5934525  69.8864822  46.9959717
  47.2265129  26.1069622  12.0965681  46.8662033  25.2536430  11.8552046
  46.4639091  26.6832142  12.1475534  54.2403908  69.4247437  83.3799744
  53.5038757  69.9512177  83.0691605  55.0156631  69.8795013  83.0507736
  64.5688171  36.8105202   0.3423792  65.4003906  37.0985985  -0.0340995
  64.2426071  36.1531677  -0.2721978  23.0752106  65.2510986  62.1574707
  23.6218319  65.2465210  61.3717117  22.9515209  66.1788940  62.3577957
  27.3173790  68.4684067  56.1724281  27.6445599  69.0221329  56.8813515
  27.0382633  69.0854034  55.4959335  53.2204552  51.2058144  22.9497490
  52.3431435  51.5135078  23.1775227  53.3685417  51.5383072  22.0644512
   4.6245813  46.7284279  63.9276237   4.2118745  45.9071922  63.6602821
   5.5542264  46.6022301  63.7377129  80.0849380   3.9539893  16.9671726
  80.3002243   4.8766074  16.8305779  80.1306839   3.8352826  17.9158802
  82.8064651  19.7506561  75.1423492  82.3965683  18.8882751  75.2095337
  82.0717392  20.3604984  75.0752563  74.5357056  39.3547554  16.7962112
  74.4813232  40.1091118  17.3829155  75.3773727  38.9493446  17.0047283
  77.7441940   8.5946760  23.3587914  78.0640411   8.7460842  22.4694061
  77.5926361   7.6505079  23.4013271  50.2021332  67.6289368  85.9742966
  49.3116722  67.2792511  86.0064087  50.5965118  67.3563690  86.8027878
  62.3661499  67.1487122  43.9177971  62.7770500  67.1352539  43.0533829
  62.3058662  68.0778351  44.1398964  66.4878159   4.4888935  16.3477097
  66.5377045   3.6973603  16.8836365  65.5960236   4.8110366  16.4787273
  24.9834270   1.6921946  11.9856119  24.9430599   1.0368543  11.2890978
  25.9086361   1.7268376  12.2285490  50.2711029  64.7100220   5.7179813
  49.5825958  65.2360458   6.1247940  50.3903313  63.9699249   6.3131852
  19.2104034  11.6151733  88.9032745  18.4828148  11.0251255  88.7065735
  19.3180580  12.1362247  88.1075668  50.2478790  39.0107346   8.0853138
  50.0097046  38.6007996   7.2537737  50.4895210  39.9065857   7.8501706
  54.9411469  61.5872688  63.1104240  54.2142067  62.2093620  63.1385841
  55.1068268  61.3708076  64.0279922  49.8629990  32.3947830  21.2546406
  50.5997963  31.8554993  20.9673500  50.2424965  33.2616501  21.3986988
   6.0599170  37.7843094  78.7381439   6.2963758  38.4762115  79.3558731
   5.4133348  37.2560387  79.2062149  52.6585770  50.3222275  32.5915909
  52.9059677  51.2357025  32.4481010  53.2687149  49.8210182  32.0505257
  43.0768547   5.1583691  15.8145962  43.7526398   5.6095667  16.3205299
  42.2712097   5.6363740  16.0112724  21.2631416   8.9283714  19.6470413
  21.7264080   9.7519369  19.7998676  21.5397835   8.3608713  20.3665161
  39.1782188  50.9740791  38.2241020  39.8373642  50.5132370  37.7050819
  39.5876732  51.8112755  38.4424629  63.8669243  64.4419632  36.7867851
  64.4249191  64.5032120  36.0114632  62.9770355  64.3903961  36.4379654
   3.2465856  15.6662216   0.7999434   3.4410231  16.5600491   1.0818985
   3.3817503  15.1331816   1.5834167  13.3325377  68.5139923  64.4879608
  12.7705288  68.6651688  63.7280121  14.1389923  68.9891586  64.2877655
  54.8270836  63.8032455  84.0852737  54.8872108  63.6225014  85.0233307
  55.1902237  63.0225105  83.6671677  84.7378998  10.4327230  42.0343475
  83.9653320  10.3206739  41.4804420  85.1529999  11.2310228  41.7077904
  81.0500183  48.1122169  43.3224297  80.8955536  47.2375870  43.6793556
  82.0027771  48.2042313  43.3179054  31.3620872  67.9875412  53.9347229
  32.2346230  67.6410599  54.1214371  31.4651279  68.9376602  53.9884605
  60.0386314  45.8366890  43.8499756  59.9650612  45.3996887  43.0015373
  59.4076157  45.3828888  44.4086494  22.8278103  56.8462791  57.2012482
  21.9825630  56.3972206  57.2130203  22.7928543  57.4022102  56.4228210
   5.0220861  60.1368523  13.1000862   5.1759624  60.5810814  13.9338818
   4.2344136  59.6138039  13.2491598  85.5241165  42.5849762  59.6638336
  85.7094269  41.6839371  59.9284439  85.4173355  42.5384407  58.7137451
  44.2107048  38.2386551  30.3623238  43.7762032  37.9930305  29.5455570
  45.1284561  38.3591957  30.1185436  80.3208542  29.9115639  14.6713238
  80.2622833  30.7353153  15.1553001  79.5767365  29.9338493  14.0696383
  21.9977112  42.3140831  41.9035263  22.1524773  42.7334404  42.7499428
  22.1462212  41.3827057  42.0669670  37.0519180  54.2806740  84.6083984
  36.2623711  53.7652779  84.4434357  36.7309456  55.0897102  85.0067291
  43.3060913  46.4643402  46.4115105  43.9611130  45.7666626  46.4321442
  43.3487930  46.8587952  47.2826118  60.5962906  25.0121384  14.9657183
  60.9348259  25.1057281  14.0752878  60.3175850  25.8946838  15.2099876
  63.2402802  69.4505692  76.9354630  62.3040962  69.6136246  76.8205261
  63.2818031  68.7055817  77.5350418  53.3001328  55.3656807  50.6784744
  53.2053261  55.4051323  49.7267990  54.1284142  55.8116531  50.8553505
  54.4629669   2.8646467  77.8354187  55.0230942   2.1130128  77.6416855
  54.9764366   3.3953137  78.4444962  21.6151562  36.2834892  82.5528259
  21.9178734  35.9643860  81.7026672  20.9266891  35.6693268  82.8078766
  45.6766777  59.8602333  46.5620804  44.7552986  60.0380363  46.7509766
  45.8373032  58.9973831  46.9440765  67.9141617  44.7866478  62.9355545
  68.4671097  44.7321167  62.1561279  67.2873917  44.0701904  62.8351707
   0.7294413  30.6963520  31.3640919   0.1629372  29.9248142  31.3582382
   0.1548807  31.4173260  31.1065884   2.2081943  66.6298904  46.2681351
   3.0692811  66.4206238  46.6300316   2.2811599  67.5424881  45.9887314
  32.1748962  33.7685318   2.0145342  32.2838211  34.7122612   2.1317430
  32.9285965  33.3831215   2.4613278  12.4407072  60.5902252  21.2324734
  11.8003912  61.2336807  20.9288425  11.9123058  59.8792191  21.5950928
  56.8358727  36.4205856  71.4362106  57.5449638  35.7893066  71.3141022
  57.2151451  37.2600784  71.1761475   3.7642772  39.9453125  42.5191193
   4.6552868  39.7496986  42.2291718   3.4740441  40.6513367  41.9416046
  18.5854168  22.5722313   1.9497303  17.8803253  23.2182884   1.9907984
  18.1607876  21.7739010   1.6357390   6.6370788  23.3843994  83.9540558
   7.5003414  23.2226238  83.5734863   6.1750865  22.5510578  83.8627625
  33.0068893  15.9722576   2.1592691  32.5014801  16.5883656   1.6289804
  33.8331108  15.8711338   1.6866567  37.1738930  61.6058731  48.9023552
  37.0224533  60.6607323  48.9002686  37.4123077  61.8082428  49.8070297
  59.2245750   4.5991821  73.8678055  60.1222420   4.5137715  74.1889420
  58.6888657   4.6329684  74.6603394  63.9349632   7.9595747  83.3718796
  64.1607513   7.3453202  84.0704117  64.7428131   8.0563393  82.8676453
  78.8216934  32.5149689  24.4274197  79.5864410  32.6428070  23.8661327
  78.0733566  32.6142006  23.8388729  70.5786514  48.0448990  68.9967880
  70.0549164  48.7249832  69.4203644  71.1835022  48.5255623  68.4316788
  74.6568451  20.9180717  24.0308094  74.1248398  20.7517395  23.2526474
  74.7774429  20.0552845  24.4274006  19.0491543  58.3655281  37.4660721
  19.2207146  58.1948814  38.3921814  19.3237286  57.5643501  37.0200272
  53.8159447  40.0327034  24.3347206  53.0662041  40.4945602  24.7099686
  54.0280190  40.5249367  23.5416489  55.9867935  57.1552505  27.0666008
  55.1875381  56.6910744  26.8176842  55.9138603  58.0063477  26.6346951
   8.7224245  37.2944221  48.0578117   9.2021065  37.1984558  48.8805656
   8.3355274  36.4324837  47.9041901  54.4156303  13.7457371  79.0998383
  55.1216125  14.3531580  78.8787918  54.8269234  13.0989094  79.6731491
  38.5341988  37.6135178  51.5256805  39.1576385  37.0850639  52.0239716
  38.9211884  38.4888573  51.5097237  10.0248270  24.4677620  18.0500488
   9.5793781  25.1325989  17.5248852  10.7629843  24.1893196  17.5079918
  83.5051804   6.3205004  13.9621668  83.1504440   7.0776706  14.4280930
  83.3436279   5.5812798  14.5484152   7.5423088  16.0879860  77.5874557
   8.1163254  16.5942783  77.0126495   7.0816097  16.7470322  78.1067352
  80.8223572  42.0910530  38.9627228  80.3558578  41.3433075  39.3361969
  81.2620010  41.7372131  38.1895866   0.3980086  43.8906364  76.9321136
  -0.4453607  44.1596260  76.5679626   0.9653816  44.6518135  76.8099213
  54.3310890  35.4278793  39.9123039  53.3935089  35.3098640  39.7598152
  54.3809204  35.9025307  40.7420349   5.6058006  14.8897371  13.1278086
   5.4405060  15.6675777  12.5950117   5.5235953  15.1961279  14.0309143
  42.1168289  19.6189575  66.4902191  42.9704437  19.6346874  66.9230347
  41.6979942  18.8220978  66.8155289  16.1066170  57.3975677  53.2007332
  15.1664085  57.3497162  53.0276642  16.2211418  58.2206955  53.6756744
  38.9341240  21.3782635  68.7675552  39.7636375  21.7905216  68.5263367
  38.4556770  21.3018303  67.9420319  57.2357330  44.3796959  28.2632484
  57.8171654  43.6198845  28.2340412  56.3842201  44.0202522  28.5121632
  19.1217766  40.0998230   7.6877708  18.4423656  40.6934586   8.0075006
  18.6715145  39.5380554   7.0569663  23.0265846  46.5183220   4.9160433
  22.5903378  46.5159073   4.0640373  22.4249115  46.9901886   5.4918590
  77.3179016  33.5794373  54.2483330  76.6645737  33.8134575  54.9075928
  78.0960541  34.0797348  54.4941330  40.2978897  66.4373627  65.2073364
  40.5020828  67.3479385  64.9943008  41.0121078  66.1596146  65.7809067
  64.8284683  60.4975815  12.2203541  65.7329407  60.1991577  12.1249495
  64.8041458  60.9171753  13.0803432  43.6369171  22.6782036  57.0036011
  43.8972549  22.4228535  56.1185875  43.1657715  21.9174862  57.3435440
   9.4945107  16.0377197  11.3015127  10.2003193  15.9044600  11.9342108
   9.8962317  16.5483131  10.5985584  36.5779343  39.6759796  37.8052139
  37.1323586  39.0912018  37.2886124  36.1399422  40.2263184  37.1559715
  77.0797729   6.8534236  10.2642927  76.2734451   6.6019430   9.8139324
  77.1439819   6.2433305  10.9990692  84.2286911  61.2015762  61.5496216
  83.8348465  62.0656471  61.4292107  84.3814850  61.1372681  62.4923592
  72.7460785  44.2201347  54.6596413  73.4248505  44.8905602  54.7373009
  72.8281708  43.7022858  55.4604721  63.7214584  61.2342262  27.9286442
  64.3487167  61.3325119  27.2123222  63.1463127  61.9952583  27.8494816
  15.9218245  10.6514359  76.9467621  16.3338184  10.7277079  76.0861359
  15.0937080  11.1233177  76.8585434  51.9713669  40.1572723   4.1200547
  52.5596275  40.8288231   3.7748044  51.1526604  40.2869568   3.6413815
  76.6611938  36.8069382  63.4809914  77.2080765  36.6644402  64.2535477
  77.0583191  36.2609901  62.8024178  29.9610138  67.2400665  51.2383537
  30.3113899  68.1108627  51.0507622  29.4439354  67.3565521  52.0354080
  10.6571293  20.2978458  76.9624100  10.3889618  19.9602909  77.8170242
  11.4554415  20.7948837  77.1409683  14.4494400  18.9001236  14.6377935
  14.7731056  19.7448025  14.3247604  14.1085300  18.4689255  13.8541603
  24.5735302  34.6170845   7.5704584  25.1069603  34.8647308   6.8152409
  23.7275181  34.3716125   7.1959720  52.3975983  64.5504303  32.3964996
  52.8362350  63.7005348  32.4352760  51.8303986  64.5626221  33.1674538
   3.8299251  24.4950600  17.7519093   3.0157950  24.2806892  17.2964211
   4.5112729  24.0527763  17.2455692  35.1389084   7.3596158   6.2712436
  34.6222839   8.1550493   6.1423368  34.5131836   6.6454077   6.1503863
  45.1456146  27.5921364  88.5730743  45.3700790  27.9597931  89.4278717
  44.2591209  27.9096107  88.4011078  79.1322250  42.7054710  22.8620701
  79.9617233  43.0987282  23.1331959  78.5852585  42.7350349  23.6470432
   5.9673510   8.9574223  67.4993286   5.3649688   8.8399801  66.7647705
   6.4708266   8.1438580  67.5286255  71.0957718   4.5584984  28.6530228
  71.1652679   4.5968223  27.6991177  70.8070908   5.4349213  28.9075413
   4.2846403  58.3614769  60.4608650   4.7830997  58.1525230  61.2508698
   3.8525703  59.1914024  60.6627922   6.4223075   3.1125245  31.2345829
   7.3291311   2.9791522  31.5104713   6.0195169   2.2474198  31.3093185
  85.0215759  36.1435165  47.5453987  84.4352112  36.8655739  47.3194695
  84.7874146  35.9175186  48.4455795  22.0019245  31.5861855  13.4501162
  22.4508877  30.7983398  13.1435823  21.1107121  31.2945518  13.6422691
  44.2423172   2.3118382  80.3068390  44.2331314   2.6405306  81.2057877
  45.1708374   2.2608604  80.0799332   3.8746808  52.8643990  55.2176857
   3.0138714  53.0026970  55.6127968   3.7514098  52.1191940  54.6297150
  38.6673965   3.0264444   5.3867431  38.9663277   3.5556924   4.6473055
  38.7936821   3.5892279   6.1506529  15.7843866  36.9285469  80.4278946
  15.1366663  37.6008911  80.2166061  15.6641064  36.2598114  79.7536850
   1.2032436  57.1407623  17.7907543   0.6304213  56.3745575  17.7585812
   1.9546233  56.8563881  18.3111305  22.6771145  53.0081635  74.1298904
  22.0918560  52.6689415  73.4526672  22.2333050  53.7890282  74.4608307
  86.5925064  22.3703136  88.6978989  87.0668793  22.9895515  88.1431580
  86.4811859  21.5938740  88.1492844  38.9447556  46.6044693  43.0515060
  38.1756172  46.6253433  43.6209106  39.2230110  45.6886330  43.0583076
  17.6393795  56.9697380  78.5673904  18.3811798  56.5408974  78.1407089
  17.9801064  57.2478218  79.4175720  81.8888245   7.6490149  23.6022148
  81.4050140   6.8432889  23.4206543  82.6961212   7.5630612  23.0951500
  79.7799759  50.7772026  75.5895844  79.3137665  50.3814354  74.8532104
  80.6920547  50.8172455  75.3019485  14.6913929  50.4722786  34.7020607
  14.9310904  50.7951241  35.5707054  14.7576456  49.5200691  34.7737503
  82.0302658  11.8562298  20.3966694  82.4843140  11.3094931  21.0378799
  82.6179581  11.8778734  19.6414318  74.5100937  59.0930138  30.1597366
  74.0948715  58.9220047  31.0050640  74.2405319  58.3590202  29.6076317
  23.8789768  24.6147709  67.0365906  24.5535069  24.8885078  66.4150543
  23.6997490  25.3984890  67.5561066  81.3609467   8.6151257  58.3856506
  81.0371094   8.0102730  59.0531158  81.3740082   9.4675236  58.8209419
  19.2892628  41.1328888  74.3180161  19.8740807  40.3763046  74.2755661
  18.4284859  40.7834969  74.0873184  85.0930405  56.5224113  36.6849213
  84.3114777  56.6367378  36.1442566  85.0409851  57.2251053  37.3327980
  58.1110535   0.6747743  20.4607868  58.4139977  -0.0366017  21.0250568
  57.2175903   0.4275023  20.2224350  61.3352737  28.2132092  77.6248322
  61.5532417  27.9323311  76.7361069  62.0180206  27.8259258  78.1726456
  82.2710342  11.2900581  61.0806313  81.6162033  10.9272766  61.6771355
  81.8863220  12.1108322  60.7731323  28.8358803  71.0113983  50.1342506
  28.0714207  70.4460373  50.2446823  29.5826988  70.4135742  50.1674194
  84.0993347  66.3945923  59.5360641  84.3748016  66.1161575  58.6626663
  83.1620102  66.5674210  59.4478340  54.4735565  28.2481232  20.1685486
  53.5329857  28.1829510  20.3337917  54.7012939  29.1404991  20.4293823
  64.3126526  12.6921129  -0.0576354  64.2110291  12.6662512   0.8938034
  64.9969025  12.0489340  -0.2429951  40.6082001   9.4416866  13.0649738
  41.5334244   9.5355682  13.2916422  40.3945961   8.5385752  13.2994843
  45.1562157  12.7783775  16.7570477  45.1514320  13.6320734  16.3241367
  44.3025551  12.7228022  17.1864681  46.6182785  14.8332615  28.9515839
  46.5792847  15.0567122  29.8815193  46.7189674  13.8814688  28.9379749
  18.0437107  44.2728539  89.2997284  18.4930458  43.5860939  89.7923660
  18.1170692  43.9988785  88.3855133   1.6743977  16.8920116  21.3597260
   1.5225451  16.0016117  21.6765232   1.3289746  17.4549160  22.0525856
  46.2880135   7.7991734   1.8532381  45.9186287   8.1408596   2.6675098
  45.7749023   7.0123882   1.6690707  66.1475525  28.8266392  58.7057343
  65.9411774  28.4763393  57.8391685  65.2998428  28.8932285  59.1452637
  14.5959196  43.2103539  26.5460777  13.6609144  43.2314911  26.3422394
  14.9771643  42.6567268  25.8646221  53.5617142  71.2520142  25.0883446
  54.3605347  71.2836533  24.5619259  52.8903313  71.6419449  24.5284939
  48.2190132  44.3423004  66.1983414  48.8994026  44.5292740  65.5515442
  48.6990242  44.0506859  66.9734421  38.1367340  38.1685219  21.2433891
  37.7242508  38.0859756  20.3835773  39.0708961  38.2553291  21.0535450
  77.2923508   8.1652536  44.6225090  77.5281448   7.4817901  45.2498131
  77.9347992   8.8590240  44.7714348  18.0409088  31.7801552   8.3987961
  18.8239422  32.3099442   8.2490826  18.1362629  31.0378418   7.8020473
   7.4826369  37.6053505   0.8125827   7.5461979  38.4657059   1.2272925
   6.5536857  37.3811111   0.8673408  41.8727264  35.4863853  77.0784454
  41.4351425  36.1952019  77.5499725  42.3122025  34.9798813  77.7614899
  84.9288025  26.0247841  24.8704243  83.9878082  25.9442043  25.0261917
  85.2389221  26.6001701  25.5697041  30.7108383  59.3775215  28.4694118
  31.2147045  60.0719299  28.0449696  30.9985466  58.5738678  28.0362911
  62.6329231   7.2194176  22.5354843  62.6254234   6.8619361  23.4233932
  62.5638924   6.4519053  21.9676895  69.1111526  61.7652054   7.5367851
  69.9835968  61.9568901   7.8807778  69.0501251  62.2850990   6.7353988
   9.8441267  31.7853527  40.1171684   9.5544491  32.6569214  39.8475647
   9.8739967  31.8278942  41.0729561  23.8032017  54.1814613  15.5221128
  24.3755302  54.8489265  15.1437464  22.9172745  54.5047379  15.3582363
  37.7335968  42.9479942   2.7769175  37.5068626  42.1735420   2.2620914
  37.6312218  43.6790619   2.1675787  37.1130676  68.9438400  59.0983276
  37.5822906  69.6926651  58.7304611  37.0202675  68.3356094  58.3650665
  41.8841019  56.9259644  14.6536732  41.6995468  56.4995880  13.8167896
  41.6730461  57.8476257  14.5045910   7.4353676  68.6125488  78.2940750
   7.3185797  68.5382309  79.2412186   8.1984339  68.0670471  78.1033096
  77.6787415   2.9392152  47.1593094  78.6014786   2.8427534  46.9237404
  77.6813812   3.0099611  48.1138878  61.1377296  37.9886971  85.7675552
  62.0605507  38.2375565  85.7155609  61.1484642  37.0317612  85.7872238
  73.6712875  14.1917219  79.1932831  73.2805252  15.0065069  79.5089798
  74.4903641  14.1136475  79.6824265  34.0798759  46.2952271  44.6505852
  33.7942734  46.8541908  43.9279366  33.6442719  45.4577332  44.4921951
  12.0860901   6.0989199  13.1046734  12.3580713   5.9790039  12.1947956
  12.7218056   6.7170758  13.4652014  44.5862007  70.7961121  28.6842327
  43.9130898  71.4283600  28.9360752  45.0683823  70.6246338  29.4931393
  62.5048485  30.6439133  77.0777817  61.8802223  30.0139351  77.4372253
  63.1810875  30.1039276  76.6686935  67.1544113   9.9924688  66.1207428
  67.7141571   9.4575548  66.6835709  66.6596451  10.5424509  66.7281647
  34.2610054  32.1589394  67.5621414  34.5140457  32.4729195  66.6940231
  34.8001709  32.6679459  68.1674881  71.5516357  52.6713448  59.1149483
  70.7180023  53.1403313  59.0784683  71.5464249  52.2396889  59.9692764
   0.8190980  51.0272980  34.3248291   0.8824111  51.8232803  33.7969704
   0.9223410  50.3136253  33.6953545   7.4723043  49.6790466  57.4641495
   7.8937654  49.1216812  56.8099747   6.9800181  50.3200455  56.9513092
  35.8386383  63.8970146   6.6653705  35.2151909  63.5533104   6.0255179
  35.3137398  64.4636612   7.2307281  54.9421043  21.8137074  78.5623932
  54.3088341  21.1165333  78.7331161  55.4337082  21.5092163  77.7996063
  73.9853134  46.6520004  55.3647652  74.2968597  46.5550499  56.2646408
  74.6736679  47.1514359  54.9254913  10.1968260  38.3216820  71.1259232
  10.6669550  38.7616882  71.8341599   9.3824339  38.0213432  71.5293961
  81.4879990  -0.2146799  12.6789942  80.7743301   0.4037690  12.5227051
  82.2648087   0.3358897  12.7773819  57.8269386  48.0913925   7.3191142
  57.4766579  47.2152023   7.1584024  57.5171547  48.6127319   6.5785284
   2.6723187  20.2066116  46.7477226   2.0819836  19.4534683  46.7703629
   2.3389435  20.7508850  46.0343781  50.9462280  11.2462492  74.7343597
  50.6473656  11.4805088  75.6130142  51.0034904  10.2908564  74.7476349
  44.2439842  28.2919769  65.1481628  43.5587425  27.7004280  65.4592056
  44.8657074  27.7216244  64.6960754  84.7026520  26.4447918  42.8455963
  83.9714584  25.8528881  43.0223389  84.9762039  26.2280483  41.9542923
  34.4499741  25.2880230  84.9931870  34.9910431  24.5525932  85.2806320
  33.5767212  25.0893688  85.3311081  53.4401741  57.4771957  29.1163998
  53.3401222  56.5382233  28.9597034  53.2279854  57.8841476  28.2764015
   0.2161049  12.6837511   6.9113083   0.2730059  13.2475157   7.6827769
   0.8855085  12.0145512   7.0537906  77.7361374  68.8007355  75.0282593
  78.2729187  68.3989792  75.7114029  78.2922745  69.4868164  74.6591568
  64.1630402  14.0614052  86.7590027  64.9886322  14.3743429  87.1287155
  63.9473114  13.2859335  87.2770157  54.9444656  23.3301144  71.0322723
  54.7833176  23.0590286  71.9360275  54.0959854  23.6466694  70.7222595
   0.6945891  47.7082863  68.2229233   0.6225342  48.4354973  67.6047058
   1.6338618  47.6266403  68.3882523  51.8668823   7.8269277  51.6714745
  51.8806152   7.0314946  52.2037621  51.7880669   8.5387621  52.3065414
  84.2567368  35.3190880   6.1339192  83.4886627  35.8247032   5.8681254
  83.9385223  34.7511559   6.8356500  86.1374435  20.4873486  86.5748825
  86.7257004  19.7797432  86.8384628  85.5712128  20.0934067  85.9112396
  67.2799606   9.6358395  40.4074516  67.3012619   9.7619858  39.4588394
  67.6094437  10.4598751  40.7661095  14.0549831  65.4810715  15.3587980
  14.8180046  65.1938400  15.8603210  14.2633448  66.3783417  15.0985565
  42.7986259  66.7520142  39.2599792  43.3505859  66.0987930  38.8300095
  43.2893372  67.5699997  39.1804047   0.4731630  44.7556610  19.1732483
  -0.4328544  44.9666519  18.9477539   0.8047826  45.5468559  19.5978317
  77.9985199  46.6022911   7.0247426  78.1427383  46.8083153   6.1011691
  78.1321335  47.4339752   7.4793634  59.3625793  32.5468674  43.9053383
  58.5854912  32.7458344  43.3830528  59.9724770  32.1478310  43.2848396
  75.7428131  14.2131395  81.5542603  75.2244034  13.4849005  81.8965302
  75.8665314  14.7930489  82.3056793  37.2335472  30.7430534  84.5156784
  37.4922142  31.6602974  84.6050491  37.4367752  30.3529625  85.3658295
  12.2934074  54.2886887  54.8445168  12.1586285  55.0390053  54.2656441
  11.9052277  54.5561333  55.6775970  31.2168407  65.0442047   0.9614714
  31.0777111  65.7327805   0.3112810  30.4850960  64.4409180   0.8317594
  19.7325935  67.8868790  37.1201401  19.1963730  68.6797104  37.1309509
  20.2701893  67.9720459  36.3327599   6.2007170  70.1490860   8.1337986
   6.9913125  70.6310425   8.3765030   6.5252810  69.3515854   7.7156081
  54.4594078  50.9028893  14.4224234  55.0874748  50.9701004  13.7032242
  54.0580673  51.7704849  14.4717932   4.8307157  10.1806650  69.6747818
   4.2612519   9.5491819  70.1142960   5.3927784   9.6463404  69.1137009
  85.3698807   2.3375092  45.2491722  85.1339035   1.6188155  44.6626396
  86.0346909   2.8305809  44.7684021  77.4765167  46.0332184  16.4794197
  77.7057190  45.3906059  15.8080425  77.4215698  45.5249290  17.2886505
   5.5448136  39.5914726  27.1870861   5.7281127  39.7257576  26.2572479
   5.9391632  40.3482552  27.6206779  18.9950237  53.2515411  74.2860336
  18.0988789  53.1454964  73.9667969  19.5011349  52.6007767  73.7996292
  52.3872299  41.6063194  56.3429222  52.6060829  41.0803261  57.1121216
  51.4332924  41.6813431  56.3675919  84.1695251  70.6406708  79.3092194
  84.2719269  71.0185394  78.4357452  84.6719666  69.8265228  79.2783813
  86.1042480   1.6486804  76.2731934  86.9636002   2.0263553  76.4605713
  85.5190964   2.0562983  76.9116898  58.1897736  24.6788921  87.9471436
  57.9441490  23.7812290  88.1709747  57.3949203  25.0583363  87.5723648
  69.9595413   7.5542722  46.9597588  69.7678833   7.6193914  46.0242081
  70.1168289   6.6217427  47.1076851  87.0006332  50.3925972  86.6178436
  86.5543823  50.3143730  87.4610367  86.8130112  49.5676231  86.1701279
  79.8110123  65.8348465  73.9057388  80.4777527  65.1566315  74.0139236
  80.2887650  66.6583557  74.0048294  80.8661957  14.7997150  50.6441078
  80.4890518  14.9350891  51.5133972  81.6969376  15.2746773  50.6668320
  53.9951324  70.5222321  34.9792519  53.5429955  71.0768585  35.6150131
  54.5240860  71.1310501  34.4637070  28.9065914  59.9063110  33.7609673
  28.9193974  60.7543068  33.3171501  29.8299236  59.6903915  33.8916206
  48.9658508  49.2307854   8.2120953  48.4226112  49.6505051   8.8791456
  48.6755905  48.3186760   8.2059326   3.1047480  58.4652519  36.9032898
   3.5757451  58.8020554  37.6654930   3.5543809  57.6487961  36.6854324
  18.2740765   0.0809917  80.2916718  18.4211960   0.9401998  80.6870804
  18.4362793  -0.5402964  81.0015411  65.0163879  39.2050095  30.7200241
  65.2498703  40.0724564  30.3894863  64.5026627  39.3794823  31.5086155
  56.4088554  16.4277973  43.7567253  56.0280914  17.2580223  43.4704094
  56.8881950  16.6470375  44.5557251  25.2368793  46.9988518  74.3530045
  26.1434956  47.1376381  74.6268997  25.0049553  47.7974396  73.8789825
  50.3025131  31.7556782  59.6942902  51.1193085  31.4741535  59.2821922
  50.5334625  31.8959160  60.6125641  48.1774673   8.3278198  -0.0734495
  48.4699440   9.2390890  -0.0900563  47.4769363   8.3129606   0.5786772
  85.3513794   5.3267522  32.0910492  84.8384247   4.5647426  31.8218746
  85.6104126   5.1348753  32.9923325  18.7147045   7.4310913  62.8685570
  19.2674141   7.3989811  63.6493988  17.8212223   7.4746490  63.2091827
  84.8139572  51.4546623   3.2271619  84.3348083  51.6378059   4.0353155
  85.1869736  52.2988510   2.9733272  32.7854347   6.5147815  80.9733810
  32.8514709   6.9375925  81.8295975  33.6932297   6.3623738  80.7108688
  77.6774368  39.8308678  24.3207550  76.7724762  39.6360283  24.0772324
  77.6455383  40.7225533  24.6673241  74.2091293  11.1783247  21.5551968
  74.4149857  11.9607649  22.0667095  74.8847580  11.1504631  20.8777161
  77.3989563  26.0950718  24.6857758  78.1710815  26.6026783  24.9355392
  77.4663544  26.0087929  23.7348576   1.1352386  63.0339928  43.6234207
   1.7398306  62.3281822  43.3942223   0.2856000  62.7367363  43.2978706
  75.5693436   6.9367356  41.6821327  76.3323898   7.5058179  41.5814514
  74.8568497   7.5309100  41.9178009  63.3219109  65.6769791  56.6805191
  62.4915543  65.6573944  57.1562881  63.1033363  65.3601303  55.8041267
  41.3365593  58.7350311  55.4001389  40.4735489  58.6430473  55.8038406
  41.8487778  58.0121574  55.7625160  25.8381786   4.5213866  58.5506935
  25.6986561   3.6802580  58.1156425  25.5245991   4.3836565  59.4445229
  10.7347660  45.7591934  80.6186142  10.2478800  44.9504662  80.4600830
  11.0665770  45.6678276  81.5117950  65.6167145  65.8029938  19.2770271
  66.3894196  65.3111420  19.5549545  65.4805222  65.5407028  18.3665962
   6.8368669  27.5248337  30.5783958   7.3577132  28.3193302  30.6955566
   7.4489059  26.8899269  30.2061977  79.4835739  28.5923252  24.4313030
  80.4324951  28.7103958  24.4742031  79.3167267  28.3193054  23.5291634
  47.1865730  23.2464428  18.0971966  47.6742058  22.5225391  18.4901466
  47.8533440  23.7728882  17.6561699   9.7350683  10.1357098  24.1779518
  10.5260324  10.2826290  23.6592770   9.9151392  10.5626745  25.0155106
  73.3063049  50.4758644  74.4424667  72.9605560  50.3406639  75.3247375
  73.2652512  51.4231987  74.3116913   0.5344387  14.4599905  37.5157280
  -0.2749344  13.9882984  37.3191223   1.0708828  14.3529501  36.7302322
  25.7438755  19.4411640  51.0076141  25.6671047  18.8657379  51.7686806
  25.0817261  20.1173820  51.1508598  25.4351959  49.7844200  80.6314316
  25.9527817  49.8746414  81.4315567  24.7646465  50.4638367  80.7020569
   5.1280413   1.4525051  36.1697311   4.5210996   2.0684829  36.5801277
   5.7869539   1.2812657  36.8425941  55.0562401  47.7220421  59.0692177
  55.9613457  47.9964333  58.9218178  54.5915680  47.9941826  58.2778587
  74.4411926  11.6799402  35.7818527  74.7173462  11.4239607  34.9018288
  75.1820908  11.4487925  36.3421021  66.0213928  27.7474136  77.5575027
  65.8503799  28.3999348  76.8783798  66.4363251  27.0208778  77.0925140
   5.7397003  52.1318092   1.8378248   5.1721454  52.8332176   1.5182366
   5.1942134  51.6450958   2.4557157  57.7802658  44.4543991  44.7005043
  58.1384125  44.7231941  45.5465012  56.9543114  44.9325905  44.6272392
  86.3244858  43.7239304  35.3806381  87.1639481  43.8083191  35.8327637
  86.5566635  43.4478073  34.4940262  66.2213516  44.3533669  58.1719818
  66.3564377  43.4087791  58.2477264  66.5788498  44.5783234  57.3130150
  40.1532822  64.2258682  72.4697571  39.8331642  63.3629761  72.2067642
  40.9708481  64.3362122  71.9843292  71.9761200  37.8900948  21.0692654
  72.8417740  37.8184662  20.6670952  71.8019791  37.0166817  21.4200611
  86.1558762  15.5009937   5.4694762  86.3059540  15.7406073   6.3839674
  86.0466156  16.3376541   5.0174885  38.9253044   9.0536833   6.4902930
  38.3356934   8.8063812   5.7779493  39.7165947   8.5375500   6.3363614
   4.2960219  32.2037621  82.0457764   3.4736450  32.6637230  81.8773651
   4.2983479  31.4800892  81.4192581   4.5802689  46.5614815  75.1230316
   5.2248673  45.8546982  75.0886307   4.0643444  46.3771133  75.9079285
  23.2863255  63.4352837   0.9028053  24.0409164  62.8488426   0.9567608
  23.1286125  63.5369301  -0.0358252  18.9021149   2.2200725  81.8538437
  18.2736378   2.8734629  82.1609802  19.6032524   2.2373974  82.5052567
  17.2087688  31.0552025  22.1654015  17.5305748  31.7912483  22.6858921
  17.3270359  31.3341045  21.2574043   8.1832047  32.4900665   5.3625698
   8.9491854  33.0514145   5.2425990   8.5159597  31.6011448   5.2387877
  46.7289810  19.0395260  20.9578819  46.6701927  18.1489487  21.3037796
  45.9042931  19.1695480  20.4896812  74.5827560  67.8277893  14.1619043
  75.3481064  67.6076584  13.6308565  74.8935471  67.7701797  15.0654106
  60.0724373  63.1953735  42.1257133  59.7767715  64.0532227  42.4305229
  59.7632523  62.5840302  42.7942162  35.6144142  61.0150719  35.2117271
  35.2576599  60.8607407  34.3370018  34.8527718  60.9808769  35.7904854
  53.2337074  44.0212517  80.2770157  53.3970833  43.1437149  80.6226578
  52.3146553  44.1923943  80.4826355  41.9492760  41.5178299  78.1106796
  42.2107162  40.8240509  77.5052490  41.0096855  41.6240234  77.9619217
  36.0469666  28.1700954  88.6051788  35.8091774  27.9464169  87.7053680
  36.2710457  27.3317451  89.0091476  13.3644562  50.1141243  77.9069824
  12.9429502  49.8264427  77.0971603  14.0165071  49.4379349  78.0909042
  50.7144966   2.5183568  48.3911629  50.0595016   2.3797467  49.0752678
  50.5833511   3.4251797  48.1142044  84.1993637   9.3555613  73.1593475
  84.1460724   8.8873281  73.9925079  84.7898865  10.0884190  73.3338165
  44.3178978   2.8629465  54.7332802  44.3132286   2.4420099  53.8736153
  43.7378616   3.6178191  54.6334953  14.0247450  52.8977280   4.5148587
  13.0957518  53.1119461   4.6003776  14.3513021  52.8845139   5.4145350
  30.4073792  50.8179016  60.0082932  29.6720943  51.4175568  60.1348000
  31.1314163  51.3810921  59.7347603  79.8373642  70.6596069  78.6050720
  79.3171844  71.2532806  78.0635986  79.5483932  70.8367004  79.5002594
   2.7403154  35.9939766  10.7254429   3.1113131  36.8000565  11.0843678
   3.4409857  35.6271744  10.1862297  15.0284224  67.2685394  26.6958370
  15.5999813  67.9505692  27.0485210  14.9182386  67.5014420  25.7739639
  72.7475891  30.5200119  53.5563965  72.1435242  31.0393734  53.0257339
  73.3377609  31.1643505  53.9472313  68.4699478  45.8275642  80.3643188
  69.0788193  45.6810341  79.6404114  68.3621292  44.9649467  80.7649384
  38.1192207  34.7948914  21.2042332  37.2249565  34.5160637  21.0073013
  38.2503700  35.5760612  20.6668282  16.9632988  -0.1070005  66.0187073
  16.2004375   0.4085451  66.2804031  17.6143742   0.0666138  66.6985474
   0.3317513  14.8624630  47.1980743   1.0496458  15.0539808  47.8015480
   0.2187560  13.9135866  47.2537270  58.8380280  32.1567268  67.1237564
  58.1207504  32.1529999  66.4899368  59.6214981  32.3175621  66.5978851
  52.4095993  56.2934341  12.5023146  52.3851471  55.3446846  12.3777809
  52.7241135  56.6367493  11.6659842  85.0653458  55.6088638  39.7827759
  85.4042130  55.5787354  38.8880692  84.5374985  54.8146896  39.8658409
  68.0738831   3.4663589  50.5275307  67.2628403   3.0983548  50.8782616
  68.7416611   3.2318125  51.1719666  86.7827530  14.7410212  14.9889183
  85.9018631  14.3873043  14.8658752  86.8517761  14.8892040  15.9320564
   9.8760338  35.3938103  85.8710556   9.0703964  35.9103127  85.8509521
   9.5772219  34.4857483  85.9197006  68.5992203  12.3073740  16.7997570
  68.1819687  12.1891937  15.9464302  67.8701096  12.4257965  17.4085350
   8.2610064   2.8659718  62.8776054   9.0448065   3.1534653  62.4093781
   8.4183464   3.1204145  63.7868538  79.6582413  26.2702961  38.1817017
  79.3605347  25.3933792  37.9395905  80.0074005  26.6374207  37.3695831
  51.8488846  41.1610603  50.2832565  51.4588470  42.0161591  50.4646645
  52.1864548  40.8674088  51.1294518  15.1756840  38.3857384  60.3971634
  14.9272070  39.1810532  60.8682938  15.5936069  38.7024231  59.5963631
   7.9337492  43.8350868  52.6795120   7.9647865  43.9022636  51.7251778
   8.6874390  43.2901726  52.9058990  58.1035347  66.7653961  -0.0575415
  57.2331467  66.4174881  -0.2515007  58.0922623  66.9265747   0.8859229
  53.0402908   9.2675076  47.5464401  53.3456841  10.0870504  47.1574516
  52.0882835   9.3600130  47.5832939  34.9211006  50.4028778   1.8982346
  34.6117020  50.5985489   1.0138035  35.6914482  50.9596939   2.0111539
  30.8277073  46.7671471  61.0725861  30.8909645  45.9156075  60.6400261
  30.1023502  47.2074928  60.6296539  41.5480423  44.7958679  31.5109653
  42.2893219  45.1923141  31.0531769  40.8088608  44.9099312  30.9136124
  45.5352898  25.9948692  63.8047104  45.6560249  25.8650494  62.8640709
  44.6320114  25.7245712  63.9698029  41.9509506  52.7626381  14.5705500
  42.3824234  52.3426666  13.8264503  42.6649475  52.9805908  15.1696615
  21.7181740  25.5983562  55.5154495  21.7023754  26.5199738  55.7735214
  21.2509098  25.5754299  54.6803627  70.0993423  55.3098488   3.6369393
  69.2661819  55.5482788   3.2304606  70.0206757  55.6145401   4.5409336
  54.2751656  67.4609756  61.5200691  53.4634285  67.4778900  61.0130882
  54.9255600  67.0980606  60.9188080  26.8810883  39.5375900  78.8628235
  26.8310242  39.2885551  79.7856979  26.5849495  40.4476318  78.8439102
  20.9523869   3.4611847  59.0851326  21.0696182   4.2372212  58.5371780
  21.7897816   3.3585401  59.5373116  51.7075958  52.2214584  41.4277458
  50.8916283  52.7218628  41.4228249  51.4324226  51.3160248  41.5716362
  62.2925644  14.7866449  88.7196960  62.3408432  15.6095076  88.2330780
  63.1144829  14.3399057  88.5169449  36.0323334  34.9023819   1.5552511
  36.6729393  35.5977020   1.7048740  35.8217239  34.5782661   2.4309356
  60.9504318  19.7066193  79.3751755  61.6248474  19.1576118  78.9751892
  60.3507690  19.9104519  78.6574783   5.7607641  11.2227468   5.2838650
   5.0869069  10.7714424   4.7754636   5.8329453  10.7135363   6.0911603
  53.5981255   2.5740132  50.4925537  53.2413483   3.2795687  49.9529877
  53.4598045   2.8677471  51.3930092  78.3792572  14.1456919  41.9999428
  77.7188187  14.7929420  42.2471581  78.7150497  14.4553995  41.1587753
  17.6853523  36.4111443  65.7527237  17.1193600  36.9755020  65.2260437
  17.7403488  36.8515358  66.6008148   8.3770018   2.9632854  11.6254864
   9.1284437   2.3773561  11.7163315   7.6290731   2.3773415  11.5092735
  54.9353943  28.5518532  58.2320480  55.6998749  29.1278381  58.2258415
  54.8139687  28.3249226  59.1539993  17.2702885   4.6475101   3.5671768
  16.3275719   4.8026953   3.5085466  17.3711090   4.0679135   4.3222494
   9.0339346   2.6246865  49.1881332   9.3882208   3.2533467  49.8170204
   8.0844402   2.7192659  49.2639389   2.3502529  20.6563129  24.8621578
   2.8396854  21.4604359  25.0355721   2.4353623  20.5229931  23.9181156
  81.6302643  49.9693832   3.1093733  82.4035492  50.0509605   2.5511608
  81.8613586  49.2879486   3.7406235  20.4631023  36.0328560  65.9913940
  19.5364990  36.0044212  66.2297745  20.8372288  35.2472153  66.3901749
  14.9697857  41.1174583   6.4402127  15.6508036  41.1840057   7.1095543
  14.2431984  41.6362686   6.7853780   0.2537715  38.5284653  17.6827450
   0.9914801  37.9978828  17.3819103   0.2320565  38.3932266  18.6300945
  42.0805397  55.8285904  11.9317732  43.0270042  55.7442322  12.0471945
  41.9821281  56.3873672  11.1608543  48.9194794  46.4941292  23.2142906
  49.7050514  46.2299080  22.7354393  49.0747795  46.1980515  24.1112041
  22.9248104  50.4729576   8.5688391  22.7881985  50.1607285   9.4633131
  23.6717129  51.0680046   8.6343117  22.3669205  44.1842918  76.8221512
  22.0404015  43.7610207  76.0281372  23.1481228  43.6833420  77.0566788
  27.5873756  68.9726868  39.1358070  28.4075661  68.7243118  38.7093964
  27.4735909  69.8973312  38.9160118  11.1869574  62.2233620  85.8570862
  11.3572006  61.2995911  85.6729889  11.1975832  62.2831230  86.8123627
  78.9844437  18.3483887  72.2940292  79.0186691  18.0277138  73.1952667
  78.6611481  17.6036873  71.7869415  53.7275772  31.6987190  28.7026081
  54.0334587  32.5583305  28.9919758  54.2177467  31.5283527  27.8982811
  55.9717560  60.5341644  60.8081932  56.0853310  60.9302635  61.6721573
  55.2760963  59.8881454  60.9304581  82.8691254  44.5565376  28.0021000
  82.5776215  43.6684418  28.2083626  82.2866287  44.8424492  27.2984104
  69.3959351  49.1778488  47.1621170  69.4554901  49.4564781  46.2483063
  69.6036224  48.2436752  47.1416969  40.7329369  40.8699226  55.7753868
  41.5742111  41.1686172  55.4300270  40.3260269  41.6598778  56.1312332
  50.5002556  63.0184326   7.6405206  51.2566757  62.4488449   7.5004125
  49.7868996  62.4194069   7.8607979  64.6361771  71.3021545   6.8555636
  64.4802856  71.4849091   7.7821321  63.8160744  70.9176788   6.5459824
  50.1579628  22.5545635  47.7686539  49.9984589  23.3967152  47.3425446
  50.9318047  22.2052479  47.3266335  63.0197029  39.0352631  14.5019379
  62.9562798  39.9149666  14.1300058  62.3662529  38.5251923  14.0233355
  49.5088081  18.1797581  65.1913452  49.2950821  19.0092888  65.6184616
  49.2854118  18.3196259  64.2711487  25.2456284  48.9382477  61.6387405
  24.5739174  49.3806381  61.1197701  25.1804352  48.0187035  61.3810234
  79.5979919  60.0349693  16.3248997  80.4753952  60.4151077  16.3683319
  79.6849136  59.1825066  16.7515011  30.5333920  62.0036469  78.2781601
  29.5999489  62.1851158  78.3876419  30.5833130  61.4791985  77.4789810
  71.6771011  10.4519911  28.4790802  71.4993973   9.9377832  29.2666340
  70.9082947  10.3155460  27.9254093  78.5255508  17.5186882  35.6789665
  77.7807465  18.1198483  35.6690636  78.1562805  16.6754856  35.4165230
  74.8209152  61.7113762  10.6843786  75.6054153  61.1644211  10.7248564
  74.1467667  61.1367569  10.3216600  23.2894344  17.5990410  28.4949226
  22.7404175  17.4993687  27.7171841  24.1393738  17.2434788  28.2352829
  78.4969406  28.5819397  53.8426514  78.2443924  29.3907909  54.2878571
  77.6938400  28.0617313  53.8172379  71.2894897  68.6946716  73.4272385
  71.8258133  67.9797668  73.7700500  71.0604553  69.2133408  74.1984406
  82.7984772  62.8380394  86.4998474  82.7293243  63.4389915  85.7580261
  82.1320343  62.1719246  86.3314056  85.7194366  66.1398773   6.3729610
  85.3862228  66.8890533   6.8668566  85.3121185  66.2212296   5.5105753
  48.8231506  23.1470623  63.2081223  49.6720352  23.5476570  63.0206337
  48.3486176  23.1918259  62.3780365   1.1314025  69.7620316  17.6387100
   1.0363981  68.8718948  17.9776192   0.3312953  70.2097015  17.9137554
   5.1475153  61.9486389  58.6761131   4.6484551  61.5674286  59.3985062
   4.9939828  62.8905754  58.7497520   9.5312681  47.4354668  78.3745499
   9.1847219  48.0340881  79.0362091  10.3511772  47.1132965  78.7489700
  77.3454971  23.7299461  12.1177139  76.9198990  24.5318546  11.8143387
  77.0979385  23.6615067  13.0398092  51.4989967  13.5691710  10.2229185
  52.4292908  13.7908936  10.2631950  51.0543098  14.3349810  10.5862627
  51.0665894  60.7103539  37.4362183  51.4068069  59.9236565  37.8623505
  51.3158913  60.6118469  36.5173187  66.4055634   8.9973640  77.2429886
  65.6841202   9.1877680  77.8425674  66.5602341   8.0582638  77.3449554
   1.9622240  46.7306862  79.8947601   1.8714459  47.2313957  80.7054901
   1.7572680  45.8298950  80.1453552   6.8070378  15.4931889  31.2038708
   7.6940265  15.1650362  31.0562286   6.9074855  16.4441490  31.2465229
  64.7347260  12.9104624  63.8935661  64.4714737  12.8657951  64.8127670
  65.4309845  12.2587023  63.8118820   8.8262482  57.8094444  76.2008286
   9.3824453  58.5195618  76.5211639   9.1868687  57.0210876  76.6066360
  57.6427498  24.4811573  83.8885574  57.2594299  23.6579056  84.1911316
  58.4434280  24.2196941  83.4338226  85.6960907  11.7020626  73.3989868
  85.2301178  12.1710253  72.7067566  86.1453094  12.3881845  73.8926163
  42.2689819  27.1439056  73.7970200  43.2060585  27.3354244  73.7590103
  41.9306602  27.4341011  72.9499283  78.6422806  66.6178970  57.4287338
  77.8151779  66.5765915  57.9087715  78.3921509  66.8799057  56.5427208
   1.4385599  13.9967461  43.3904533   1.9198837  13.7051077  42.6161766
   1.1609498  13.1870794  43.8189430  24.9600334  23.1531601  79.7555771
  24.1333981  22.7782173  79.4517288  24.7214127  24.0158787  80.0947037
  36.6778641   6.5716543  16.5939922  36.2396317   5.9996133  17.2240334
  37.4384651   6.9100728  17.0664196  57.2932205   2.8161659  32.9678955
  57.2855949   2.6776025  32.0208054  58.0421600   3.3926260  33.1195946
  66.5233688   1.8844562  82.4162827  65.9457550   2.3234293  83.0406952
  65.9293594   1.4798347  81.7840881  75.0837402  26.7102642   3.3775115
  74.6422195  27.4920025   3.0455816  74.5727005  26.4544029   4.1453719
  20.8307915  31.5726891  21.3788567  19.9544010  31.9174042  21.5501537
  21.3816395  31.9741096  22.0509148  44.8620110  23.5525455  19.6284599
  45.7077103  23.4706001  19.1876488  45.0034981  23.1647568  20.4920769
  59.2250061  57.7598190  38.7887688  58.4682961  57.2686386  38.4688263
  58.9159660  58.6637878  38.8484840  79.8039627  71.0404510  59.1886864
  79.1366272  70.7269745  58.5782547  80.6139526  70.6257935  58.8917007
  64.3860550  67.7191238  62.2926178  64.8211975  68.5629272  62.1706429
  65.0801315  67.0716400  62.1691170  72.5163345  66.5536728  23.6233616
  72.4607544  66.1699219  24.4985085  72.7473450  67.4696655  23.7777195
  17.4863892  65.1728897  70.9390488  18.0277882  65.1602097  70.1497726
  16.6338539  64.8475647  70.6499481  51.6231155   5.1873589  16.3145447
  52.5799026   5.1954780  16.2876968  51.3567047   5.5462456  15.4681063
   6.4850502  12.4398680  25.8329010   6.6633759  11.8249969  26.5444965
   7.0708055  12.1658697  25.1271763  11.6369791  46.0073242   4.5376892
  12.1755610  46.1257668   5.3200784  11.9707747  45.2049904   4.1363473
   5.0439115  64.2802963  17.5312252   5.9229965  64.5660706  17.2826843
   4.6992073  64.9991455  18.0609970  64.9014435  24.3085842  88.1491547
  65.2095337  24.8243179  88.8943558  63.9485817  24.3020706  88.2399597
  27.5807362   0.8797712  28.2233982  27.8549213   1.6563493  28.7112312
  28.3470554   0.3063257  28.2355995  12.9251652  52.7244339  36.8349075
  13.7914820  53.1028519  36.6848145  13.0927353  51.7937355  36.9830627
  53.3863068  54.6088448  76.0825119  53.6948509  53.7154007  75.9315491
  52.4341583  54.5499001  76.0039597  47.5457840   6.6978741  31.7108574
  46.6319046   6.8178439  31.9690437  47.5016403   6.1788516  30.9078007
  34.4470291  23.5688896  13.0971260  33.5727348  23.9512253  13.1723299
  35.0100632  24.1579800  13.5993204  38.2825890  44.5744171  81.1801300
  39.2227020  44.7509842  81.1449127  38.2162361  43.7103462  81.5866013
  78.5330353  16.5508938  70.2683792  78.9242477  15.9978685  69.5921097
  77.5911636  16.4972763  70.1063766   2.2433124  64.1040115  86.0317535
   1.9780637  63.7941780  85.1658020   2.1506765  65.0555420  85.9844284
   5.7033978  39.2874565  36.4243813   4.8113065  39.4693489  36.1288795
   6.2215056  40.0174675  36.0854416  50.7421951  54.4578629  50.8635483
  50.8299675  53.5984077  51.2756920  51.6411896  54.7750244  50.7772141
  53.2380829   4.5398026  76.1341782  52.9024620   3.9702828  75.4419098
  53.5949211   3.9380107  76.7874374  18.2218266  51.0524445  84.8321304
  19.0601654  51.4149551  85.1184998  17.5681553  51.5234070  85.3489914
  63.5771141  20.6845226  59.4989204  62.7898674  20.2411327  59.8149643
  64.1895447  20.6374855  60.2330475  63.9498444  52.2235603  35.2110710
  64.5097656  52.9323730  34.8943672  63.4923706  52.5978889  35.9639511
  65.6140518  22.8419495  14.3027773  65.1093140  22.2889366  14.8991413
  66.5277557  22.6420631  14.5063057   0.4316307  60.3928185  34.5524521
  -0.2449866  59.8542175  34.1421738   0.0049205  60.7675934  35.3229713
  33.9254799  40.4467010  66.4226532  33.6771469  39.5439415  66.2236786
  34.7516327  40.3682556  66.8996735   5.4925513  20.8338757  56.7661591
   4.8466153  21.3960152  56.3383751   6.3261485  21.0777092  56.3638000
  54.3411331  50.2832146  53.8960075  55.0312004  49.6214218  53.9414291
  53.5462875  49.8188400  54.1583290  71.2780304  48.2699203  50.0323067
  71.7550964  49.0995865  50.0150375  71.9002304  47.6286812  49.6889229
  24.1061325  11.1372137   9.4302359  24.9854794  11.0229053   9.0697966
  23.8552952  12.0244160   9.1729736  44.2506142   0.5975925  38.1096840
  43.8520546  -0.2367851  38.3570633  44.0754547   0.6780466  37.1720924
  79.7000656  14.6727161  34.3177795  79.9806519  14.9201374  35.1988525
  80.5019226  14.3806629  33.8842316  33.4427147   8.2561827  86.7769394
  33.0395470   8.8415670  86.1358337  33.6424217   7.4610238  86.2828979
  66.7246475  59.5542030  57.2393723  66.2130356  59.6500511  56.4360657
  67.2466965  58.7644424  57.0980530  47.4894028  16.8359413  80.2876434
  47.8077316  16.1915627  80.9198380  48.1994781  16.9178982  79.6510010
  28.2738533  17.0954018   1.0236981  28.0749359  16.2238846   0.6814659
  27.7063713  17.1874523   1.7890234  24.0658817  49.0728569  64.0382614
  24.8506222  49.0584602  63.4903526  23.3624783  49.3307076  63.4424706
  17.6753387  13.5891476  15.9436674  16.7539101  13.4052162  16.1263466
  17.6708012  14.4567490  15.5393410  17.2938976  39.4021568  69.7048950
  17.6259308  40.2982826  69.7591705  16.4825172  39.4162102  70.2125397
  25.0143185  10.3412905  22.5816135  25.7591496   9.7849169  22.3537827
  25.1715279  11.1579046  22.1076317  26.5523643  33.5872421  13.2717905
  25.6263676  33.7133942  13.4787903  26.9727516  34.4014015  13.5486536
  36.4077034  44.7650146  28.1983967  36.5496025  44.6816788  29.1413460
  36.9287453  44.0597534  27.8145275  39.7370110  39.0249748   5.0120850
  38.8089752  39.2585754   4.9918432  40.1854973  39.8436241   5.2239833
  49.1584320   9.0711651  32.5401917  48.4966850   8.5698767  32.0637131
  49.5496712   8.4389696  33.1430969  26.1329594  35.6697960  18.2126484
  26.0765209  36.0505638  17.3362560  26.6123257  36.3201599  18.7259388
   7.4106812  15.4558096  21.4178467   7.5885224  16.1919861  22.0032082
   7.7036386  15.7573729  20.5579243  50.3960037   5.4402852  19.3500710
  49.7959099   4.6945944  19.3581409  50.5876312   5.5834937  18.4232483
  81.9493027  25.0517101  30.1872120  81.6220779  25.3614616  29.3426933
  81.9183121  25.8227997  30.7535095  83.7055283  22.8284683  64.8023376
  84.1458511  23.4791870  64.2556076  83.7392578  22.0215893  64.2884903
  83.1106415  14.4790783  63.9789772  83.5110321  15.2237673  64.4277115
  83.2293854  13.7445354  64.5811234  14.7462606  52.0137787  71.1104126
  13.9085407  51.5731773  71.2529984  14.8621235  52.5644073  71.8847580
  48.2658424  69.5343857   9.9257154  48.0311317  70.0690231  10.6842031
  48.5526314  68.7011642  10.2995167  80.3598557  64.3677292   9.8173733
  80.7070999  63.6127853   9.3422747  79.4757385  64.4837494   9.4693756
  18.7350845  57.0481262  25.0461502  18.3720837  56.1639824  24.9936943
  19.3083820  57.0265923  25.8123741  22.4041519  52.6244240  43.5907631
  21.9964409  53.0094223  44.3665085  22.8963985  53.3445129  43.1965599
  25.2802505  44.6179848   4.7527537  24.9822388  43.8085442   5.1677518
  24.5507870  45.2274590   4.8652458  74.6187592  15.5432711  22.1350899
  75.5452805  15.7759800  22.0747795  74.6195068  14.6260710  22.4089050
  16.4348106  42.3417892  37.6680260  15.5573664  42.6109467  37.3962173
  16.9991417  43.0713921  37.4122086   2.8893752  69.2264404  55.9719543
   2.0763733  69.7262573  55.8982010   3.0100117  68.8362274  55.1062660
   1.8792032  14.7498159  72.4341583   1.7112941  15.6895599  72.3640213
   2.4023089  14.6587639  73.2305908  27.7902412  31.3178635   9.5291166
  28.0103512  31.4915466   8.6139021  27.8486156  30.3661385   9.6130438
  53.6580353  62.5441132  49.9708252  53.3842659  62.8607864  50.8316383
  52.8409348  62.3092995  49.5310097  56.6991348  69.2578278  20.5246105
  57.5179291  69.4595108  20.9775219  56.3013306  68.5617599  21.0475559
  66.0157928  56.2736130  10.0249023  65.1857758  56.7473907  10.0781612
  66.5943680  56.7350807  10.6319714  12.2855978  34.2153969  55.0582581
  11.5542536  34.7966881  54.8497620  13.0605383  34.7738800  54.9966354
   2.0958922  28.2064247  18.9514866   2.0961041  29.1297684  19.2038136
   1.1839551  28.0191612  18.7289219  61.0661583  55.1883049  37.3554268
  61.6971512  55.8616638  37.1011238  60.3952446  55.2189522  36.6733971
  15.5416746  50.9396744  59.8289337  15.5950527  50.4075356  59.0350800
  16.4509830  51.1596794  60.0313950  34.8902092  31.9990768  74.7781525
  35.6083488  32.4850006  75.1835938  35.2294197  31.7410946  73.9210587
  71.1112976   3.8568916  41.9264259  71.9623489   4.2865815  41.8409004
  70.9993134   3.3813109  41.1033134  37.3836441  63.9936943  43.1885910
  37.4672852  64.8718796  42.8170776  37.9366226  64.0104218  43.9697227
  65.7330322   2.8748324  39.0363655  64.8966141   3.2932589  38.8325272
  66.3299103   3.1892416  38.3573074  74.6115952  42.5891762  22.2660465
  74.8898163  43.5006866  22.3553238  74.2717209  42.3567619  23.1301651
  59.9847031  40.3655777  34.6963539  60.4154854  41.1214409  34.2971916
  60.6451836  39.6731758  34.6723671  74.9375305  58.3691330  36.0674629
  75.2184982  57.6041145  36.5694962  75.5149384  59.0737343  36.3613358
  64.2195511  14.1080475  30.8528805  63.7203903  14.8868942  31.0987854
  63.5609741  13.4187632  30.7668743  74.2158890   8.1744804  15.1922073
  73.6707306   8.5894995  15.8606329  74.1640549   7.2389178  15.3878279
  55.4553337  21.7622433  68.3036041  56.0890694  21.0788651  68.0854111
  55.6997414  22.0427876  69.1855316   7.6918082  57.7256165  85.5446243
   6.9883595  57.8294373  86.1854172   8.1224499  56.9073868  85.7921677
  82.3125381  69.2961349  58.2769470  82.0055161  68.4029999  58.1211510
  82.5555420  69.6205521  57.4098091  53.7606468  14.5896044   8.1432858
  52.9659004  14.3582325   7.6625824  54.4706726  14.1973143   7.6351476
  60.9893723   8.0458260   5.3409333  61.6159897   8.5938978   5.8133707
  60.7445908   7.3661089   5.9688649  11.7033377  70.6747437  37.2640114
  12.5691757  70.3394852  37.0312958  11.4719477  70.2048569  38.0651970
  43.7275391  56.4664001  25.2832108  44.2319336  56.0039787  24.6138954
  44.2191238  57.2728043  25.4390640   7.1276708  59.2290344  71.1013947
   6.2737174  59.5725403  71.3640747   7.6606417  59.2798195  71.8948669
  44.5151215  29.0030193   5.6488261  45.1584892  28.6845188   6.2819667
  45.0249023  29.5309010   5.0342574  23.0164242   7.4068379  49.3150444
  22.7995644   6.6781340  49.8965912  23.7520752   7.8444381  49.7434807
   8.1167192  53.4552078  62.0861397   9.0595236  53.5851364  61.9838219
   7.7373509  54.3198853  61.9291573  79.4014664  59.7977142   2.7668428
  79.8038940  59.1841202   2.1522007  79.2787552  60.5996857   2.2588904
  47.3111305  51.4346313  10.2322607  46.5225601  51.5393105  10.7646389
  48.0305405  51.4542885  10.8633690  78.2506638  11.9429808  88.4669724
  78.4454956  11.2029667  87.8919525  79.0927963  12.3822355  88.5857162
  80.2632523  35.7180138  50.7150078  80.3438339  36.6498718  50.5115929
  79.4291687  35.6453896  51.1789665  69.8096771  40.5973244  37.3957863
  70.0403214  41.5108757  37.5644798  69.8926315  40.5006065  36.4471054
  37.6891479  24.0227089  59.7632599  36.9659958  24.4442463  60.2275696
  37.4982567  23.0865822  59.8220673  37.3108978  59.9409409   1.2178802
  36.8582954  59.7760620   0.3907197  36.6708565  59.7103462   1.8912307
  32.4999733  53.3970642  46.1303139  32.7695389  52.5418396  46.4652176
  31.8778477  53.7235947  46.7803650  41.7981453   9.8857288  86.3584137
  42.6933937   9.5641966  86.4650803  41.5225067   9.5485086  85.5060349
   0.1372259  27.3563728  63.2262955  -0.6385361  26.9028931  63.5561180
   0.7969301  27.2292728  63.9081078  72.6164551  44.6061211  59.2062492
  71.7521362  44.5313034  59.6107025  72.6044617  43.9653587  58.4952583
  67.3128204  17.9793148  82.2300949  66.7335205  18.0552387  82.9883041
  68.1859665  17.8674393  82.6060333  62.8925133  30.8174305  30.6450977
  62.5789413  29.9134598  30.6178474  63.4719009  30.8929234  29.8869114
  69.3501892   6.4554090  12.4611511  69.0674667   5.5685821  12.2379065
  70.2718353   6.3596711  12.7012205   2.8422768  22.8464165  12.3623466
   3.2390897  23.6329021  12.7367935   1.9277776  22.8828411  12.6426973
  12.6823454  30.5845928  76.9806442  13.0665379  30.9559975  76.1864929
  12.2716055  29.7703724  76.6898346   3.0301387   1.8352715  -0.1107585
   3.8440602   1.8796706  -0.6125478   3.3040516   1.9435182   0.8000028
  38.5170364  10.8888416  71.7916641  39.3931160  11.2741461  71.7757568
  37.9340858  11.6094322  71.5525970  43.6444168  66.4865570  44.7391396
  43.9450531  66.6779785  45.6275139  43.0113983  65.7768936  44.8482018
  40.3904495   0.2247202  12.1362629  40.5628090   0.1292201  13.0729609
  39.4503899   0.3967134  12.0820227  55.7576637  43.9308853  15.4382019
  55.8011589  44.2471428  16.3405991  54.8886414  44.1928635  15.1342201
  33.4483147  36.2636604  56.7737045  32.7366905  35.9432411  57.3279152
  33.3510399  35.7782402  55.9544792  60.9660797  37.8173027  81.8679504
  60.7832146  38.3180809  81.0729523  60.8980446  38.4581757  82.5756760
  59.6940460  24.6340561  33.1163750  59.3051910  23.7666512  33.2287827
  58.9449844  25.2282314  33.0705948  58.8952484  48.6908188  85.3627625
  58.0752525  48.9853706  84.9664307  59.5748901  49.1786003  84.8975906
  20.8746204  47.2730980  26.1937885  21.6706886  46.8536797  26.5202770
  20.6619759  47.9312210  26.8555202  74.6341858  32.5033531   1.9091510
  75.2346573  32.7585945   2.6095183  74.5281067  31.5582047   2.0171995
  82.1217575  46.1733284   6.4999661  82.8700867  46.0963287   7.0918350
  81.4569168  45.5979767   6.8783603  80.1995926  45.4432793  62.9391594
  80.8183517  46.0493927  62.5317383  80.5628738  44.5754776  62.7625771
  12.2424955  67.8527985  57.7208290  12.7230911  67.5257034  56.9603882
  12.9190197  68.2093964  58.2964859  25.0842381  49.9331055  28.5980721
  25.9837322  49.6077423  28.6338406  24.8536224  49.8981247  27.6697273
  25.5555649  43.6674652  65.9746628  26.3423023  43.1791954  66.2172928
  24.8521461  43.2510948  66.4727325  66.7007599  31.5712738  36.6172409
  66.4831619  31.7552471  35.7034378  67.6442261  31.7225590  36.6739235
   1.2386572  53.1852188  67.8452606   1.1378374  52.2807541  67.5485916
   1.7896564  53.5958443  67.1789169  28.9365921  42.1094284  78.8340988
  28.4088593  42.8257294  78.4810486  28.4479828  41.8066254  79.5994797
  29.9988136  27.0918770  35.3489342  29.2192268  27.4595127  35.7652512
  29.7112350  26.2451782  35.0074196  42.5233231  23.5855293  61.8777084
  41.7448311  23.7770996  61.3547554  42.7486763  22.6834850  61.6501923
  55.0875816  56.3732033  20.6780701  55.5807419  56.9578934  21.2535343
  54.6721992  55.7474327  21.2714520  27.6463280  43.2838631  16.9419308
  27.6595726  43.5296211  16.0169125  28.4744568  42.8239441  17.0794411
  84.5413208  47.1115952  86.1006393  83.6010590  47.0732651  85.9254761
  84.8932571  47.6608467  85.4001465  19.7465115  59.9917679  82.1445923
  20.6237221  60.3431015  81.9919510  19.1696358  60.7531891  82.0838547
   5.7632790  57.1073952  36.8043823   5.4563265  56.9226608  37.6920128
   6.4028592  56.4184875  36.6238976  46.9944649  21.9609184   8.0548716
  47.1346931  21.7359276   7.1351175  46.3003044  21.3682995   8.3432693
  62.0556107  32.1856422  66.6602402  62.1693535  32.8743515  66.0052795
  62.7899666  32.3043365  67.2626190  67.4813690  50.6819801  40.9533806
  66.6919327  50.2573357  40.6176758  67.5826492  50.3333931  41.8390808
  62.4840050   4.9628429  77.8936157  62.8126564   5.5652876  77.2263184
  63.1959038   4.8991609  78.5303116  70.0303268  31.9048939  15.7389364
  70.7780533  32.3291779  16.1597996  69.4064102  32.6147461  15.5870676
  61.7686958  34.3318024  22.7420254  62.1378670  34.2696457  21.8610706
  61.7887497  33.4342346  23.0739975  70.9313736  70.9271240  68.2072601
  71.1708374  71.1800003  67.3156662  71.7245331  71.0800781  68.7208099
  58.4852104  52.8544388  30.1840649  59.1656151  53.4476929  30.5023899
  57.6644669  53.3134689  30.3626728  14.7275820   4.4954286  28.5601082
  13.7812366   4.5731797  28.6810093  15.1012430   4.8220820  29.3785877
  68.7663040  60.1028290  84.4776077  67.9432602  60.3476219  84.9005890
  68.9759293  59.2425995  84.8413391   8.8172913  61.7473450  22.2412586
   9.5193892  62.3298988  22.5309505   9.1109819  60.8728447  22.4966488
   1.1786621  31.2504578  20.9026070   1.1947355  31.3320675  21.8561859
   1.9743226  31.6953678  20.6106968  62.3832283  12.1722860  15.9880238
  63.2853737  12.0620432  15.6876755  61.9257851  11.3973379  15.6617794
  18.5566444  29.4601250  71.6457520  19.3833427  28.9777832  71.6334915
  18.6034393  30.0350533  70.8818817  80.1461945  57.0927048   5.8665090
  79.5318527  56.5598106   6.3713222  80.4695892  57.7418633   6.4911985
  11.8909779  23.3667183  65.9152679  11.6492167  22.4774761  65.6563644
  12.6079159  23.6011906  65.3259888  35.9216156  40.4825172  77.3675842
  35.7341919  40.1121597  78.2301025  35.8581314  41.4291458  77.4944611
   9.0155277  51.9785767  15.1999016   8.7990789  51.4320374  14.4444695
   8.5491848  52.7996330  15.0429859  19.1388626  38.4493523  45.0349846
  19.6967258  37.7023964  45.2519646  18.3120251  38.0572128  44.7542725
  75.2108154  38.0593910  42.4553070  74.6149445  37.3705330  42.1609459
  74.8253250  38.3766823  43.2719803  78.4634781   2.7602806  32.5607605
  78.2428207   3.6246226  32.2136917  78.4470444   2.1840172  31.7966366
  55.7926331  56.7533951  87.8237534  56.3576126  56.0623245  87.4781418
  56.3575134  57.2514839  88.4145660  68.3507614  42.3068008   3.5765862
  68.6751022  42.6370697   4.4144154  67.8217850  43.0230865   3.2253699
   3.6295702  23.6586704  83.3627853   4.5633974  23.5676212  83.5522842
   3.4814298  24.6039906  83.3371811  44.3118210  26.7536392  84.0055237
  44.0249062  26.0083256  84.5331802  44.8869209  27.2513275  84.5867233
  23.0067234   7.2997513  45.0220757  23.2332287   7.6500802  44.1605644
  22.1699448   6.8549285  44.8872986  28.3028564   3.2429392   1.3364555
  28.4312096   3.0809629   2.2710791  28.0625458   4.1680236   1.2844833
  78.0789032  16.0501785  14.5050421  77.1426086  16.0890141  14.3099136
  78.3332443  16.9628696  14.6411867  10.7825232  63.3032303  23.0125961
  11.5824261  63.5173721  22.5324612  11.0845861  62.8006592  23.7691746
  53.4124298  28.9369831  83.2928162  53.2390404  28.8872108  84.2328644
  52.6195259  28.5896358  82.8842926  24.1763840  25.4329510  83.0424728
  25.0231991  25.8547630  83.1881027  23.5326519  26.0926342  83.3006592
  43.1017532  69.3227005  37.4016876  42.3979492  68.9051208  36.9051819
  43.9057846  69.0064468  36.9896812   7.0031939  27.7722683  43.9479218
   6.5446963  28.0002728  44.7566376   7.5540609  27.0268402  44.1869049
  80.1759491   5.6145267  23.3855438  79.2991486   5.6014032  23.7693157
  80.0327988   5.4409890  22.4551544   0.8734785  58.7319565  15.2734137
   0.0274961  58.3834343  14.9922085   1.1216556  58.1856346  16.0191822
   7.8006339  50.3004799  32.4995346   8.0983543  50.1234016  31.6072121
   8.5214968  50.0049324  33.0556259  80.5983734  26.1015129  25.3411407
  81.0125961  26.9639168  25.3713398  81.1844177  25.5731659  24.7992573
   3.5987897  49.9504776  44.9956474   3.9584339  50.8339729  45.0751762
   2.7792659  49.9801483  45.4893417  33.4997063  60.0050125  54.7473450
  33.1765442  59.9523926  53.8478851  33.4377174  60.9338531  54.9701653
  39.0909996  63.8057556  85.7471771  39.1209068  64.6157990  86.2562561
  38.3432045  63.9190483  85.1604919  39.3338127  71.5686340  63.2569695
  38.6522484  71.5438766  62.5853386  40.1297684  71.8071747  62.7817993
  21.1601753  43.8194237  16.1420383  21.2349739  43.7840157  15.1884212
  21.7620964  43.1440392  16.4547367  77.8312683  66.3550873  17.4585018
  77.5369492  65.4445496  17.4816704  78.1781845  66.5170593  18.3357983
  19.6251450  68.9073868   1.6209426  19.7478580  69.1777954   0.7109692
  18.7788010  69.2792358   1.8692528  35.0801392  60.7436180  51.5689125
  34.9373093  61.6896744  51.5405083  34.2747192  60.3910522  51.9473686
  30.7883110  28.8925648  85.0664825  31.4870739  29.2847424  85.5900803
  30.5506840  29.5727406  84.4363022  38.3203583   3.1790552  84.2604980
  37.9940224   2.3579297  83.8924103  38.4699287   3.7399802  83.4994354
  33.5757294   0.3672868  18.6975136  34.0181313   1.0944409  19.1354160
  33.9099121  -0.4152853  19.1358452  11.7862930  21.5224743  19.7460480
  12.3206348  21.6749001  20.5254555  12.0314207  20.6439438  19.4556580
  26.1393528  42.1574402  74.6800995  25.9038258  42.4432030  73.7974319
  26.6523552  42.8821945  75.0375824  69.5034332   7.4535842  20.1912384
  68.6303253   7.0866199  20.0525074  70.1010208   6.7360606  19.9808044
  11.2010221  50.7642021  20.5189552  10.4568338  50.3448868  20.0869961
  11.6661720  50.0450745  20.9464130  52.0175781   2.1225061  26.6828918
  52.0340233   1.2307460  26.3354359  52.5243950   2.6345065  26.0526333
   2.6089904  25.2489128  80.9327774   2.6774836  24.2990532  81.0292435
   3.4178743  25.5875740  81.3165054  56.8951035  25.1591187  46.5981522
  56.1322975  25.7359543  46.5579224  57.3406982  25.2925854  45.7615738
   2.3191247  29.2786846  87.0428925   1.5299752  28.7385006  87.0838165
   2.6325903  29.3136292  87.9466324  80.1275253  70.0506973  71.1660309
  81.0736542  69.9507370  71.2713318  79.8850555  69.3783875  70.5292816
  18.1757030  49.2856636  18.9517365  18.8691902  49.1921883  19.6048603
  18.5733585  48.9833412  18.1352158  50.3073463  20.6409626  63.8010674
  49.9288063  20.6746845  64.6795883  50.2379723  21.5385132  63.4757614
  51.7809906  44.5647392  25.0332832  52.6908112  44.3342934  24.8452435
  51.7714958  45.5218887  25.0335598  68.2140656  53.7591743  82.0685120
  67.8640289  53.5325584  82.9301071  68.9058990  53.1158905  81.9142914
  39.7682076  65.6009445  77.7187347  40.4897346  65.1509247  77.2792740
  39.3539543  64.9238281  78.2536545  39.2606773  31.3805561  58.9031525
  39.6404724  31.2417374  58.0355606  39.1640244  32.3302879  58.9731293
  11.2454653  26.7518311  69.6784363  12.0799494  26.5209217  70.0865402
  11.2260017  26.2424564  68.8682556  30.5180035  61.3722992   4.5868583
  30.6350918  61.1387100   5.5077047  29.5867748  61.5795746   4.5088801
   7.1695275  54.0554199  75.3689651   6.4236388  54.4536400  75.8176346
   7.8510423  54.0013847  76.0389252  82.8438797  41.2274818  55.6256104
  83.2840958  40.3880920  55.7592888  82.1223907  41.2224045  56.2546196
  58.2944336  46.2196579  11.0538158  57.5974579  46.4585152  11.6648846
  58.5447922  47.0462227  10.6410952  35.1450539  24.7064457   3.3689764
  34.9393654  23.8404846   3.0167906  34.2972641  25.1460190   3.4342463
  32.2380028  55.9176903  61.9576988  32.5335236  55.6067123  62.8133850
  31.2826214  55.9060555  62.0154953  57.1355171  27.3724823  20.4383087
  57.0817184  26.4454288  20.6704922  56.2330513  27.6225300  20.2401657
  84.9492722  16.5926914  59.5075226  85.8210144  16.5178566  59.1193237
  84.9245300  15.9068222  60.1747589  45.5400658  47.2283211  83.3520355
  45.6628456  46.3836365  82.9188385  45.6494331  47.8737717  82.6537094
  72.1381760  10.0883999   0.7734576  71.9772949   9.6393747   1.6033509
  71.8064194  10.9753885   0.9128051  85.5793762  28.1673985  47.0317688
  85.1546249  28.3721409  46.1987572  86.0055695  28.9844933  47.2905006
  83.2289047  35.0097618  39.1026154  84.1291428  34.9054909  39.4107170
  82.6910019  34.8638649  39.8808212  20.4148808  45.8828011  68.8472061
  19.8703861  45.3405342  69.4179077  19.7913132  46.4336395  68.3739471
  51.7196198   2.3229132  19.9945774  51.6910515   2.6187468  20.9044666
  51.2875519   1.4688621  20.0067253  83.4331970  10.2488194  47.1423378
  83.0973969  11.1432533  47.2011452  84.1365967  10.2991352  46.4950867
  54.5576057  38.3161926  55.9510078  55.1645775  37.7242050  56.3952675
  54.6478539  39.1466866  56.4183044  64.5151520  54.9018364  22.4193363
  64.0844727  55.7511749  22.5161667  64.1677246  54.3737907  23.1381512
   3.6253417  36.7528267  79.3119659   3.3963716  35.9901047  78.7808762
   3.2887428  37.4994545  78.8165054   6.0653539  33.7690964  65.8409653
   5.1899538  34.0002556  66.1515656   6.5272145  33.4726295  66.6251984
  23.7560520  55.7420387  75.0344925  24.0671425  56.4053726  75.6504745
  22.9389954  56.1010056  74.6883850  64.1620941   0.5199884  43.2768936
  63.2183151   0.4774118  43.1229591  64.5503922   0.4505389  42.4047508
  14.9647055   0.8237661  82.6292496  14.2782593   0.9507320  83.2841568
  15.2656450   1.7087232  82.4230499  63.4782677   5.3142595   7.7986145
  63.4144783   4.5105014   8.3144979  62.7461166   5.2632036   7.1841364
  62.4706802   4.5657172  16.6294022  63.2118912   4.9764872  17.0744934
  61.8177986   4.4396157  17.3179340  64.1592636  64.9182663   8.5912495
  64.6757278  64.1282806   8.4318342  64.7791290  65.6378098   8.4718580
  35.3943100  59.0974464  11.9125805  36.1201439  59.6767540  11.6806297
  35.7965050  58.2334175  12.0015993   6.0494590  32.2831116  18.5683289
   5.8431268  32.3276939  17.6346970   6.3183842  33.1728554  18.7969437
  60.0078125   7.6605530   1.0440326  59.4703827   8.4483604   0.9618093
  59.7210846   7.0987930   0.3240006  66.9059601  10.9682150  20.6806145
  66.7747269  10.4536858  21.4770260  67.8220901  10.8186140  20.4470577
  77.8573074  47.4144669  60.1709595  77.9700851  46.5011292  60.4342537
  78.6670151  47.8446846  60.4457550   8.2255554   9.8679914  11.3031969
   7.4427190   9.6586609  11.8126860   8.7626038  10.3949556  11.8949070
  20.1044483  28.6216621  64.9582138  19.4675026  28.6677570  64.2451859
  20.9509563  28.5425301  64.5184479  77.3643723  67.5918427  55.1023102
  76.4843597  67.9008865  55.3174667  77.3431854  67.4483948  54.1561546
  69.5352020  22.2306309  38.6233864  69.5503845  22.4819450  39.5468826
  70.4458313  22.0192642  38.4176826  69.5126190  41.9066277  54.5406227
  70.0933304  42.4127998  53.9724770  68.6309814  42.1761627  54.2831383
  71.6896362  62.1459656   8.7160149  71.5023193  62.5614433   9.5577526
  72.0811081  62.8414154   8.1874933  84.8376770  19.4901848  39.4501915
  85.4780045  20.1642113  39.6780167  84.3168488  19.8818245  38.7490578
  46.8029404  59.6022949  85.9791031  46.7678261  60.5067482  85.6677170
  47.4393349  59.1759186  85.4051285  69.3515091  52.9739952  35.7051582
  69.6627274  53.5486145  35.0057373  69.3701935  53.5208588  36.4905396
   1.1852994  17.7198372  24.0004959   1.5315537  18.1712132  24.7703018
   1.5926299  16.8540401  24.0271263  75.4122391  26.3719215  80.4244080
  74.8671570  27.0757389  80.0726166  75.5501709  25.7824230  79.6829910
  83.2612000  22.5901947  18.3735924  82.4761353  22.5266762  17.8296471
  83.8856277  23.0782871  17.8368549  40.5910912  28.6417408  86.5463867
  39.8104477  28.4686642  87.0725784  40.4767189  29.5401440  86.2365189
  64.7060471  42.4346275  66.7715683  64.3822861  43.0985146  66.1627426
  65.1883926  42.9309311  67.4328156  15.8675451  50.4457092  40.7408257
  16.5340538  49.8131142  40.4728279  15.0361433  50.0248337  40.5220413
  67.5375366  63.9100761  17.9899940  66.9036484  63.4225349  17.4639511
  67.9493332  64.5128860  17.3709030  71.7922440  52.4827271  47.7776642
  72.5012817  52.9187775  47.3050499  71.5579529  51.7378654  47.2240219
  15.9243298  45.2141609  65.5951996  15.9541245  44.3962364  66.0915298
  15.8606730  44.9374313  64.6810837  74.5748062  66.4224472  45.4359398
  75.2741318  66.4348068  44.7824707  74.0808258  65.6255722  45.2430573
  77.0237732   1.1461043   4.3826714  77.0527191   0.2218104   4.1355386
  77.7052078   1.2374135   5.0486650  64.7977295   9.8675108  55.3068733
  65.5328674   9.8715868  55.9198837  65.2005310  10.0014362  54.4489403
  19.0642204  42.6150436  49.1262245  19.3014755  41.8340912  48.6261673
  19.5185566  42.5112762  49.9623108   7.9957943  60.1545143  14.5969620
   8.0553017  60.8936119  15.2022915   7.9715767  59.3828468  15.1628017
  83.9448242  58.5979538   7.3553801  84.3993988  58.1176147   6.6633792
  84.6165543  58.7549248   8.0189829   6.5463495  29.0563927  78.4486847
   6.1878014  28.2046070  78.6979523   6.3135238  29.1533318  77.5253067
  16.1889267  12.7302971  24.7690506  16.6014538  11.9090109  25.0365219
  16.8978062  13.2361097  24.3717155  76.3495178   5.5739698  50.0067978
  76.2156067   6.4819875  49.7351303  75.9508743   5.5226059  50.8755226
  67.6811752  10.3974829  44.3018036  67.4668198  11.3090811  44.4999733
  66.8359070   9.9483442  44.2966728  44.6278114  23.5633850  69.8750153
  44.1243439  22.7634029  69.7240753  44.6134415  23.6797752  70.8250046
  25.9204121  59.6826706  34.6532021  26.7505379  59.9939537  34.2923317
  26.0715904  58.7554092  34.8364143  31.5278282  10.4770355  61.8364067
  31.0412178  11.2704315  61.6128769  32.4305649  10.7740002  61.9508896
  47.1051292  59.5581512  23.2427521  46.5706482  59.7853889  22.4818821
  47.6888161  60.3079948  23.3579941  16.7819824  69.2605515  86.9184036
  16.7581730  68.7532806  86.1070251  16.1191883  69.9401398  86.7955322
  56.5869522  69.7967529  51.9869881  57.1432915  69.1840439  52.4679298
  56.0200005  69.2384720  51.4548950   5.0722303   0.6543114  31.6004314
   5.2811961  -0.1238919  32.1171188   4.2610517   0.4287611  31.1450768
  73.2025146  38.9014244  78.6207657  73.1381073  38.7028389  77.6866074
  73.2587357  38.0449104  79.0443878   0.7291776  40.3762817  10.3105316
   1.6292598  40.0524521  10.3454323   0.7718693  41.2457962  10.7084665
  21.9539165  70.6539688  35.5969582  22.2538548  71.4942322  35.2502251
  21.1552715  70.8656464  36.0802727  69.5532532  33.9645424  79.8317184
  70.1173477  33.3795128  80.3374557  69.0554428  33.3812218  79.2588730
  48.2814140  67.7814102  29.9323063  47.4555740  67.4608994  29.5696793
  48.0853996  68.6717606  30.2240009  31.0717220  38.0743904  77.6596146
  32.0160522  37.9338074  77.7282257  30.9517670  38.4804535  76.8011551
  50.0247841   4.3621955  54.5756645  50.3335533   4.0818667  55.4372406
  49.0816765   4.1996598  54.5946732  37.9151802  48.3200912  71.4170685
  38.7685127  48.7533264  71.4362183  37.2861862  49.0225449  71.5818710
  58.3745193  43.8548279  23.5676003  58.8501701  43.3954697  24.2596817
  58.0857964  44.6707878  23.9763508   3.0835023  43.8069916  30.1793690
   2.6142631  43.0266266  29.8842754   2.8578811  44.4794846  29.5366573
  43.8340492  70.0602493  34.5229721  43.4336891  69.5063095  33.8528252
  44.6235695  69.5866470  34.7848740  80.5063705  21.3780785  20.0865250
  80.5051117  20.5348682  19.6335068  79.8873978  21.9160862  19.5929108
  13.8136911  61.8866425  31.3273811  14.2390356  62.5457382  31.8759327
  13.4566374  62.3824692  30.5905609  78.0640564  70.1888504  61.1894493
  78.0100479  69.2358170  61.1185036  78.7084274  70.4421005  60.5284767
  80.4187546  12.7857580  30.4385033  80.7426529  12.2139254  31.1344414
  79.5053711  12.5251369  30.3200302  18.3769169  50.6335106  61.4505959
  19.3143063  50.4727859  61.3424225  18.3271656  51.3269424  62.1085510
  45.2499046  46.4788208  75.0794296  44.7044754  45.8680687  75.5751343
  46.1474380  46.2434540  75.3145142  64.8810120  38.5401611  67.0700836
  64.2179565  39.1378212  67.4156265  65.4406433  39.0928230  66.5245514
  32.0071526  25.9424934  85.9982147  31.6802235  26.8066292  85.7479858
  31.3057747  25.3400803  85.7504196   9.1205301  43.1513023  32.3477783
   9.3934975  42.9829674  33.2496567   9.7389650  42.6530952  31.8134041
  68.8715134  28.2409439  74.9338531  68.7720718  29.1709461  75.1374207
  69.0704575  27.8314037  75.7758331   4.6271701  16.8420277  11.4368944
   5.2048979  17.5791626  11.6346121   3.7972903  17.0688782  11.8565016
  76.3190231  50.0576859  61.7810669  75.7750473  49.4668083  61.2603149
  77.1213531  50.1584511  61.2688713  37.2228317  42.8374939  43.5389061
  37.3683853  42.4171181  42.6913643  37.2923508  43.7745857  43.3565559
  34.5461769  46.2488098  77.7240677  34.0879517  46.6784515  78.4463348
  33.9526482  45.5517120  77.4447708  36.1725235  46.4111366  61.6674500
  35.5966339  46.5541801  60.9163704  36.8695564  47.0585632  61.5615425
  55.5284576  41.3762894  30.3375072  55.5365868  41.2287560  31.2832336
  54.8858070  42.0740242  30.2094574  77.0763550  54.1377106   8.7369366
  77.4885483  53.5231361   8.1297894  77.0925293  53.6873360   9.5814075
  79.7708359  13.6602373  60.0157280  79.9582062  13.2971363  59.1501160
  80.4191742  14.3551970  60.1294022  57.7546692  21.2092590  23.3649788
  57.5667763  21.2836666  24.3006020  58.7094841  21.2466660  23.3087177
  70.7667923  16.5232506  14.0381508  70.5679626  16.4233952  14.9691324
  70.8415527  15.6265554  13.7116823  67.7811127  35.8692207  50.1597443
  68.1947021  35.7403259  51.0133018  67.0273514  35.2792931  50.1673012
  81.9208145  43.9155426  37.3963127  81.2034988  43.5687027  37.9267807
  81.4976883  44.2292442  36.5970726  15.7586069  52.7860451  12.1561174
  15.5997868  53.3371582  12.9224625  14.9872074  52.2218361  12.1028385
  64.1893845  44.6657410  75.0726700  64.0497742  44.2688789  75.9324570
  65.1411057  44.6990814  74.9759521   7.6857805   3.7649922  69.6244659
   7.8467703   2.8287849  69.5068665   8.4094973   4.1919155  69.1659927
   4.0470772  22.8774242  30.7947922   4.8294983  23.1936836  30.3430977
   3.8950388  23.5193062  31.4884090  23.0184517  44.1438026  37.9434853
  22.3653374  44.7138786  38.3492966  22.6105862  43.2778587  37.9385796
  30.5822105   1.3817674   9.3188505  31.4889431   1.5107136   9.0405664
  30.6458721   0.8146807  10.0873499  19.2739315  33.9129829  28.7178841
  19.7100658  34.4867783  29.3477859  19.3645554  34.3652802  27.8791656
  44.2528229  47.6763382  59.1334229  45.1213303  47.7641945  59.5261116
  43.6927795  48.2459450  59.6608086  24.1184368   8.6560001  65.8750229
  24.5158825   8.0341797  66.4846191  23.5518761   9.1994438  66.4226608
  72.0640335   5.2648287  23.5287628  71.2485123   5.4481330  23.9951878
  72.7353439   5.2645550  24.2110958  25.9993496  67.6503983  86.4096069
  26.8527756  67.7954330  86.0011215  25.9329548  68.3350601  87.0752335
  -0.2680358  69.1476746  47.8570251  -0.1330087  69.6206970  47.0358963
   0.5437542  69.2808151  48.3464165  16.6375732  58.0685959  29.0384369
  16.0025635  57.4374313  29.3769989  16.4419746  58.8799934  29.5070629
  57.7575150  49.8243446  42.1153259  56.9371071  50.0174828  41.6616058
  58.2202148  50.6619034  42.1404991  57.7965164  22.7185211  80.2232208
  57.7821884  22.6849442  79.2667160  57.6068268  23.6328335  80.4336548
  46.6806259  44.7340355  84.7974167  46.9424019  43.8139877  84.7625198
  46.2756767  44.9002838  83.9461746  68.4738312  20.0813408  78.8722534
  67.6865463  19.6391544  79.1898651  68.9273300  19.4184055  78.3515930
  84.0549011  13.0376797  34.7835121  84.5996475  12.6607800  35.4744720
  83.9111328  13.9430609  35.0589180  86.2060699  50.7360115  71.0022202
  86.3666534  50.4847870  71.9117966  85.8367386  49.9506454  70.5984497
  24.4535007  20.2673244  84.6758347  24.4654827  20.1882648  85.6296844
  24.6124668  21.1966419  84.5105057  30.7671337  24.6180763  82.4618759
  30.2983704  25.4390068  82.6120911  31.6489964  24.8890572  82.2066956
  57.7413254  29.5855083  25.9023399  57.5709000  30.0259552  25.0697556
  56.9977074  28.9937801  26.0168819  48.2292023  29.1011925  66.1852570
  48.0181503  29.1591301  65.2534103  47.6809502  28.3874054  66.5110779
  69.4916611  29.6356945  57.8895912  70.4469147  29.5968170  57.9366074
  69.2231140  28.7322578  57.7225075   2.5558245  42.9766197  74.2953033
   3.3213022  43.1578560  73.7499313   2.9048917  42.9123383  75.1842651
  24.0976105   5.9070702  55.1844292  23.8511944   5.6145520  54.3069649
  23.7782631   6.8080068  55.2350464  61.2152100  22.6560802  31.4501534
  61.1842651  23.4596348  31.9693584  62.1011925  22.3190231  31.5830460
  23.2830715   5.3078122  22.7999859  23.5438023   5.0674529  21.9108982
  23.5104942   4.5445004  23.3308964  67.0989914  44.4495850  88.7536469
  66.2718735  43.9936600  88.9093628  67.4417801  44.6295395  89.6290588
  65.0264587  11.8167315  71.9434738  64.8209152  12.2479572  71.1140060
  64.3066483  11.2002287  72.0777359  55.4431534  36.6343956  29.5575428
  55.2892723  37.2809601  30.2463894  56.2813835  36.8897324  29.1723118
  45.1799278   8.8524227  24.0711956  45.1774063   9.6945362  23.6161461
  44.6816406   9.0118351  24.8727760  31.6368217  67.9497375  82.2510910
  31.2244396  68.6850739  82.7043533  32.4817924  68.2918015  81.9591217
  74.1994629  13.1155005  30.0460529  73.4277649  13.4154129  29.5656719
  74.1440277  12.1603785  30.0160465  70.1238403  57.4717598  49.6945419
  70.8602448  56.8631325  49.6352882  70.5232239  58.3386803  49.6225929
  70.1911545  46.1878700  78.1462555  70.6467590  47.0057869  78.3454437
  70.8888779  45.5761261  77.9113464  45.0468674  27.9206543  68.9069061
  45.2907982  27.1462803  68.3998871  44.2397995  27.6686649  69.3556519
   3.4053209  29.1091194  32.3064194   3.7090237  28.7396564  31.4772682
   3.0910275  29.9839191  32.0779991  71.8872910  29.1453953  39.4682350
  71.8808899  28.7317257  38.6050606  72.8145523  29.2062016  39.6978226
   0.8369184  22.9543381   7.0456834   0.9614658  22.0054512   7.0274415
   0.2405431  23.1035652   7.7793727   8.8359175  48.9234962  30.2214947
   9.4706373  49.5846558  30.4975891   9.3671398  48.1573524  30.0045567
  26.7369976  31.8858051  74.9590759  25.9316139  32.2262764  75.3485260
  27.4115314  32.5146446  75.2155914  81.5267410  43.7748260  86.0983887
  82.4752960  43.7555046  86.2252731  81.3890381  44.4379196  85.4219437
  25.5288925  69.1913300  35.8606987  25.7525520  70.0895767  36.1043358
  24.6021519  69.1061249  36.0845833  47.6368294  59.9763985  54.7241631
  47.4638901  60.8367233  55.1064758  48.4712143  59.7069969  55.1081696
  69.6438599   9.0841761  23.1318398  70.4642410   9.5519686  23.2879677
  69.8966141   8.3272409  22.6032600  62.8639374  47.4881058   0.8206674
  62.6387863  48.1603165   0.1774946  62.0609436  46.9776001   0.9246673
  24.5264530  19.1271057   6.6529384  23.7884827  19.1232014   6.0433354
  24.4214382  19.9377708   7.1509585  57.9441605  48.4272728  58.0369492
  58.6766205  47.9276314  58.3976326  58.1778183  48.5661087  57.1191483
  22.1894588  68.6647568  67.0477448  22.8410282  69.3042221  67.3354568
  22.6963120  67.9988480  66.5830917  47.5039749  27.8429832  80.4615631
  47.3572845  28.6939201  80.8746185  46.8160934  27.2814751  80.8190002
  10.8390799  20.4807835  22.5182590  11.0730782  21.3985195  22.6569672
  11.6772223  20.0185318  22.5098991  43.2917824  40.4691048  68.2546692
  44.0030708  40.3895226  68.8902512  43.3631668  41.3653793  67.9262924
  34.5774307  25.8572941  82.2164383  34.3015099  25.0195580  81.8445587
  34.6876183  25.6799831  83.1505966  52.7291641  71.7474365  37.5246658
  53.4250336  72.3474655  37.7929230  52.8488617  70.9777985  38.0810471
  10.7600660  37.4831886  21.4651737  10.2536774  36.6805191  21.5897636
  10.1098394  38.1846924  21.5016632  53.6295624   3.0320597  18.2613888
  53.8361092   2.1965220  17.8425255  52.8483009   2.8512962  18.7840633
  43.0126572  66.9752502   3.6451542  42.6099243  67.3431396   4.4317274
  42.9798317  66.0281448   3.7798502  46.6122322  13.6504879  77.0667801
  45.9395180  13.1674318  76.5868378  46.3469582  14.5672750  76.9935532
  77.8273621  42.8867340  49.8781166  78.4250031  43.6090164  49.6848068
  77.2643585  43.2219200  50.5759048  47.7737389  39.8323784   6.3596530
  47.5997429  40.6113434   6.8880191  47.5504951  39.0992165   6.9331250
  10.6450939  14.6992941  72.5680847  11.5122862  14.4554424  72.2444382
  10.7843313  14.9088917  73.4916153  80.1231461   8.6166000  19.1197662
  79.7400894   9.4687424  18.9115582  80.9422836   8.8254900  19.5687771
  26.2547436  38.1081810  64.7424774  25.5089092  38.3030624  64.1750336
  26.9562664  38.6730690  64.4184341  51.4077797  20.0808563  83.7119446
  51.1777458  19.5981140  82.9180450  51.4512215  20.9952183  83.4321442
  76.4925232   9.7088737  36.2832451  76.6935196   9.2106342  35.4910393
  75.9812698   9.1054449  36.8224373  81.5825882  66.0487823  55.0037346
  81.5947418  66.1008835  54.0480309  81.1509247  66.8564835  55.2821617
  14.6173086  51.3082161  62.3365326  15.3053818  51.9271774  62.5808105
  14.7467871  51.1638145  61.3991890  49.9714546  63.8836555   0.9035627
  50.4826546  64.6802750   1.0460178  49.3238258  63.8854103   1.6084077
  51.3669434  42.4007072  76.8255081  51.4463272  41.9267731  77.6533432
  52.1511803  42.1569290  76.3338013  76.7825775  68.1253738  49.0707893
  77.4735489  67.5471420  49.3939705  76.0480423  67.5403595  48.8851776
  49.2582932  56.0062065  85.3149567  48.3356857  55.9268837  85.0726013
  49.4768066  56.9196167  85.1301193  60.3259087  20.1119709  18.7420292
  60.0537376  20.4410744  17.8853817  61.2542343  19.9046116  18.6350460
  49.5710258  41.0140991  80.7034454  48.9043465  40.8621025  81.3732681
  49.1417732  41.5808830  80.0625610  28.3473301  26.0849533  88.8680725
  28.2448578  26.3786354  87.9628220  28.6557980  26.8598328  89.3377991
  48.9760323  52.9519348  41.2910614  48.5564766  53.5041466  41.9508095
  48.2480965  52.5616951  40.8072739  49.3292236  56.4727097  38.8086014
  48.9180374  55.8420830  39.3997574  48.7533836  56.4952660  38.0443153
  54.8149719   3.0919311  70.5619125  54.7008057   2.7054014  71.4301300
  54.5882645   4.0145240  70.6787872  50.3426399  35.8599091  41.8784485
  49.5343895  36.2020912  41.4965096  50.8565407  35.5647545  41.1267700
   8.5843391  48.8033485  62.9712067   7.6886268  49.0297775  63.2215271
   9.1345472  49.3726768  63.5091362  26.7670307  46.4196472  58.3921165
  27.0579071  45.7234116  57.8031540  27.4213791  47.1104469  58.2879219
  34.3664322  42.8755112  86.6308975  34.3494263  42.4345055  87.4802856
  33.4719276  42.7931023  86.3002853  24.6202335  57.4721870  79.6768417
  24.2922401  57.5355225  80.5738525  24.8889484  58.3640938  79.4565430
  21.6890526  16.8517227   3.0241110  21.3794994  17.6800232   2.6576042
  20.9397526  16.2610302   2.9475424  75.0506439  38.7188683  69.6280746
  74.3008041  39.0567932  70.1177521  75.4970703  39.5010071  69.3037491
  79.6090775  45.0647736  55.3048744  79.4496002  45.3932152  56.1897049
  78.7451172  45.0571747  54.8928719  25.8049698  40.0422363  25.5762787
  25.8749809  40.8941193  26.0071239  24.9759293  39.6819954  25.8911572
  83.9975967  51.4281082  39.3376045  83.7662354  52.1362114  39.9386749
  84.7040482  51.7895432  38.8023186   4.3916326  53.1720314   9.8898344
   4.7677922  53.6797218   9.1708164   4.9959688  53.3065643  10.6198416
  32.6860466  10.7732592  85.1167755  32.3845139  11.6797991  85.0576477
  31.8866024  10.2628603  85.2456741  58.3223076  65.5206375  18.8875942
  59.0707703  66.1039810  19.0130997  57.6587715  66.0690384  18.4690132
   5.0072970  53.8071671  30.3200054   5.9250422  53.8431969  30.5895939
   4.5611105  54.4176216  30.9069386  42.2805367  37.4335213   9.6597891
  41.8294144  37.6127968   8.8348179  43.2032051  37.6036339   9.4701109
  25.0931892  49.4297562  68.4176712  25.5384941  48.9302979  69.1021271
  25.4562263  49.0909996  67.5993347  27.5795517  31.2242107  84.3670197
  26.7566242  30.9655037  84.7818604  28.0851536  31.6306973  85.0708389
  47.5764542  17.6474113  13.4742680  47.8203735  17.5543194  14.3951750
  47.1725960  16.8097038  13.2476044  26.4678631  33.2516785  19.2837849
  25.6242924  33.2956390  19.7339916  26.5837173  34.1237183  18.9064827
  60.9369698   9.1614466  17.9364929  61.8317223   8.9131193  18.1688442
  60.8180733   8.8251476  17.0482368  61.9488449  43.7837868  46.4212341
  61.2797394  43.3329773  45.9061584  62.6693764  43.1563568  46.4794807
  25.9678593  60.9566917  40.0178299  26.5754089  60.4569397  39.4725189
  25.9610767  61.8313713  39.6290894  60.9318962  16.4051914   7.7353191
  61.4535103  15.7905893   7.2191663  60.9054184  17.2013950   7.2046680
  60.8306351   5.0505133  18.6524353  60.0905609   5.6306791  18.8311214
  60.6042747   4.2310987  19.0923824  72.9555359  70.9726944  56.6233521
  72.7391052  70.1815491  57.1167946  72.7411118  71.6917877  57.2176208
  27.4876194  52.4342384  66.9112015  27.8481903  52.1198997  66.0820999
  26.5896988  52.1028290  66.9228668  85.0174103  42.1490860  63.8978348
  85.8190231  42.1792564  63.3755836  84.6208801  43.0120125  63.7780342
  75.5728455  33.4926949   6.8546104  75.1614456  34.1847153   7.3723888
  76.2200165  33.1052246   7.4439001  13.3750515  57.3241501  44.9292641
  14.2065516  57.5174370  44.4962730  13.5989189  57.2538071  45.8572540
  53.1832161  40.4129105  58.8287582  53.6359329  39.6101952  59.0874596
  52.7698135  40.7248116  59.6337738  46.5801353  46.7766457  20.6483498
  46.7318840  45.9481621  21.1031208  46.3201752  47.3853264  21.3398418
  44.5049362  43.5070038  20.0881023  44.2205696  44.3151932  19.6612587
  45.2503204  43.7705841  20.6276951  85.7759781  27.0898781  50.7273560
  85.8480911  28.0404568  50.8135681  86.3176041  26.8765221  49.9675179
  47.9483833  39.3471413   0.9059088  48.3494225  38.4855576   0.7915754
  47.0098495  39.1685410   0.9649699  67.4194565  53.5447388  40.4882889
  67.2868347  52.6112709  40.6534348  66.6747208  53.7998123  39.9437408
  55.9955101  30.9079742  20.1134949  56.9236450  31.1409912  20.0910358
  55.6665001  31.3119774  20.9164677  58.2105751  28.5158691  83.2422791
  58.8618355  27.8742847  83.5259399  58.5384445  28.8341541  82.4011917
  22.0410213  50.2572937  41.7096138  22.8325958  50.4851341  41.2220383
  21.9770565  50.9281082  42.3894310  56.9135818  18.1855831  64.6206131
  56.3769722  17.6630192  64.0246201  57.7942734  18.1451283  64.2478104
   1.2723429  69.0221786  27.1597080   1.6869245  69.7684555  26.7267761
   0.4302577  69.3598175  27.4648743  59.6720467   7.0916371  62.7440758
  59.1717758   7.6257257  63.3610954  60.3607407   6.6929250  63.2760162
  18.7594662  56.4233704  72.8251724  18.6410255  55.6432877  72.2832565
  19.2068081  57.0468407  72.2529831  10.7564707  36.4359627  45.7964287
  11.3919458  35.7213249  45.7552719  10.6407137  36.5999336  46.7323494
  53.3313713  32.9210587  23.5874863  52.9482193  33.1557121  22.7422867
  54.1541710  33.4090080  23.6212082  52.3231010  11.3100214   3.9318848
  52.5311661  10.4118719   3.6744578  52.7964935  11.8550911   3.3033721
  33.0541382  48.4438820  15.6757698  32.7948608  49.3649330  15.7016697
  32.6675339  48.0639572  16.4647102  72.0085449  49.4084549  65.0086136
  72.5962601  50.0836334  64.6695633  72.0205002  48.7230301  64.3405685
  41.2271690  37.7253036   2.6605663  42.0456161  38.1791916   2.8614714
  40.5539665  38.2341270   3.1123693  68.2827606  43.1926155  80.9900665
  68.3252945  43.2567787  81.9441681  68.7065659  42.3587265  80.7869644
  45.0904121  51.1758270   1.2786603  45.8358078  51.7589874   1.4219823
  45.1604538  50.9191475   0.3591818  82.5315628  49.4570541  65.1684647
  82.2641220  49.7654686  66.0342484  82.0164108  49.9833717  64.5570450
  74.2803421  53.6538315  46.5160942  75.1397324  53.7005806  46.9350128
  74.0728607  54.5612984  46.2931900  16.5556087  21.3008900   4.6040702
  16.0778961  21.1099396   3.7968767  15.8721342  21.4676533   5.2531347
  19.0474186  61.1435471  77.8766174  19.4142952  60.9924660  77.0055237
  18.1012115  61.0655174  77.7548294   7.7128267  24.5231476  15.2754145
   7.7099705  25.3081341  15.8231554   8.6212177  24.2219219  15.2932930
  87.2164764  61.3716278  30.6034527  86.7484283  61.0432091  29.8357868
  86.6812820  62.1009140  30.9164066  81.7858734  41.3489227  15.2732449
  81.7406464  42.2852211  15.4669752  81.5687561  40.9220886  16.1020432
  10.6532536  45.7170410  10.7978373  10.8055458  45.3470039   9.9282904
   9.7297134  45.9685936  10.7926950  70.0844193  65.9836578  57.3823471
  70.3206329  65.7418137  56.4868317  70.5673370  65.3667755  57.9323311
  56.8038025  52.9194450  62.2500458  57.4518547  52.3737602  62.6955643
  57.3236656  53.5469704  61.7478676  57.5421524  64.2594223  31.4216728
  57.1415367  63.6784592  32.0683708  58.3944244  64.4827957  31.7957954
   5.4145365  21.1881218  23.5220871   5.5306520  20.2454605  23.6410046
   5.7169824  21.5723877  24.3449459  64.2188492   6.2042294  66.7033234
  64.6843109   5.4734869  66.2963867  64.8823242   6.6449661  67.2341614
  27.5931797   0.1370774  38.5366364  27.1771221   0.4948131  37.7523193
  27.2822552   0.6959825  39.2488022  58.7429352  12.0773792  47.8028679
  59.3140869  12.8428793  47.8663330  58.8410454  11.6347914  48.6459122
  15.0135927  61.2506447  40.7697678  15.9392157  61.0495262  40.6319046
  14.7838354  60.7827950  41.5726128  48.3909264  54.6087036  43.3362808
  48.1005249  54.2616882  44.1797752  48.4070358  55.5576820  43.4604416
   0.8892568  69.6546326  75.5877686   1.4271134  70.2985306  75.1269608
   1.4406328  69.3553925  76.3107300  60.0648155  68.5135956  87.8406448
  59.7411079  69.0107422  88.5918350  59.6998634  67.6365891  87.9585953
  14.7654972  17.6836071  82.1274338  15.3664646  18.1459427  81.5432129
  14.1854286  17.1993027  81.5398941  17.3405457   1.9294496  77.8342667
  17.9270191   1.4491725  78.4187393  16.4626179   1.6479894  78.0916595
  56.2804565  46.3051796  38.5316734  56.2947693  46.8179092  37.7235031
  56.0460281  45.4208565  38.2501564  85.5606232  66.5257034  29.4416523
  85.0330048  67.2606277  29.7542744  86.4383240  66.6991348  29.7819233
  14.5892916   2.9866419  46.8931046  13.7504892   2.5319266  46.8164406
  14.5126619   3.7325025  46.2980843  66.8217926  32.2421608  24.0060883
  66.4140244  33.0259972  23.6379166  66.7192383  32.3409233  24.9526405
  54.8570061  57.4597244  81.4685898  54.6670036  58.2785416  81.9264832
  53.9984245  57.0633011  81.3205261  74.2453766  62.2698174  42.9816895
  75.1169281  62.1028748  42.6228714  74.1913834  61.7047119  43.7523880
  45.7838745  67.2063141   9.0071478  46.5876045  67.5946579   9.3527479
  45.9025269  67.2156296   8.0573759  62.1692123  17.6201382  27.6435757
  62.6428413  18.3052692  28.1152763  61.5811653  18.0958900  27.0569839
  20.1213875  68.8983307  63.7577591  19.8434143  69.3608475  62.9671631
  20.2518120  69.5899582  64.4065018  44.7899628  16.7611179  28.1467113
  44.8067818  17.2558193  28.9659920  45.4671860  16.0935555  28.2560692
  79.0449753  19.5494614  22.7315617  79.7462540  18.9431362  22.4932079
  79.1321869  19.6560783  23.6788006  49.3815613  49.0146408  81.0932693
  49.3317947  49.7518158  81.7018204  50.1130562  48.4876022  81.4147949
  42.7205772  60.9149666  86.2528229  41.9473953  60.3695221  86.3974304
  43.3690681  60.3173561  85.8806000   5.6051831  14.5212059  51.6167068
   4.7024140  14.3155527  51.8594971   6.0857949  13.7078295  51.7705345
  39.3558121   5.0297046  82.4214935  39.5365219   5.9539881  82.5925980
  40.1872902   4.5874290  82.5925751  45.9210777  23.7015972  59.4096146
  45.3201866  23.2368107  58.8272667  46.1394958  24.5047588  58.9369011
  82.5636826  34.3680573  49.9501991  83.2224579  35.0506287  50.0780067
  81.7274857  34.8325081  49.9861107  75.9234161  66.0967026   7.6450319
  75.4071655  66.9017868   7.6056252  75.5614929  65.6163025   8.3896494
  28.5039062  64.2679749  78.3552704  28.5154610  65.0022888  77.7413712
  27.7810040  63.7166977  78.0557098  45.3671570   6.5309196  22.3842812
  46.2218781   6.9498749  22.2834740  44.9764290   6.9635139  23.1435089
  46.1663513  14.7797918   3.9432144  46.0579300  15.4682283   4.5993629
  47.1101952  14.6230955   3.9141815  86.2951126  29.9030457  19.2777786
  86.1220169  30.7013187  18.7787476  86.8490753  30.1898308  20.0038013
  35.2965431  64.6147842  58.2193031  35.7974701  65.3733444  58.5191116
  35.1814461  64.0785065  59.0037727  24.5977459  69.1415024   5.1216397
  23.8228378  68.7239761   5.4977045  24.3183918  69.4249725   4.2511029
  83.7408295   0.2284537   6.2736096  83.4014664   0.0798272   7.1562052
  84.6523895   0.4877246   6.4080129   8.3308344  25.7753887  65.2232285
   9.1512880  25.9248657  65.6930618   8.0150528  26.6528797  65.0075302
  30.9838848  40.9192276  84.1158524  30.1755028  40.4467087  84.3145370
  30.9873123  40.9974213  83.1618576  73.3079758  66.9361649  83.4656525
  74.0255508  66.3027191  83.4736252  72.8629379  66.8044891  84.3028107
  55.1591606  50.4026489  41.1051750  54.6512756  50.0180855  41.8195953
  54.9509926  51.3363304  41.1388741  69.8828583  12.1400061  62.9126625
  69.8282089  11.7885628  63.8013306  70.5139847  12.8567848  62.9769516
  43.0872116  49.2055893  66.2082367  42.8759804  48.2893219  66.3872986
  42.6854439  49.3821793  65.3575668  40.8382111  37.0235291  63.2593613
  41.6664925  37.3744049  63.5865707  40.1794510  37.6543007  63.5498734
  59.0421944  54.0768967  67.5342712  59.4165611  53.6887932  68.3251343
  59.7991982  54.2728348  66.9822006  60.5441513   7.4855571  39.9618683
  60.0251198   7.3926620  39.1629906  61.1755829   6.7672610  39.9221268
   9.5825233  60.2429543  38.0078354   9.9546461  60.1838799  37.1279106
   8.7952309  59.6997147  37.9719048   8.1786289  59.3790207  28.3072414
   8.5729628  59.1917686  29.1591034   7.8326287  58.5364189  28.0130653
  66.0223236  50.3071518  68.7718964  65.4658508  51.0843620  68.8219452
  65.9449539  49.9011726  69.6352768  62.8288269  18.9184265  55.2229004
  63.2315292  19.0070629  54.3590660  62.3048668  18.1196785  55.1620789
  71.1736908  17.4058266  43.0252762  71.2236023  16.4502182  43.0488281
  70.7175827  17.6017475  42.2068596  61.6569557  47.2045097  51.8206139
  61.0261002  46.8266907  52.4333992  61.4594193  46.7838821  50.9837837
  54.6027603  31.9096584  17.7635250  53.9262276  31.3139687  17.4415226
  54.8262596  31.5718765  18.6308098  10.9357567  33.2588959   5.2229905
  11.1241169  33.1174889   6.1507607  11.2393055  32.4596939   4.7924457
  67.7332993  21.6993484  53.9501686  67.1879349  21.8401470  54.7241135
  68.1542130  20.8536072  54.1044044   6.8141007  32.3780251  83.6545639
   7.1485701  31.6210480  83.1735764   6.1686692  32.7696228  83.0660858
  53.9296532  26.8430557   1.4534873  54.0781403  27.6468239   0.9553539
  53.3771057  26.3072338   0.8844354  69.3980560  10.2241688  19.8819084
  69.7265015   9.8562593  19.0615406  69.4099884   9.4896450  20.4955559
  48.8531647   6.7210641  34.1390610  48.5542641   6.5004673  33.2568893
  48.1395531   6.4389949  34.7112694  17.4571857  70.6029282   1.5845953
  17.4199753  71.3877106   2.1313722  17.3788471  70.9311676   0.6888529
  60.7007980  55.7383118  10.9119720  60.2712021  55.8946419  10.0709963
  61.0195198  56.5995941  11.1818743  69.6164474  65.9710236  79.3357239
  68.7017517  65.6890945  79.3443527  70.1009750  65.2029419  79.0332031
   6.8557658   7.8525882  74.9930954   7.0070620   8.7288666  75.3473206
   7.0050941   7.9455261  74.0521927   5.9284067   9.5269775  13.0236340
   5.5066700  10.3832884  12.9522018   5.2256169   8.9355946  13.2930479
  61.2347336  42.3651505  41.1855774  61.6078262  42.1241608  40.3376656
  60.7968140  43.2011452  41.0256653  56.3807793  63.9986610   1.6376607
  56.0730362  63.2131462   1.1854533  55.6574059  64.2411346   2.2157323
  15.4466515  63.9554291  22.9124165  16.2196140  63.3951187  22.8430443
  14.8685598  63.6538696  22.2116280  51.9179993  40.6339760  21.4911766
  50.9929771  40.8286095  21.3405666  51.9116974  39.9155502  22.1236782
  55.8667870  27.3580017  82.4786072  56.6838913  27.6919651  82.8488007
  55.2614784  28.0978699  82.5279007  40.0645752  33.1556778   5.7747059
  39.8137932  33.9541702   5.3102198  40.4381065  32.5918579   5.0973501
  21.0340691   1.9530975  83.7265396  21.0996780   2.4440167  84.5456390
  21.9418831   1.7760749  83.4800262  11.0455904  64.5728531  70.3541870
  11.7069750  65.2285385  70.5753021  10.2127924  64.9869232  70.5805359
  35.1367874   3.7751586  62.5780640  35.6110077   3.2177343  61.9611168
  34.2255516   3.7320418  62.2881966  21.0552979  24.0040302   2.3242514
  21.2271805  24.1847992   1.4001243  20.2487259  23.4886017   2.3214943
  65.9562683  38.7039680  19.1040630  66.6413651  38.0705070  18.8905163
  65.3859329  38.7082062  18.3353405  72.3330536  65.9726639  85.9775009
  72.8349152  66.2500153  86.7439423  71.4758224  66.3831177  86.0911560
  52.5630264  51.1803932  37.7968254  53.1434669  50.9430428  38.5200005
  51.7656631  51.4947777  38.2229729  51.2617760  27.3502750  82.0559158
  51.5247765  26.4654026  82.3090210  51.4414711  27.3941345  81.1167526
  17.8515549   7.3207722  69.0341797  18.0666561   6.7798619  69.7940369
  17.7462349   8.2029963  69.3902969  25.7290821   9.9440899   4.9221907
  24.8952122   9.4920683   5.0509100  25.4828014  10.8390026   4.6882939
  37.9875679  56.0071144  26.6597309  38.9324722  56.0093269  26.5068130
  37.8565178  56.6480598  27.3584766   0.1801512  58.7729034  80.0714798
   0.5978830  59.6335487  80.1035080   0.3840719  58.3760338  80.9183197
  18.8450317  69.4029007  28.0875988  17.9700565  69.3449249  28.4713821
  18.9413776  70.3249054  27.8491573   4.2615528   3.6716516  46.1853828
   4.9688363   4.3024106  46.3200111   3.5080636   4.2064409  45.9354095
  27.4529076   7.5296988  70.9099197  28.3596230   7.2268620  70.8610306
  27.1546822   7.2538991  71.7766495  62.1626129   7.1893091  50.7123413
  61.7612686   6.6701632  50.0154610  63.1039505   7.0631957  50.5931435
  81.3650436  42.6959534  29.3701382  81.1888962  41.9400368  28.8099651
  80.5081100  42.9394493  29.7202835  79.7293625  22.0486526  56.5317421
  79.5536957  22.2191734  57.4571037  79.1278229  22.6272888  56.0631714
  21.8372402  45.2803421  62.3692131  22.6885986  45.5916100  62.0617523
  21.3843899  44.9976273  61.5747108  81.1773605  51.3010330  67.1374893
  81.0570526  51.3998985  66.1930466  80.2989807  51.4059181  67.5031128
  -0.0664486  44.6925087  88.1971664  -0.1361140  44.3632011  89.0932312
   0.8309720  45.0188408  88.1310120  34.1968079  18.1127415  86.0087280
  34.0932274  19.0220737  86.2891159  34.1296310  18.1471996  85.0545044
  85.6138611   9.4600477  64.4075699  86.0328751   9.4084301  63.5484962
  86.2693634   9.1167746  65.0147858  79.7478256  64.8202667  69.1695328
  78.8717880  64.4374695  69.2170486  79.6074600  65.7572937  69.3055649
  52.6690369  41.4357719  67.7055435  52.9812927  41.7648888  66.8626785
  53.3740120  40.8681564  68.0170746  24.8803444  29.1399040  64.8523102
  25.8269882  29.2098293  64.7289886  24.6965103  29.6913128  65.6128311
  75.2386169  11.5923882  32.5687103  75.9622345  12.1762791  32.7960434
  75.6500931  10.8807001  32.0783882  54.4767647  42.7083054  39.1222801
  54.4756393  43.3619461  39.8215523  54.2189293  41.8943024  39.5548897
  67.0835114  49.0749130  66.3346024  67.0545959  48.1645241  66.6288681
  66.7266617  49.5752754  67.0684433  53.0143852   3.5181484  82.9623871
  53.2766685   2.8380628  83.5828018  52.0574989   3.5051546  82.9831390
  67.1871796  29.5337429  62.9936943  66.3850937  29.0154724  62.9282188
  67.2563248  29.9759712  62.1475945  38.2007561   0.7944348   8.9189711
  38.2127075  -0.1067397   8.5965223  38.9939079   1.1890634   8.5564690
  82.2698975  39.0940094  31.5995922  83.2134018  38.9375572  31.5602722
  81.9589386  38.9067001  30.7138977  50.3906593  46.3230171  69.5243301
  51.0239944  46.0450478  70.1860275  50.9007187  46.8541107  68.9127655
  64.1627197  18.2737560   8.4539890  63.7877998  18.5340042   9.2953806
  64.6127167  19.0578690   8.1394949  67.4532928  28.5530987  52.6198387
  67.5265961  29.1089783  51.8440437  66.8816071  27.8354454  52.3471146
  64.6530991  18.8904953  46.3315964  65.4542999  19.4100800  46.3975105
  64.9393387  18.0545807  45.9634323  66.4751587  11.6168108  87.4719086
  66.3858032  11.1879387  86.6208420  66.7167740  12.5187759  87.2613983
  61.7027550  45.2072372  32.9845657  61.5522575  46.0059204  33.4902191
  62.3550720  45.4573669  32.3302345  86.5639496  20.5214443  21.2281837
  87.0968552  20.4959240  22.0229111  85.8008423  19.9815350  21.4340744
  55.6391602  63.3430634  77.1127930  55.4840355  64.1721420  77.5653305
  56.5348625  63.1040306  77.3511505   8.6016998  66.2826385  27.3234081
   8.1619511  66.4496918  26.4897747   9.5318146  66.2456284  27.1003628
  69.9241180  47.8405418  18.4275703  69.5023346  47.3378563  19.1244507
  70.5011292  47.2116737  17.9941959  67.6036453  66.1992264  68.3859787
  67.7919235  65.3882370  67.9136658  68.3521042  66.3147278  68.9713898
  56.0965271  36.4808731   0.8874548  56.7059860  37.2077904   1.0154600
  55.7327042  36.6243629   0.0137978  58.2758484  10.9017620  64.5993576
  57.7798386  10.0853958  64.5381012  57.7412605  11.5425768  64.1305161
  27.4033070  59.6602249  20.7101536  28.0925236  60.3228340  20.6636658
  26.6846294  60.0255623  20.1941471  83.6311798  16.9015541  57.1510124
  84.0723038  17.3061085  57.8979912  83.9504547  17.3889465  56.3915787
  50.9143333  55.7392044  33.2498360  50.6355133  54.9698143  33.7463570
  50.9790382  55.4305115  32.3460922  10.2039480   0.4163274   6.4613819
   9.5920782  -0.2381080   6.7983708   9.6604729   1.1845515   6.2861729
  86.0262909  30.0309620  83.4748688  86.3962708  29.1484280  83.4528732
  86.1145096  30.3501034  82.5767593  30.8306580  41.6259880  81.3639526
  31.3459835  42.2697678  80.8779297  30.2542267  41.2354164  80.7071304
  83.0442810  42.8548775  67.1869812  83.9159470  42.7909050  66.7966766
  83.0633698  43.6734123  67.6828384  85.7897034  55.1214638   8.3905258
  85.2757721  55.7143593   7.8422694  86.4800339  54.7979469   7.8117232
  22.1065636  71.1336212  25.6773453  21.2855015  71.5129395  25.3639660
  22.1673260  71.4149475  26.5902500  62.5218277  15.8125734  25.4337292
  62.1778679  15.0916233  25.9611320  62.6809578  16.5154800  26.0636749
  33.6259232  37.2346802  78.0327759  34.1132050  36.4745674  77.7149429
  33.8338394  37.2793427  78.9660492  82.5169983  35.3151283  62.8337135
  83.1713486  35.9198532  63.1835175  82.9459915  34.4597015  62.8546524
  26.2586861  39.8232536  71.1811905  25.8373432  39.5878792  70.3545685
  27.1957798  39.7404823  71.0044479  32.3239059  32.4891968  73.1539917
  33.2664795  32.6396065  73.2258453  32.2397461  31.5412025  73.0517502
  77.9180908  33.5753365  51.3632851  77.4172287  33.5100365  52.1763687
  78.4877167  32.8061142  51.3704338   1.4987963  42.9412193  67.9202881
   1.1377722  43.8081207  67.7348938   1.8775538  42.6566162  67.0885544
  46.8706894  50.1198921  58.9088135  46.2129097  50.8083076  59.0069923
  46.5916634  49.4337845  59.5151405  44.4205589  63.8974533  69.5733566
  45.1779518  63.9406013  70.1570816  44.7396851  63.4306488  68.8010330
  46.2345467  15.4623117  59.1503868  46.1068192  16.1366463  58.4831619
  46.0660629  15.9105148  59.9792175  49.3453140  31.6930199  29.1582947
  49.9509087  32.1296883  29.7572994  49.8306465  31.6225300  28.3362751
  36.6010361  60.9812851  18.4908886  37.4340096  60.7095909  18.1054420
  36.8430786  61.6311798  19.1506481  54.0434151  16.6247349  17.3604298
  54.3686676  15.9323559  16.7850552  54.8321915  17.0056133  17.7464333
  31.2851238  50.0804634  40.7297707  32.2402191  50.0437279  40.6780624
  31.0413094  50.8007164  40.1483727  42.3508492  63.9744225  41.4174004
  41.9186935  63.4363213  40.7541351  41.7720985  64.7287445  41.5281715
  31.4198799  47.5161362  17.9446392  30.8588619  48.2393074  18.2248383
  31.5909042  47.0213089  18.7459679  11.0121365  55.9217873  20.1926403
  10.1327868  55.9289665  20.5706940  11.1535130  55.0115738  19.9323425
  60.4998360  58.9051895  23.3677902  59.9968681  58.9408798  22.5541687
  60.1665382  58.1311378  23.8216534   5.7220864  29.6847935  75.7857132
   5.8520913  28.7399426  75.7045746   5.1159692  29.9047928  75.0782852
  68.8399429  35.4408493  35.4507751  69.0509872  34.5996284  35.8557968
  68.8883362  35.2724495  34.5097504  11.7621136  61.6347427  17.3313465
  12.6050491  61.2368927  17.5490818  11.2838078  61.6512642  18.1603127
  23.2198372  32.9250603  69.0764771  22.4067860  32.5166092  69.3737106
  23.7427578  33.0243874  69.8720398  13.2616758  60.0046768  63.8180466
  13.2572689  60.7371941  64.4341888  12.3396416  59.8706856  63.5986633
  72.0314484  48.6467018  87.0217896  72.7507401  49.1728287  87.3711243
  72.1337662  47.7924690  87.4413757  53.6417313  39.2835846  12.9029036
  54.2497902  38.5738678  13.1097775  53.8561134  39.9733658  13.5309734
   2.7151830  23.6243668  33.2624893   2.0780358  23.7105007  32.5533676
   2.1881065  23.6405773  34.0613403  54.9409790  53.0102234  38.6878166
  54.6078949  53.0228691  39.5851059  55.7550735  52.5096283  38.7415695
  53.7439499  37.6441574  84.9875488  54.1581345  38.4081993  84.5863876
  54.3938484  36.9466743  84.9016342  84.0877762  28.7246532  44.7937088
  84.0164871  28.0792274  44.0904503  84.0636597  29.5703526  44.3459969
  79.2932205  38.8516121  22.5731621  78.8160782  39.4765511  23.1190701
  80.2159271  39.0520782  22.7301846  61.9174805  63.8830032  34.9897995
  61.9024010  62.9300499  34.9010162  61.9891510  64.2061310  34.0916405
   5.5695724  58.1782494  18.0742073   4.7920294  57.8928604  17.5944042
   5.2642498  58.9085312  18.6124420  70.1745071  62.4253426  62.6425438
  71.0886688  62.6984177  62.7197800  70.0893631  62.1269417  61.7370377
  32.7675781  51.8941460  28.6650486  32.1535530  51.4821968  28.0571785
  33.3308945  51.1780434  28.9584808  14.9118309  55.8387146   6.5901713
  14.8178148  54.8995819   6.7496147  14.4488420  55.9892654   5.7660308
  34.6306458  53.3959465  26.9535370  33.7915306  53.2757187  27.3981266
  34.7000580  52.6438713  26.3654900  27.1690941  42.3849068  85.1715240
  27.9347630  42.3756332  85.7458878  26.5868206  41.7193184  85.5378342
  43.9322624  16.4887333  62.9854469  43.1632805  17.0587120  62.9898605
  44.1879654  16.4243622  63.9056129  52.9770622  20.8244705  70.8894043
  53.9163818  20.7209454  70.7371063  52.5823402  20.7333336  70.0221558
  42.6938858  61.1238556  18.2402058  42.9367828  60.9177132  19.1428337
  42.2720833  60.3273773  17.9178200  26.3720741  55.7199402  88.5578156
  26.5895214  56.5086899  89.0546265  25.4242630  55.6288795  88.6557693
   9.0985546   5.1795402  26.5738354   8.8192644   5.3543992  27.4725323
   9.2206964   6.0469398  26.1879196  58.2209167  70.4222336  77.5449295
  58.6077805  69.7118530  77.0331421  58.5212440  70.2637558  78.4398727
  83.0333405  43.1407967   4.1190886  82.5827560  42.7083931   3.3936689
  83.4179001  42.4239578   4.6235533  72.3781281  46.1718903  72.3082428
  72.7370529  47.0577583  72.3597031  73.1465302  45.6011963  72.3179855
  22.6481819  51.3624496  81.2074203  22.9322739  51.9956245  80.5481720
  21.8372326  50.9965439  80.8542862  61.0620613  25.3476772  60.7494583
  61.0377579  25.4825554  61.6967964  61.9566078  25.0570850  60.5717773
   8.6985092   8.7593546  49.3877792   9.2954512   8.3678732  50.0254555
   7.9701848   9.0904207  49.9132996  59.5416183  42.0127678  19.0311050
  60.3980026  41.5998154  19.1420689  59.7069168  42.7542686  18.4487934
  76.4515457   7.8214841  13.6191978  76.0209427   8.0530643  12.7962885
  75.7929153   7.9958892  14.2915211  53.2903519  53.3919487  14.5687714
  53.8518829  54.0755424  14.9343023  52.4262352  53.5671463  14.9413900
  84.1822510   3.8727007   1.2708596  84.7975311   4.3730617   0.7348582
  84.6555786   3.7055247   2.0858688  86.6660690  -0.0692442  28.2380199
  86.6299896   0.8726707  28.4045315  86.5348511  -0.1506720  27.2933598
  10.7564631   6.6454372  64.1572571  11.0303335   7.3717761  63.5972023
   9.8035688   6.7240086  64.2025375   1.7040350  -0.2308985  69.7192688
   2.3998866   0.3568449  70.0135117   0.8935750   0.2285950  69.9389343
  23.7361450  53.4034729  86.1887741  24.2959671  53.1326370  86.9164200
  22.9070606  52.9506340  86.3430176  22.5857887  60.2517433  47.6090660
  22.0488777  59.9837952  48.3548317  23.4673977  59.9499168  47.8279190
  28.8487816  63.0203896  34.8258858  28.0786037  63.4999199  35.1310234
  29.0623207  63.4213791  33.9833641  86.3457794  62.6657753  79.9153214
  87.0148544  62.0942039  79.5386658  86.8347702  63.2742233  80.4693146
  69.2173462  14.7613201  84.9078751  70.1706543  14.8419046  84.9385910
  68.9733429  15.1270380  84.0576096  13.7411165  57.0777931  56.0392532
  14.1490517  56.2383995  56.2519493  14.0917006  57.3029366  55.1774940
  69.1614914  23.3297653  50.1036186  69.7387619  23.9681053  50.5225601
  69.4907303  22.4802437  50.3971252  44.3770828  24.3503494  32.0350571
  43.9134979  25.1817818  32.1352425  44.5851555  24.0827560  32.9302292
  46.9762383  10.5143785  76.2182083  47.4565964   9.7507505  75.8982697
  46.3702126  10.1606264  76.8692245  49.2576828  62.8681450  54.1246605
  48.6373062  62.7611580  54.8457146  49.7358742  62.0394745  54.0951729
  63.9004021  58.4963188  22.2996845  63.2183380  58.2415123  22.9210472
  63.8489876  59.4515419  22.2659969  50.5965309  27.3125629  11.8432283
  49.9994087  27.3866081  11.0987835  50.1777687  26.6771755  12.4238787
   1.9297458  59.2636642  21.0368099   1.3183138  59.3418770  20.3045082
   1.4929167  59.7098961  21.7622681  23.6947021  43.7762947  69.9617310
  23.4171867  44.6417656  69.6614380  22.8817997  43.3381271  70.2135925
  65.9385681  70.1420059  67.5881271  66.4479370  70.6856842  66.9871368
  66.4319763  70.1644058  68.4080505  58.5662384  56.8993721  17.5355473
  58.7620697  56.6424332  16.6345119  58.3423920  57.8281555  17.4764843
  62.5065079  32.9310341  15.6996813  62.3934631  32.8003273  14.7582092
  63.3938560  32.6205139  15.8797560  73.5543442  70.7718277   4.2028069
  73.5102768  71.7278900   4.1874185  72.9089661  70.5128784   4.8605781
  34.1367264  57.2983475  15.1242828  34.2727852  57.5330772  16.0422268
  34.5195160  58.0245972  14.6320782  74.6554794  13.4149914  39.8516235
  73.9622421  12.8423491  39.5233841  74.4943466  13.4705162  40.7935295
  48.6263924   3.6988871   8.7673426  47.9228096   3.7676735   9.4126892
  48.5254135   4.4769764   8.2190619  35.6343384  25.6941776  60.6967773
  35.5832176  26.1240978  61.5504646  35.1021729  24.9045124  60.7940331
  84.4622192  18.4446049  21.1325397  84.8247604  17.6278667  20.7894135
  83.8519287  18.7385349  20.4562397  56.1737175  35.9029236  64.7014313
  55.7516823  36.7160454  64.4240341  56.9313240  36.1884041  65.2120819
   9.0982332  53.9342308  34.0782509   9.5781975  53.3958626  34.7075539
   9.6136379  54.7377853  34.0082893  51.1163483  49.8925438  45.2926636
  51.3960190  49.0019493  45.0808792  50.3424377  49.7758942  45.8437386
  85.9381256   7.6816807  27.3252201  85.3562393   7.5216808  26.5822258
  85.6299591   7.0816364  28.0043449  24.6249275  64.5567169  64.7811127
  24.9018364  64.3797073  63.8821068  25.1531487  63.9637909  65.3155746
  54.5450172  46.9296646  49.9361496  53.8139534  46.8827553  49.3200493
  54.4465218  47.7821198  50.3602333  45.5613708  38.3671303   1.5200129
  45.0961685  37.7456017   2.0799389  45.3195801  39.2269859   1.8641343
  52.3672905   6.4146843  33.6966629  52.0989418   6.3397212  34.6124153
  51.8808098   5.7236428  33.2471848  20.8611565  37.2524109  63.7871513
  21.7628536  37.1939011  63.4713173  20.8937321  36.8911629  64.6729660
  29.8317490   4.2678671  87.5567780  30.3793449   4.8658571  88.0654831
  29.7311153   3.4991052  88.1181259  32.7272949  55.9020615  24.8257141
  32.9244537  56.3321686  23.9936275  33.5808754  55.7841148  25.2425194
  30.6404152  46.1423721   3.2047365  30.9128914  46.1529388   2.2871978
  30.7110500  45.2239456   3.4650011  37.1673775  30.5653191  70.0544815
  37.1256409  29.6763763  69.7019653  37.5002861  31.0949078  69.3299561
  81.6699829  68.2332687  87.7875519  81.8438721  68.9283676  88.4222412
  81.1100464  68.6446762  87.1291809  55.9893646   5.3911886  75.8139572
  56.3760948   5.7653065  76.6056061  55.0836639   5.1996083  76.0573425
  45.1275864   9.2897329  77.7070312  44.4391251   8.7082748  77.3842926
  44.8442993   9.5297394  78.5892944  82.5153427  19.5273666  16.0676422
  82.8850098  20.1695614  15.4617014  82.7509308  18.6794643  15.6910887
  83.2461472  37.9273682  27.4636288  83.5216293  38.8087578  27.2116432
  82.4835281  38.0661697  28.0252113  15.8244371   3.4365294  10.6479626
  16.5530567   3.8622394  10.1961708  16.1963882   2.6230505  10.9887505
  69.0140152  52.7476311  60.2248077  68.1743088  52.6326942  59.7799301
  68.8187485  53.3312721  60.9579277  64.7691498  55.5315742   7.6572032
  65.3868561  55.3667908   8.3696060  65.0364304  56.3782234   7.2994690
  56.7183952  26.3382568  42.1728287  56.8671188  27.0555305  42.7889709
  56.0259323  25.8152237  42.5767670  26.4300842   0.9126623   1.1466187
  26.7401962   0.4873868   1.9461205  27.0889320   1.5815099   0.9600866
  15.9954987  58.1476898  41.0394173  16.5653248  58.7023621  40.5066261
  15.9081011  57.3391800  40.5345345  79.3926773  69.1312561  13.5200787
  79.9467163  69.8770676  13.2897587  79.3330002  68.6191406  12.7136030
  31.5070305  54.0505791  66.3679428  31.3241825  54.1959648  67.2961960
  31.7008743  53.1152878  66.3056335  82.7104645  20.4495831  89.0760880
  82.7109146  21.3134193  89.4884262  81.7836227  20.2363091  88.9679031
  82.2625885  70.3196869  61.3448524  82.5251236  69.8574295  60.5488472
  82.9575577  70.9618988  61.4891396  27.6734715  61.7095642   4.7730069
  27.2948837  62.3073349   4.1283588  26.9426651  61.1527138   5.0414710
  22.0643940  54.3954582  10.8239613  21.8108997  54.7561264   9.9743195
  22.9753590  54.6666832  10.9371367  20.8203011  52.2463341  69.7148361
  21.2299881  51.3828545  69.7676392  21.5387058  52.8616638  69.8614655
  76.5881500   2.1017482  44.9112511  76.9637756   2.1521008  45.7902260
  76.7839966   2.9521823  44.5180092  80.2793045  25.6681957  82.2462311
  81.1448059  25.6807423  81.8376007  80.0007782  26.5839767  82.2454529
  29.6299667   4.1185451  32.5271950  29.6691685   4.5717406  33.3694000
  30.4247894   3.5856431  32.5047417  78.4239197  29.3696423  85.5651093
  79.0996170  28.7091064  85.4122772  78.9100113  30.1581650  85.8063126
  54.9852562   9.3140697  36.3881149  55.4918480   8.7835445  37.0030441
  55.5133896  10.1020412  36.2600174  71.9113693  13.7574329  54.4442940
  72.5816574  13.1759205  54.0854301  71.6902695  14.3434992  53.7205009
  25.3650684  50.6318588  16.2203636  26.1434841  50.8111725  15.6929674
  24.6689949  50.4888458  15.5790682  13.7211123   3.0629311  72.4730530
  12.8610296   2.8868239  72.8544617  13.5978241   3.8640113  71.9638367
   7.1460447  16.1796341  68.1892242   6.2153139  16.2018299  67.9667816
   7.3535547  15.2477798  68.2586365  25.2042522   8.7649870  78.1205368
  25.1930962   8.3985643  79.0047531  25.3177662   9.7061949  78.2527237
  59.4119263  32.4679871  13.2179794  58.7861977  32.9171371  13.7862749
  59.1755600  31.5428867  13.2854595  81.1653366   6.3003759  67.3426743
  81.0098648   6.8169398  68.1333847  81.7342377   6.8510923  66.8048096
   5.3185067  18.2659130   8.3256350   5.5242753  17.5385113   8.9128151
   4.4231572  18.5138454   8.5560932  71.2486801  45.2224541  69.6720963
  70.7687073  46.0500832  69.6422424  71.7814865  45.2830429  70.4649887
   0.4343750  23.1363525  13.8459806  -0.3311206  23.1308136  13.2713346
   0.1124423  22.7874393  14.6771555  47.1576118  49.4771881  28.8982391
  47.1092453  49.5148735  27.9430046  46.2615013  49.2874718  29.1761341
  56.9271851  42.4640503  71.6020584  57.2934227  42.4145355  70.7190781
  57.4086037  43.1772346  72.0213852  37.2099648  39.2337379  83.6674957
  37.5767174  38.7869377  84.4304504  37.9674339  39.6240501  83.2314606
  67.9750519  44.4015503  22.6091442  68.6390533  44.0194969  23.1830502
  67.3849258  44.8667183  23.2021046  69.9283295  34.0041771  66.9861450
  70.5768280  33.9867020  66.2823181  69.9075623  34.9180641  67.2700577
  34.7979813  64.6680527  43.7743378  34.7107391  65.4266586  43.1971588
  35.6484909  64.2915878  43.5481911   8.1079006  21.9958782  56.4435349
   8.7851582  21.8233414  55.7894783   8.4677629  21.6465664  57.2588310
  68.9713898   7.6048679  41.6062088  68.3159561   8.2445564  41.3279419
  69.5661240   7.5311689  40.8598251  69.8726273  27.6682072  77.3654556
  70.0597000  27.3497963  78.2485428  70.4943008  27.2024040  76.8061905
  50.5047493  48.6684341  32.1452675  51.1422882  49.3340111  32.4036865
  49.8561325  48.6719666  32.8491974  12.7276020  13.3391161  86.8610687
  12.7962227  13.6694841  85.9653091  11.7860708  13.2819986  87.0238190
  45.5128746  23.9472809  86.4116898  45.7599068  23.6888180  87.2996140
  44.5664864  24.0835762  86.4564590  13.5761385  36.4049149  72.5012817
  13.5629196  36.6432304  71.5743179  13.8665628  37.1996613  72.9487915
  49.3164482  37.4516182  27.8013897  49.2094231  36.5041618  27.7171059
  49.6905212  37.5737152  28.6739674  40.9506111  24.0247841  71.3432312
  40.0626793  24.2170143  71.6446609  40.9331779  23.0928040  71.1256561
  72.9224548   4.2108493  80.6276779  72.1730347   4.6164632  81.0636597
  72.7386246   4.3100586  79.6935501  43.1033287  45.2723885  22.9330292
  42.2601204  44.9768677  23.2763863  42.8939095  45.6565590  22.0816841
   4.3991847  59.8976669  19.7778664   3.9110858  60.5215225  19.2404728
   3.7730176  59.6140747  20.4439926  37.1013451  37.7862892  62.2380600
  36.5178337  38.5413246  62.3133507  37.8683815  38.0234604  62.7592468
  67.9615860  67.0582199  58.9118042  67.4643097  66.2971649  58.6122246
  68.8522415  66.9008484  58.5984421  72.4505920  56.0377274  49.4653969
  72.2190323  55.1399727  49.2273941  72.8836136  56.3878136  48.6868324
  14.2528257  21.8890915   7.8438625  15.1978073  22.0144100   7.7570405
  13.9682159  22.6019897   8.4157076  82.6775360  17.9145298  36.4108200
  83.1680603  17.1110954  36.2372894  82.0635223  17.9829178  35.6796989
  11.2678738  13.0446558  56.8051834  11.6142035  13.9207420  56.6355972
  10.8274441  13.1209240  57.6516113  48.3018036  63.9329414  28.1172771
  48.7864571  64.6219864  28.5717621  48.2133636  63.2345963  28.7659092
  34.2478981  10.1560078   5.8738308  33.5886688  10.3860912   5.2190709
  34.5990448  10.9971695   6.1660185   0.7332653  50.6469803  12.8433542
   1.4392898  51.0132027  12.3107729   0.1415191  51.3837128  12.9959726
   5.0158310  66.8247757   2.0619335   5.1443062  66.7248154   1.1186765
   5.4569497  66.0667496   2.4453995  44.2382660   0.5929247  67.5987244
  44.3580093  -0.3054971  67.2909393  43.5005074   0.5415840  68.2064362
  59.8776169  25.6362057  78.0609818  59.8577042  25.8771458  78.9871445
  60.0925865  26.4505768  77.6062088  65.3073883  41.5576782  50.7543068
  65.4722748  40.6861687  50.3944244  65.1970901  41.4118805  51.6938858
   8.2344723   6.5107212  14.1130905   8.6842489   6.1234622  14.8640652
   7.3835077   6.7819738  14.4573479  44.1069870  28.0122967   3.1288624
  43.9143639  28.1670437   4.0536232  44.9029579  28.5171738   2.9622591
  18.9964695  19.9579411  76.5489197  18.9058628  20.5639973  75.8135834
  19.5429707  19.2492714  76.2092743  78.7199707  51.8092690  68.2783203
  78.4489212  52.4648743  68.9209213  78.1117783  51.0815010  68.4075089
  65.6201553  23.9995537  34.6101837  66.2224045  23.5479946  34.0188980
  65.3303757  23.3215351  35.2205544  26.2530212  29.5622616  12.6331778
  27.1404152  29.9178581  12.5850554  25.7108707  30.2094383  12.1821032
  63.5385857  11.3195057  35.4525108  63.6141014  12.2094097  35.7968903
  63.6690598  10.7557402  36.2149887  58.5519562  12.8510571  15.6069469
  58.4767952  13.5347013  14.9412041  58.8368263  13.3141794  16.3947277
  25.9089260  40.3582535  16.0007133  26.8251419  40.2259674  15.7572355
  25.6004734  41.0443726  15.4088278   2.0196548  19.4825020  43.8351479
   2.1088541  18.5388565  43.7017059   1.2209537  19.5765495  44.3542480
   3.1164234  50.9907799  32.4280281   2.6129889  50.2367363  32.1211052
   3.9753048  50.6311150  32.6498260  47.6636505  51.4704895  46.8004532
  48.1634483  50.7731209  47.2248497  47.8782730  51.3876114  45.8713150
  47.2636375  15.8697929  65.6046295  47.7518158  16.6912460  65.6605835
  47.6242828  15.4287643  64.8354340  71.1199036   4.4223990  16.9538021
  70.4297791   4.0664868  17.5135269  71.8645782   4.5476503  17.5420170
  26.3843136  29.6721687  15.7264690  26.3144035  29.6543999  16.6809483
  26.2976532  28.7560692  15.4628735   2.3240292  36.6666718  13.5755682
   3.0867958  37.0881233  13.1795912   1.5774119  37.1724472  13.2546558
  75.5936966  61.9411354  64.6394501  75.0497665  62.5969238  64.2031937
  74.9793472  61.4367409  65.1727295   7.8521876  21.2630119   5.0048542
   7.4236984  20.4934464   5.3795500   7.3256216  21.4794502   4.2353640
  68.4602509  52.7594795  67.1242371  69.0200348  51.9909630  67.0135269
  67.6289902  52.5105057  66.7201996   9.1448650  17.7862968   6.0458641
   9.7033243  18.3574638   5.5184908   8.9555511  17.0422230   5.4742470
  81.7782745  29.4481487  46.4064407  81.0493546  28.9258099  46.0716743
  82.5318069  29.1687603  45.8864746   9.5033360  40.2018890   3.0144856
   9.3986425  40.3781662   2.0795007   8.8645658  39.5139771   3.2015176
  64.1409683  31.9784851  28.0277843  63.3926048  32.1982841  27.4729233
  64.2165070  31.0265408  27.9619942  82.5459900   7.6767502  20.3703041
  83.0518494   8.3618612  20.8072968  83.2061691   7.0903916  20.0007381
  36.5040550  57.8818550  69.4239502  35.7089653  58.3105011  69.7406998
  36.8522758  58.4809113  68.7635651   6.1553078  41.5184631  64.0745544
   6.9353251  40.9977303  63.8831367   6.2776136  41.8097992  64.9780960
  76.0139084  18.7116108  76.3505402  76.0915833  19.6289330  76.6126862
  75.7546844  18.2549305  77.1508408  54.7290840  52.6035614  64.3423080
  54.8997345  52.8458672  65.2524719  55.4519501  52.9938240  63.8509865
  17.3149166   2.4378917  46.4698067  17.4392395   1.5291598  46.7436333
  16.3684406   2.5738919  46.5136185  67.0659714  48.0684967  36.0125923
  66.3117142  48.5258179  35.6408730  67.7013474  48.7614136  36.1925926
  67.0951309  64.0198975   1.7400278  66.5928192  64.4033203   2.4589870
  66.5786514  64.2126541   0.9575112  64.4274902   1.6697322  63.1146660
  63.5687752   2.0719354  62.9840050  64.3458633   1.1939702  63.9412384
  19.6099758   4.5072880  17.8461876  20.4255066   4.1919112  17.4567280
  19.2857437   3.7653515  18.3567123  62.8440247  13.3684397  18.0865040
  62.3609276  12.9040670  18.7700310  62.6404152  12.8905449  17.2825184
  27.3231735  51.2144470  73.6091461  26.5488510  51.5853462  74.0323410
  27.0206604  50.9591713  72.7376251  39.3013229  48.5073128  30.1625290
  39.4947433  49.2084999  29.5403099  39.6708450  48.8133926  30.9907799
  11.2795048  65.2041092  87.0754089  12.0009279  65.1927261  87.7044144
  10.9876575  64.2936554  87.0291824  79.3694992  63.9564705  57.1807861
  80.3068848  63.9092636  56.9928932  79.2219772  64.8671036  57.4361687
   3.1252987  36.8025856  87.2405243   3.0520427  36.1002617  86.5942993
   2.2860920  36.7930183  87.7008209  77.1635742  43.9594879  76.8049698
  77.9110794  43.3631210  76.8475266  77.4475479  44.6577759  76.2150726
  25.2691574  14.4187078  73.3497849  25.2365780  15.2575321  73.8097229
  26.1889877  14.1574125  73.3930283  50.2132721   4.5283365  32.3597870
  49.8858299   3.6896265  32.0348549  50.1970863   5.1041670  31.5953331
  73.9299774  37.2601280  51.9957504  74.6491776  37.4000511  52.6117134
  73.7139511  36.3320618  52.0866089  83.2789383  28.2843876  61.9474487
  82.4346237  28.1045551  61.5338936  83.5986252  29.0716915  61.5067863
  56.2787399   3.0506070  74.8753128  57.1336060   2.7810290  75.2111130
  56.1514359   3.9326110  75.2247314  53.1273193  44.0857697  60.0415573
  52.6747704  43.2772064  60.2816772  53.9686928  43.7941284  59.6904564
  77.0028839   7.5352473  76.7842102  76.0486984   7.5279593  76.7086334
  77.1951752   6.8782277  77.4532242  64.5021057  55.6205902  87.1780853
  65.2909012  55.5426483  87.7147064  64.3937683  54.7548714  86.7843552
  12.4428663  49.1077309  32.6183167  12.9635868  49.8678207  32.8778305
  12.9993343  48.6366310  31.9981213  47.4080963  14.1743364  56.8604660
  47.0915756  14.7689981  57.5404816  47.0975647  13.3111076  57.1336632
  10.6161299  18.7645454   3.9109304  10.0006142  18.5710030   3.2038848
  10.8872967  19.6686077   3.7516463  33.4809189  29.6225452  86.0195847
  33.8565025  30.2276115  85.3800049  33.5308342  30.0925198  86.8519745
   1.5086696  13.7579489  78.3085709   2.3648131  14.1386003  78.1127319
   1.1323872  14.3411331  78.9677734  14.4700766  69.2984009  20.0526619
  13.8897123  69.0519867  20.7728634  15.2055292  69.7394485  20.4778900
  67.4544373  32.4323273  84.0733566  67.8808823  32.3047562  83.2259521
  67.9123840  31.8346272  84.6643372   2.4157903  71.4858170  78.0262756
   2.0905581  70.5875702  78.0863800   3.3530395  71.3903580  77.8569107
  71.6358871   1.4063995   1.8853400  71.4217682   2.0944777   1.2553132
  72.4926682   1.6564901   2.2311816  12.8798552  69.3472977  28.2587795
  12.8309307  70.3030090  28.2374191  12.5844936  69.0728912  27.3906250
  52.7423515   0.6466504  48.2661095  52.5956650   0.1486372  47.4619370
  51.9980240   1.2464528  48.3155212  81.9138870  38.3907433  42.6944771
  81.1436539  38.2955246  43.2547455  81.8964386  37.6179390  42.1299438
   6.4189692  57.6724586   5.8888168   6.1716294  57.2171593   5.0839820
   7.1675363  58.2135162   5.6375465  76.7181473  56.5338440  49.7592926
  77.0118256  56.9944839  48.9732933  77.5235367  56.3432121  50.2401733
  54.2732239  42.4970741  70.1315613  54.3651772  41.7943840  69.4881287
  55.1225586  42.5315056  70.5716476  59.0418129  43.9941940  49.1812019
  59.8948059  44.1462555  49.5880280  58.5129395  44.7470932  49.4451523
  15.8915386   3.3812754  73.9879837  15.0859718   3.0471413  73.5934601
  15.9931183   4.2585177  73.6187134  84.4132156  16.0986462  16.0604382
  84.9686508  16.6292343  16.6315804  84.4015808  16.5733681  15.2293320
   1.3387717  17.4294205  40.7064667   1.6879467  18.3162022  40.7955055
   1.4602859  17.2159309  39.7813263   7.3964677  60.6536446  58.1467056
   7.3062387  60.0329094  57.4236755   6.5777531  61.1495247  58.1402359
  23.4018440  39.6904640  10.7365370  22.7161274  39.7089767  10.0689430
  23.4653568  40.5961151  11.0398331  57.9991035  28.6119480   2.4904475
  57.1514931  28.3371487   2.8401294  58.3278885  29.2446842   3.1290212
   6.3006091   5.8967276  84.9865341   5.9865718   6.7308259  84.6374054
   6.0451536   5.9117627  85.9088974   5.0085106  43.4809074  19.6840401
   4.8955073  42.5326462  19.6187515   4.9449325  43.6657372  20.6210728
   4.3396621  32.5708122   6.4078016   4.1562557  31.6350574   6.3243871
   3.7120891  32.8806076   7.0608029  54.6356773  23.4428082  66.4220657
  54.6111298  24.2889194  66.8689728  54.9622307  22.8322411  67.0829773
  57.6319885  16.2287998  31.0488548  57.1776009  15.6026249  30.4852333
  57.8181038  16.9740047  30.4776611  61.3827667  19.0173798  61.0531845
  60.8877678  18.7296124  60.2861137  61.9887352  18.2980328  61.2308884
  60.6788712  35.6952400  73.3748627  60.2290878  35.5370636  72.5448608
  61.2960892  36.4010162  73.1821060  12.8033800   2.7239161  57.4535141
  13.2623682   2.7703984  56.6148262  12.0583048   2.1465037  57.2871132
  31.8852863  32.4323311  61.7440987  32.1432877  33.3343239  61.5541611
  31.8119106  32.4000015  62.6979332  38.6253281  64.6435928  74.8460236
  38.2008133  64.6331177  73.9881744  38.3320351  63.8361778  75.2682724
  82.2778854  53.2588081  35.6159401  81.5291443  52.9722977  35.0929451
  82.9897003  52.6742554  35.3554611   1.9768748  11.4505529  79.7832260
   2.7783475  11.0590963  79.4358978   1.9377948  12.3164778  79.3771744
  72.6581268  44.1628189   8.7619295  73.5431747  44.5044098   8.6344976
  72.1514282  44.5352898   8.0402956  20.6813526  46.9676132  45.6551628
  21.0730495  47.6836967  45.1551361  19.9244556  47.3632698  46.0873604
  11.1348209  41.0589905  84.5023499  10.4789152  41.0781441  85.1992340
  11.1131649  41.9400177  84.1287766   6.8519945  12.2106438  52.7853050
   7.2277813  11.5306692  53.3444557   5.9850669  12.3741140  53.1567154
  31.1783867  29.5292511   0.0886038  31.8524628  30.1080265  -0.2675875
  30.6287727  30.1022625   0.6232180   0.6398918   0.4646862  85.2966766
   0.0884848   0.3712515  84.5198517   1.4763652   0.7853786  84.9594803
  77.9947739  38.6973076  88.8370667  78.7838821  39.1196518  89.1764221
  78.1653137  38.5874939  87.9016037  46.8930168  11.4467916  57.5050049
  46.1914291  11.3242235  58.1445236  47.4798317  10.7042007  57.6479645
  18.7094021  29.2590084   7.0007615  17.8962708  28.9453239   7.3965559
  19.4018116  28.8434029   7.5146399  86.7118607  13.3535480  24.2807484
  86.3117142  12.6105394  24.7324696  86.6813889  14.0664272  24.9187965
  55.3083611  10.2115927  53.5851212  54.8840675  10.1646080  52.7283821
  56.2251434   9.9990044  53.4103508  37.8060341  68.1730042  26.3057556
  37.6453171  68.9159393  25.7239876  37.2746315  67.4647369  25.9421597
  24.2188358  69.7195969  32.6357956  24.3739014  70.1145172  33.4938278
  25.0918636  69.6225967  32.2554741  73.3368988  42.5397911  11.3643150
  74.2709656  42.6883850  11.2171173  72.9024048  43.0543709  10.6841269
  55.5864906  13.0037689  25.2754097  54.7991562  12.4981308  25.0737534
  56.3064270  12.4706221  24.9382477  67.7644119  30.3025723  60.3439102
  67.2383728  29.6286793  59.9133492  68.6067581  30.2751884  59.8901100
  58.5991592  62.2068863  50.2540054  58.3600616  61.3850212  49.8255157
  59.1983261  62.6315880  49.6401215  10.7219534  63.7210159   8.2227516
  10.9638834  63.5481873   9.1326046  11.4687395  63.4074364   7.7126417
  17.9211807  60.1308556   1.2772105  18.3901215  59.2980042   1.3289884
  17.7979546  60.2784500   0.3395199  36.0804634  60.4055443  24.7983341
  36.4565315  59.6022148  24.4385185  36.7074471  61.0896301  24.5634975
  66.3109894  60.3073273  52.8083153  66.2829742  61.0065804  52.1552544
  67.0886688  59.7978630  52.5805130  37.0538788   1.6235644  -0.1893776
  37.1464882   1.9325187   0.7118453  37.9329224   1.3354185  -0.4353143
  52.8036041  24.1288090  45.3443565  52.7962685  23.3465328  45.8959160
  53.1103287  24.8269444  45.9229393  45.1108093  66.7367096  58.2096748
  44.6419334  67.2763977  58.8461685  45.8703690  67.2639236  57.9619904
  53.9490852  19.0741100  14.4505396  54.0387039  19.9000435  14.9259701
  53.0040283  18.9472427  14.3668652  82.0399246   6.5270944  43.2106667
  81.4314728   6.3500667  43.9280739  82.6396790   5.7811036  43.2156868
  37.1503677  38.6179085  23.7325230  37.3245277  38.4586411  22.8048744
  36.2649460  38.2816925  23.8711567   8.1316957  56.6124916  27.6709633
   7.1875029  56.5846901  27.8257523   8.5171423  56.2788124  28.4811001
  46.4831924  20.4791698  67.2364120  47.0806618  20.9482708  67.8188248
  46.1852684  21.1425953  66.6140442  33.4486275  70.7131042  84.7713699
  34.3453636  70.7978745  85.0952682  33.0058517  71.5025253  85.0828094
  22.8251667   3.8863294  77.6704407  22.6892548   4.2176552  78.5581207
  22.2355938   3.1353436  77.6022034  61.4215813   4.6160488  14.1527710
  61.9188385   3.8305368  13.9248705  61.5017662   4.6826091  15.1042814
  72.5515900  69.8502808   8.2997293  71.8259048  69.3697052   8.6980343
  72.2416687  70.7545853   8.2505808  29.8792381  31.0437870  69.8727112
  29.0789814  31.2457962  70.3574905  29.5790138  30.5486526  69.1105194
  50.8258743  16.5745869  29.7007122  50.9043388  15.9383640  28.9898720
  51.2225876  16.1402092  30.4558048  30.8062763  35.0130653  62.7538872
  31.3732262  35.7387772  63.0149269  30.1706028  34.9377708  63.4655647
  44.7644615  33.7398872  57.5735168  45.1579361  33.7302017  58.4460526
  43.9388771  33.2668533  57.6778183  40.8978119  69.0635376  59.5475540
  40.7492104  68.1399841  59.7505493  41.4782677  69.3713760  60.2436371
  70.0882034  59.5260201  37.5685081  70.4322586  60.2526016  37.0489540
  69.1598053  59.7303047  37.6806641  70.8059158  41.0358391  65.4208603
  70.9662933  40.6798248  64.5469208  71.5446014  41.6236076  65.5793076
  42.3574715  62.6454582  82.1126480  41.7583160  62.7193909  82.8554688
  42.3691826  61.7108002  81.9064865  10.8680182  20.2219505  66.2569351
  11.0761538  19.4615135  65.7141266  11.3522310  20.0758686  67.0696030
  66.3343201  17.1201782  10.0908823  65.9739380  16.5738449   9.3924007
  67.1813278  16.7227306  10.2929640  10.3729534  24.8617992  56.0193291
   9.5032930  24.8586025  55.6194382  10.9776821  24.8394527  55.2776833
  52.3360977  52.9709320  63.0984993  52.0671120  52.3988419  62.3797569
  53.1781425  52.6166725  63.3843193  82.3678207  11.3511333  23.5728168
  81.9655838  11.7868395  24.3242149  83.1138077  11.9060698  23.3452549
   5.4469385  47.9699440  54.4674873   5.2617831  47.9092102  53.5303307
   4.5858197  48.0548515  54.8767509   5.1319079  31.0589600  87.0726089
   4.3351126  30.5296917  87.0376282   5.5346875  30.8303890  87.9103165
  33.1090927  70.7147217  72.0254669  33.7678795  70.1064987  72.3605804
  32.9200211  71.2937088  72.7638855   5.0868502  47.6098328  13.6033916
   5.6987276  47.3700638  14.2993431   4.7727404  46.7726784  13.2617178
  65.2895660  65.6570206  64.0522461  66.2386322  65.6743546  63.9289246
  64.9471054  65.3128052  63.2273407  18.3030682  52.3479958  25.9646626
  19.2278118  52.1066513  26.0179195  17.8816967  51.5928307  25.5542965
   4.2038331  37.9536629  60.1240044   4.8432360  37.3360825  59.7690544
   4.6930614  38.4576454  60.7743034  37.0893173  43.9858055  87.9399033
  36.3588524  43.3829803  87.8011322  37.8684120  43.4310913  87.9006653
  60.0120888  21.5678959  80.9159622  60.3976860  20.8618526  80.3972549
  59.2530937  21.8522072  80.4067230   1.0196526  65.3785782  39.9174385
   0.3491736  65.7816544  40.4689980   1.5491008  64.8607025  40.5238419
  31.1070595  51.6400108  26.1898136  31.2982559  52.5733719  26.2820930
  31.8638458  51.2854996  25.7230911  71.1637497  59.0022926  65.2835999
  71.8409042  58.3334007  65.3849564  70.7524872  58.8013153  64.4429398
  50.4209747  52.9458199  38.5146561  49.7819633  53.1782494  37.8409576
  49.9416656  53.0306396  39.3388519  75.9544754  11.5708008   9.4030437
  75.4415283  10.7730112   9.5320663  75.3150177  12.2230244   9.1168013
  60.2639122  14.5003538   9.6444988  60.2428093  15.1570263   8.9483900
  60.9143105  14.8296766  10.2647915   9.7182827  16.7522564  70.8216324
  10.0503225  16.0619946  71.3956680  10.4385157  17.3797245  70.7601547
  53.2710571  69.6952972  39.3759804  53.0937195  68.7570953  39.3084526
  53.8909187  69.7702789  40.1015015  56.7996063  18.3336697  39.9410820
  56.0675507  18.0590000  39.3889198  56.4304810  19.0096855  40.5093956
  63.0487747  40.0146790  36.7023544  62.2972794  39.6134872  36.2658577
  63.5705833  39.2736549  37.0103035   6.2706513   4.2410107  13.0930595
   6.0602961   4.9300170  12.4627790   7.1463418   3.9465637  12.8426609
  17.4124928  46.8905296  11.7304707  16.7723026  47.5694580  11.5172958
  17.5675545  46.4386292  10.9010286  73.4830551   4.9728475  42.3149529
  73.6177826   4.8717699  43.2572174  73.3398132   5.9113531  42.1927986
  61.3758736  59.1317787  43.6160545  61.6133957  58.9453545  44.5243797
  61.5592308  60.0649300  43.5072250  18.6497364  39.2946091  13.3023949
  18.5164814  40.2096100  13.5498829  17.9163952  39.0946045  12.7206392
  52.8535004   3.8801847   5.6894107  52.9897575   4.4874310   6.4166784
  52.2805443   3.2022111   6.0476069  60.5078697  46.1415367   4.3849034
  59.6375351  45.9409752   4.7291765  60.5065422  47.0917091   4.2691522
  82.2073441  60.5357437  55.4064255  82.2708511  60.5443611  54.4513702
  81.2969513  60.7690582  55.5880394  19.0124359  14.0297337  10.8467293
  19.3851051  13.6456566  11.6403503  18.5762520  14.8266115  11.1483269
  11.1898851  10.4287653  71.3194885  10.4708042  10.8237009  71.8126221
  11.8811216  10.2966814  71.9683151  73.9477158  26.0371475  44.0015793
  73.2982101  25.4582157  44.4005966  73.6341934  26.1681290  43.1067162
  23.3610344  51.8336067  49.4882812  22.5629196  52.3580513  49.5531082
  23.0963917  50.9586220  49.7721748  55.8416481  22.2105255  47.0285034
  55.5128059  22.7868900  47.7183609  55.9436798  22.7819519  46.2673912
  69.2503128  39.8662148  47.7609062  68.6071472  40.5736389  47.7148399
  70.0826416  40.3095398  47.9250031  63.7008057  32.0547600   0.1532370
  64.4170685  32.0269203  -0.4811344  63.5491104  31.1381588   0.3835855
   1.6960025  28.4457378   2.6704209   2.1121304  29.2020016   3.0841055
   1.6225172  27.7990780   3.3723197  35.1417580  27.9681873  80.1874619
  34.8186493  27.7541790  81.0626984  35.3358688  27.1194801  79.7896576
  67.8285294  50.7018890  38.0476646  67.3931122  51.5526314  38.1013641
  67.9489365  50.4364853  38.9594193   5.0047450   6.3596506  60.4341011
   4.1467500   6.7374597  60.6273270   5.3627505   6.9185867  59.7444229
  45.2805977  12.2845469  32.6921768  45.0774689  12.9789867  32.0654984
  46.1940994  12.4388323  32.9328842  76.3747101  22.3204880  34.3796272
  76.4903259  21.7678890  33.6066437  75.6501083  21.9162140  34.8568535
  78.0817032  67.6286163  31.3035107  78.0969162  66.6726379  31.2576218
  77.3606949  67.8283005  31.9005947  25.2584343  59.8489265   8.9870920
  25.0688553  58.9788437   8.6360254  25.6181297  59.6824913   9.8583841
  19.6750622   6.8028116  73.0877914  19.0403194   6.2950563  72.5823059
  19.9332333   7.5145931  72.5021744  22.2500286   6.2311430  18.3391342
  21.6274929   6.0189180  17.6436901  22.0537052   7.1397977  18.5672474
  79.9401932   1.2581917  83.0097733  80.5597839   1.0594049  82.3077621
  79.0788727   1.1281984  82.6129608  69.3044205  68.1406555  25.5867672
  70.1881714  67.7729492  25.5867748  68.7333374  67.3916016  25.7571239
  85.0135193  68.8276062   2.4178741  84.6217880  69.6584854   2.1487837
  85.6841354  69.0741425   3.0548427  80.2988968  26.9288998  22.1920261
  80.5725784  27.0059376  21.2780266  80.5889206  26.0557537  22.4561062
  33.7264862  52.3265572  33.3650780  33.5859718  53.2594872  33.2034416
  34.6777000  52.2330475  33.4168205  68.2154465  70.4536362  80.7660217
  67.3532944  70.3694077  80.3587875  68.4526749  69.5594406  81.0117035
  72.8704910  58.8650093   0.8871080  72.3601913  58.4364738   1.5742623
  73.5334167  58.2191277   0.6429880  67.3765411  31.4991379  57.0215988
  67.8349228  30.8214741  57.5184822  67.0556564  31.0478954  56.2408066
  62.8775482  63.8630600  27.5528946  62.1223984  64.3626480  27.8633575
  63.1298866  64.2932892  26.7359104  75.5735474  25.2984867  86.8521500
  75.0071869  25.4680443  86.0993423  75.8430786  26.1674442  87.1496277
  84.8098755  23.4796143  57.5312729  84.2244644  24.1933937  57.7843399
  85.1575699  23.7454071  56.6799812  49.1097336  63.4063568  77.1537781
  49.2410698  62.9509506  76.3221588  49.9860420  63.4684219  77.5338669
  76.3240280  61.8181381  13.8179893  77.0853729  61.2863541  13.5860558
  76.6944122  62.6458740  14.1244211  27.4922810  65.8890839  37.1858368
  26.5580196  65.8467026  37.3897781  27.5875511  66.6856384  36.6636734
  50.5334473  21.8861179  30.2258434  50.7615814  22.7665043  29.9273319
  50.2639656  22.0043755  31.1366825  32.0627441  38.3200455  29.6575451
  31.6654243  38.9135094  29.0202312  32.0804558  38.8211823  30.4728870
   9.2036104  35.5332451  12.9335852  10.0850859  35.8146629  13.1786098
   9.2485495  34.5771027  12.9344120  59.7907982   2.2250783  78.5979843
  60.4417572   1.5941913  78.2906265  59.2844734   1.7463295  79.2542343
  72.2963638  31.5214481  71.1048660  71.9818726  30.8396149  71.6985245
  72.3801422  31.0821743  70.2585449  67.8211823  49.5257645  53.6243439
  68.4776077  50.2047195  53.4682808  68.2047272  48.7317085  53.2520561
  39.0751534   5.6711082  73.8397675  38.9220161   5.0062318  74.5111237
  38.5942612   5.3545399  73.0750732  38.0473595  25.0291519  83.4149475
  37.0951309  25.0642910  83.3240814  38.2027283  24.3157215  84.0339050
  20.4454136   0.8101758  72.7739868  19.7742214   1.1012429  73.3912506
  20.2433891  -0.1123524  72.6179123  85.8230667  43.0179214  80.7070007
  85.5475998  43.4229355  81.5293884  85.1490479  43.2727776  80.0769424
  65.1981201  20.7757206  83.7556000  64.9912415  20.4888668  82.8661423
  65.8393631  20.1382847  84.0697861  82.7131958  31.0037842  69.0352707
  83.0570908  30.8746510  68.1513596  82.9055176  30.1833744  69.4893265
  12.1446648  32.3486099  85.0207977  11.6042767  32.6208229  85.7624969
  12.5316048  33.1613655  84.6953201  76.1048279   3.7383018  69.6377106
  75.1689148   3.6897480  69.8324966  76.4709091   2.9412315  70.0209808
  34.6682472  23.6220760  69.5708237  34.9583359  24.4947815  69.8362808
  35.3791656  23.2897873  69.0227280   2.5107286  64.0596924  16.9468708
   2.2954495  63.4192619  16.2688351   3.4668636  64.0496674  16.9908848
  49.0224190   4.4823637  71.8988037  49.0198021   3.5294924  71.8079071
  49.0628395   4.6327648  72.8432465  14.0503998  49.1971512  10.3001995
  14.7837191  49.6208725  10.7462196  13.3720789  49.8713684  10.2609291
  78.8406906  56.1290703   8.0187702  78.1119843  55.5667038   8.2813883
  78.9098358  56.7753105   8.7214966  48.9052391  26.1263981   9.2151995
  47.9627075  26.2551880   9.1089916  48.9877663  25.2397079   9.5661983
  12.5549412  66.0438232  48.0593185  13.5119514  66.0589218  48.0476608
  12.3329811  65.1645050  48.3655281  27.1238556   9.7047262  62.8054390
  27.1232262   8.7732782  63.0259743  26.6624203  10.1232395  63.5321808
  51.3091278  11.1329365  11.4706669  51.3614349  12.0707979  11.2865105
  50.6435204  11.0599174  12.1546736  76.8908157  58.2122726  66.9021225
  76.3522339  58.9998894  66.9784317  76.3495026  57.5992203  66.4047470
  74.5060577  13.1829348  42.4023895  74.1967087  14.0543489  42.6497154
  74.9045029  12.8348866  43.2000961  19.2571125  60.8135414  56.0528946
  19.8146534  60.7666245  56.8295403  18.3731117  60.9342384  56.3995972
  40.5043602   7.0600705  70.2476578  39.8820038   6.3719864  70.4831238
  40.7222366   6.8830299  69.3325500   2.9532955  69.8766174  67.9092712
   2.3106923  69.3008728  67.4947662   2.4723501  70.2993927  68.6207352
  66.1051102   2.4318297  66.4411316  66.0144424   3.2568934  65.9643936
  66.0523376   1.7570589  65.7642746  35.8950958  40.4455986  55.7994003
  35.5135231  41.2236252  55.3928185  35.4645348  39.7111359  55.3618965
  31.5273705   1.7752317  54.5288239  32.1605873   2.4930027  54.5203018
  30.6937866   2.1885436  54.3040009   5.9902067  26.9345474  55.4393234
   6.1273875  27.2402611  54.5426865   6.3592958  26.0514374  55.4503784
   8.8488045  36.1736794  43.9215965   8.1119356  35.9771652  44.5000763
   9.5734749  36.3704338  44.5152054  75.0553970  52.1704407   5.1171699
  75.8095551  52.6825562   4.8252578  75.0432739  52.2824364   6.0677185
  45.8819122   4.4540000  32.1834869  46.3912315   4.3704352  31.3773594
  46.4400482   4.0709310  32.8602295  34.9829292  66.4940414   2.0920594
  34.5448265  65.6542816   2.2302811  34.2691460  67.1280441   2.0228713
   3.3590829   0.2567977  64.1976929   2.7370868   0.8151184  63.7311821
   3.8666456   0.8627210  64.7375717  60.1238594  60.0127182  46.3424263
  60.9528999  59.5549545  46.4816399  60.1109009  60.6943970  47.0142746
  -0.1738918  30.5215588  80.7472000   0.5968975  29.9725971  80.6031342
   0.1670077  31.4159698  80.7543106  73.6484833  21.2078075  40.9460030
  73.3768539  21.2834339  41.8607292  74.5603561  21.4988365  40.9420929
   6.9116869  67.8182449  41.0171013   6.7323098  66.9522400  41.3832817
   7.2174463  67.6433105  40.1270790  76.3848419  29.7032223  89.5577545
  76.3344574  30.5529499  89.1199722  76.5338516  29.0771828  88.8491669
  55.5860405  30.4793453  55.6773415  55.8991318  29.7603016  55.1285400
  56.0138130  31.2573929  55.3197327  74.5993576   4.0958557   8.6140842
  73.8110199   3.8728309   8.1190891  74.3981705   3.8382127   9.5137377
  45.1096954  61.1171227  25.5458221  44.4125633  61.2058029  24.8959198
  45.5650635  61.9588089  25.5249691  54.3587570  21.4416599  26.1008148
  54.7360420  21.0877056  26.9061718  53.5525475  21.8733139  26.3835430
  83.4555054   8.0526114  76.0290222  83.5762329   8.9999161  75.9636612
  83.8561020   7.8172879  76.8659058  16.3989944  71.6795654  48.5557938
  17.0259132  70.9974213  48.7963753  16.3296833  72.2276459  49.3374825
  83.5329514   1.0068197  39.6344948  83.2009888   1.5243410  40.3681145
  82.7655563   0.5395484  39.3043633  62.6244926  71.1759109  13.2634230
  62.3404121  70.9053192  12.3903179  63.0551453  70.4016724  13.6258278
  35.4812851  43.4760132  52.9326668  35.1351776  42.5942307  53.0701332
  35.8062592  43.7425270  53.7926636  14.5763092  16.2432747  15.9402208
  14.2709751  17.0877190  15.6086845  14.2334852  16.1982517  16.8327885
  13.8873024  18.9049683  52.7596016  14.0170317  19.7425728  53.2043762
  13.2179670  18.4592381  53.2787819   0.6544139  71.7838516  65.8562775
   0.1766244  71.0849533  66.3029251   1.4759734  71.3756409  65.5830841
  83.8559570  57.3490601  27.2475796  82.9712906  57.0980530  27.5132751
  84.4309616  56.7991447  27.7797394  47.6036758  18.1480923   7.2743945
  48.5255241  18.3883419   7.3677316  47.1241760  18.8922882   7.6383748
  47.8961525   4.0382047  34.0853806  48.2210236   3.5611069  34.8489685
  48.6751213   4.4492040  33.7105217  18.3230801   8.2365398   1.9955008
  18.6045074   7.4087691   2.3851485  17.4012165   8.3155384   2.2407720
   5.5278792   8.4511662  78.2574844   6.3645267   8.1727705  77.8849945
   4.8769312   7.9005036  77.8224335  86.3111267  55.8297310   3.0133958
  86.2151108  54.8971062   2.8204618  86.5438995  56.2253571   2.1734383
  25.7085114  48.2982216   1.1387095  26.4877224  47.7444191   1.1873298
  25.3560410  48.2943954   2.0286427  11.8039112  57.0963821  71.4574432
  10.9638443  57.0191689  71.9097290  11.6070404  56.8753967  70.5471497
  53.3993073  25.2747688   6.1498213  53.4151115  24.9784489   5.2397795
  53.8013382  26.1431198   6.1259813  10.0258560  43.6912460  48.1454391
   9.6373158  42.8580360  47.8789177   9.3752394  44.0835419  48.7277069
  13.2852669  27.4439964  25.8676376  13.8758478  28.0433502  25.4113274
  13.7023096  27.2968559  26.7165527  84.0194321  12.5259724  52.3780403
  84.6031876  13.2841215  52.4039192  83.2907333  12.7651110  52.9507866
  36.8820877  50.6164589  82.6416397  37.4018097  49.8295326  82.4777374
  36.0324821  50.2859039  82.9334183  26.4462967  28.1632481  73.9314423
  26.8889217  27.6000214  74.5663376  25.8400154  28.6857090  74.4565048
  66.7255783  58.3889580  64.2403870  65.8152390  58.1124458  64.1352386
  67.1805344  58.0053635  63.4906464  20.7797852  38.7411690  18.6027279
  20.8468132  38.8315735  17.6521664  19.9511833  38.2825928  18.7418709
  79.8737259  61.1009254  32.7569923  79.4482422  61.8300400  32.3057861
  80.1523056  60.5140228  32.0540161  82.7675171  22.7629566  37.5811615
  82.5099869  23.5985680  37.1917229  82.8845673  22.1763840  36.8338585
  52.7258606  64.2327042  47.5037079  52.3316345  63.3705254  47.6358643
  52.5607262  64.6996765  48.3227921  51.9505997  39.9596100  81.7242661
  51.3681717  40.5288620  81.2213135  52.7756233  39.9723091  81.2390823
  33.5321617  60.8616943  76.2218399  33.8777122  61.7079124  75.9376907
  32.5816154  60.9611397  76.1688766  18.4313507  53.0470848   3.6886215
  17.9840603  53.8303795   4.0089583  17.8031101  52.3385353   3.8282714
  82.5655365  54.7902489  23.8749218  81.9380646  54.7968483  24.5977459
  82.6131210  55.7030449  23.5907230  40.9563980  36.3353691  13.7240124
  40.3291931  35.7712746  13.2716370  41.0869026  37.0737877  13.1290836
  14.6522102  22.1964626  16.7307987  14.9653330  21.2973976  16.8301353
  14.6302109  22.5423813  17.6230373  51.3421593   0.3841381  23.6990108
  51.4619713   1.2868338  23.4040222  50.5960732   0.4247004  24.2972927
  40.9998703  64.2622299  35.2245712  41.1799850  63.3420219  35.4169350
  40.1396332  64.4239731  35.6119537  28.4021568  31.9013329  62.0054970
  28.7639828  32.6678848  62.4501457  29.0311909  31.2021275  62.1834297
  27.6274815  57.7508850  76.8831024  27.3707333  56.9197197  77.2824402
  26.8385372  58.0547752  76.4342651  15.1769953  52.6067352  25.5080452
  16.0725632  52.9349480  25.4276276  14.7569857  53.2055550  26.1254902
  65.4725647  54.6187592  47.3348083  65.0031815  54.0687027  46.7076302
  65.8963318  53.9980583  47.9275818  57.7119865  35.5238457  62.1176758
  57.2585945  35.2559471  62.9169846  58.5537910  35.8629379  62.4219971
  33.9807434  26.7890892  77.5834274  34.7729988  26.3119736  77.3366013
  33.2694778  26.1664810  77.4327850  76.1396790  61.2305717  72.3467178
  76.1796646  60.6170311  71.6130981  76.3620453  60.7021751  73.1132507
  24.8679447  48.9622192  72.5851288  24.6220341  48.1128387  72.2186432
  25.5456047  49.2908440  71.9943466  42.4354210  50.1271019  20.6509933
  41.9819412  50.6498604  19.9896984  41.9806252  50.3285561  21.4688015
  53.3878517  27.4785595  23.6843662  52.8551903  28.2298775  23.9451828
  52.7523918  26.7867851  23.5003223  30.2941704  44.5182152  59.9479218
  29.4855785  44.0101814  60.0135765  30.4021244  44.6764641  59.0100861
  77.2547150  61.7092171  24.3814068  77.0474319  61.0670128  23.7025585
  77.3843155  61.1873207  25.1732769  79.9847717  11.0825310  41.3823128
  79.1256332  11.3203087  41.0336342  80.3755646  11.9158449  41.6451797
  74.5442047  42.2823181  25.1378345  74.5945587  43.0357666  25.7260647
  73.7841263  41.7885628  25.4455929  75.0257950  53.2077980  77.5068665
  75.0886078  53.1313095  78.4589386  75.3463516  54.0892448  77.3157349
  10.6929522  39.8101807  87.0577087  10.5977335  38.8581619  87.0863647
   9.9021587  40.1428642  87.4822083  60.5966492   4.4202881  23.1923981
  61.3368912   4.6029859  22.6136990  59.8395767   4.7875252  22.7360935
  61.0858116  14.0207596  53.9981461  60.3552475  13.4519691  53.7552681
  61.8077583  13.7357416  53.4379807   0.6608928  57.5086594  46.8399162
  -0.0057362  57.5669136  47.5243454   1.4222285  57.1291924  47.2787857
  63.1711197  66.8160172  40.8802986  63.7984924  66.9434052  40.1686745
  63.2924385  65.9045486  41.1462555  56.9286156  59.5512810  75.7966461
  56.2981262  58.8706665  76.0321960  57.5686989  59.1036835  75.2433167
  17.9267960  46.3631744  28.4446774  17.2920780  46.2167015  27.7433147
  17.7928410  45.6304207  29.0458126  60.0705795   0.0999530  55.6035538
  60.0009384   0.8338504  54.9930000  60.3822517  -0.6290489  55.0672264
  16.7647343   2.7467384  32.1802788  17.2072964   3.0379150  32.9775162
  16.4979305   3.5564611  31.7450809  55.1355438  66.2579498   8.8699236
  54.2121849  66.4587097   9.0226851  55.1995354  65.3117218   8.9994602
  45.0186234  37.4967194  74.2752228  44.2904243  36.8963814  74.4350891
  44.6952972  38.3487587  74.5680084  67.1203156  42.7970810  53.7528496
  66.9579849  43.5463943  53.1797752  66.3110809  42.6996384  54.2547226
  45.6097527  51.6743660  29.7475510  45.1452293  51.9001198  28.9416428
  46.3039398  51.0789185  29.4651031  29.2010040  62.9636154   6.9188309
  28.6732616  62.3304138   7.4054279  28.8921165  62.8892441   6.0158973
  70.6466675  28.9320869  35.0909996  70.2695541  29.1457176  35.9444542
  70.0051575  28.3492432  34.6848068  14.1930609  67.1206360  29.4923058
  14.1071987  66.4484024  28.8163185  13.8006468  67.9024887  29.1037846
  25.1578598  36.1123238  87.0580978  24.2706280  35.8444214  86.8187637
  25.6651382  35.3007202  87.0439606  53.5172997  13.4636755  66.0289993
  54.0352440  13.4079237  65.2259674  53.0089607  12.6527319  66.0429230
   5.9640598  11.8471746  38.1249237   5.5097213  11.7924490  37.2842026
   6.3632627  10.9845772  38.2380333  47.8711052  65.1250610  48.3616791
  48.7097282  65.5862427  48.3778076  47.8167953  64.7575684  47.4795074
  29.8266697  52.3529091  68.3196030  29.6158772  52.4861794  69.2437439
  28.9775181  52.3530312  67.8778229   8.5336084  36.0529594   8.1775923
   8.9344206  35.4761887   8.8279142   7.9074140  35.4950714   7.7162094
   4.4677062   7.6709466  45.2644157   4.1215501   8.2336254  44.5717392
   4.8357596   8.2790785  45.9054642  27.7507725  40.0786209  63.2827454
  27.6228924  40.9335442  63.6938286  27.1218262  40.0632591  62.5613441
  49.6569633  45.6599541  87.2149124  50.0990219  44.8249245  87.3683319
  49.3671989  45.6137047  86.3037949  46.2291870  27.3747120  37.9920387
  45.7129707  28.0642586  38.4095078  46.9609413  27.8372936  37.5836449
  66.2970047  62.9386635   7.8021026  67.1316757  63.3622360   7.6017637
  66.5269165  62.2268181   8.3993063  56.7156258  65.0096283  34.7974472
  57.6298599  64.7788086  34.9621506  56.7607803  65.7500076  34.1924438
  31.5121746  41.6471405  29.7707481  32.3894081  42.0060081  29.6369247
  31.6428871  40.9122276  30.3699570  18.5917568   0.8459620  28.6640053
  18.0062695   0.5742681  29.3708420  18.1293373   1.5646615  28.2328796
  46.2932777   9.9663467  17.1844025  46.0818138  10.8888683  17.0413342
  46.8586617   9.9672136  17.9567852   9.8581839   3.4476671  80.2856903
  10.5772791   3.7045550  80.8628693  10.2776175   3.2749765  79.4427872
  36.3994522  48.1024742  12.4024992  36.1669807  47.5372467  11.6658144
  36.8873444  48.8242416  12.0059595  86.0526733   6.7038975  85.3477554
  85.3867416   7.1498380  84.8244019  85.9217987   5.7743936  85.1603394
  76.2495956  28.9848995  66.8858109  77.1512604  28.8039913  67.1513138
  75.7135849  28.5899792  67.5735321  73.6718750  69.3940506  28.3631592
  73.1724091  70.0198441  28.8877068  74.1123428  69.9312286  27.7046318
   3.4363840  62.2949638  76.4736557   4.1452990  62.5492554  77.0644226
   3.4750724  61.3388214  76.4507217  73.7687607  22.7752209  63.4953842
  72.8731537  22.5211926  63.7180672  74.2434311  21.9466076  63.4296837
  46.4011841  32.5380783  86.1282578  46.9008064  33.0945625  86.7257004
  45.9580956  33.1523170  85.5429306  45.4609947  69.7563934   3.8733675
  45.4372902  70.1564713   3.0041101  45.8833771  68.9085846   3.7353854
   9.4030609  39.8600655  21.2627678   8.8217220  40.4030113  20.7303333
   9.5761395  40.3877029  22.0424328   1.1918248  13.8359823   4.5190005
   0.7362038  14.5701237   4.9309216   1.1718891  13.1417427   5.1776853
   1.5944968  38.3668022  85.4046555   0.9397955  37.7056541  85.1799774
   2.2827766  37.8784866  85.8563766  30.7567844   1.6771439  24.8806248
  30.2826328   1.0419071  25.4171753  30.5303802   1.4461128  23.9797382
   3.1030395   4.5265102  49.5224304   2.7398725   4.6079268  48.6405487
   2.3390551   4.5457382  50.0987892  59.8880424  37.4588699  40.9790764
  59.0567741  37.0388756  41.2000465  59.9242058  38.2305260  41.5442924
  13.4284477  46.1406593   6.4667187  14.2668047  46.0582237   6.0121932
  13.5998945  45.8079033   7.3476906  25.0958481  52.0951958  43.5512390
  25.2670288  51.9731636  44.4850655  24.2014999  52.4342918  43.5139885
  24.4603043  55.8067627  11.0517282  24.7352695  56.7023392  11.2481108
  24.9565086  55.2640572  11.6644955   1.0571115  69.5595016  50.2531662
   0.6833309  68.7220612  50.5274239   2.0010891  69.4492493  50.3671074
  49.9698029  25.1039276  25.4147034  49.5622864  24.2410774  25.4898758
  49.2593040  25.7205734  25.5912418  39.1434631  66.1926575  27.7374420
  39.5711060  65.5767288  27.1424770  38.9093094  66.9373627  27.1835251
  30.1426620  41.1225471  42.4546700  29.4778652  40.5867043  42.8872757
  29.6625080  41.8846550  42.1308250  67.3341217   1.4132670  86.4786758
  67.9431000   1.6545700  85.7807083  66.6599579   0.8946394  86.0396347
  32.7417183  59.6670609  22.4318218  32.2410088  60.3162384  22.9258804
  32.1777496  59.4420776  21.6918507  28.3964329   8.7877932   1.7198546
  27.6749992   9.4162264   1.6908946  28.2137928   8.2487783   2.4894893
  58.5795631  59.5486374  50.3742065  59.2699661  59.4722748  51.0327988
  58.2582779  58.6543312  50.2592125  36.2398987  51.1685982  73.3601837
  36.8458977  51.2108841  74.0999146  35.9280434  52.0673637  73.2543564
  10.4925346   4.5879912  14.8379774  10.3206244   3.7379284  14.4329205
  10.6311951   5.1813860  14.0998125  17.1833820  55.8111267  38.8602638
  16.6542130  56.3570938  38.2787743  16.5565681  55.2061501  39.2569237
  12.6850882  54.6231575  16.8561363  11.9478893  55.1278572  17.1997204
  13.3909254  55.2630234  16.7634144   6.6420021  44.9646873  57.7098694
   7.3898749  44.9087868  58.3046761   6.1223540  45.6947098  58.0464172
  51.3303680  14.2366819  89.1327057  50.6268616  14.1480265  88.4897079
  51.6105804  15.1488056  89.0569153   9.1522627  39.4999809  37.5337524
   9.7274342  39.4117661  36.7737312   9.0198669  38.6025925  37.8393631
  55.0137672  44.3023491  41.3983002  54.7821045  45.2070961  41.1885338
  54.9385414  44.2506065  42.3511353  26.7205276  50.8086853  85.0738373
  27.1364269  49.9563293  84.9444199  25.7840004  50.6147461  85.1129913
  39.2912636  47.2023697  63.8724251  38.4607430  47.6309547  64.0792618
  39.0493965  46.4760780  63.2977676  30.9601345  65.4815826  15.9248533
  31.6082134  64.9911880  16.4305630  31.4609261  65.8726578  15.2089605
   0.0254150  11.8379030  29.6967163   0.8309824  12.2771959  29.4241104
   0.1409545  11.6862373  30.6347351  30.6184559  34.7930641  13.1111526
  30.1577473  35.4008331  13.6895933  31.0976791  35.3569450  12.5040197
  33.6646309  54.8564110  86.2045898  32.7387466  55.0677567  86.3241806
  33.6756554  54.2288971  85.4818649  65.1302032  20.0398159  32.7617950
  64.2783661  19.6442928  32.9466438  65.7076797  19.6937580  33.4422340
  39.3498039   6.9584737  13.3406515  39.5508003   6.6178851  14.2123356
  38.3942566   6.9359045  13.2891569  21.7524414  41.7666626  57.9479599
  20.9069767  41.8203430  57.5023842  21.6075134  41.1468010  58.6628036
  77.4197540  12.7205601  72.0636063  77.1988373  13.6509809  72.0218658
  77.2848511  12.4832811  72.9810638  44.6241951  47.8690186  41.4742737
  43.8561821  47.5551605  41.9516411  44.4814644  48.8111877  41.3838310
  46.4318886  64.6699066   5.1210947  46.7034225  64.6324005   6.0382066
  45.5203514  64.9602814   5.1528721  59.1004333  46.2033653  31.4709148
  59.7934227  45.7389870  31.9403286  58.3018112  45.7206039  31.6839294
  77.7622070   8.4445047   7.8589354  78.6516571   8.4040155   7.5075445
  77.8397141   8.0973015   8.7475719  42.2138443  50.3632660  34.1430092
  42.3375854  51.3069229  34.2451477  43.0141907  49.9768906  34.4985199
  65.5675430  15.9977627  28.0944519  66.3766403  15.4897814  28.0347977
  64.9507675  15.5331221  27.5288353  41.9629898  27.1022911  66.1262970
  42.0505104  26.4125652  66.7842102  41.2156334  26.8312893  65.5931473
  56.0369568   4.5143113  79.5065765  56.7421989   4.9466996  79.0250092
  56.2582588   4.6493616  80.4280014  60.5625343  66.1522217  50.7032509
  59.7010117  65.9553070  50.3355103  61.0566711  65.3383560  50.6048546
   2.4600677  58.5091438  50.7849121   2.1676614  58.3561707  51.6834259
   2.2867873  59.4379425  50.6314926   8.6893435   7.8589807  25.2643661
   7.7975402   7.5115142  25.2507191   8.5849876   8.7767649  25.5153904
   9.3647652   7.0395536  72.4802933   8.6786175   7.6957097  72.3582611
   9.9189711   7.3985724  73.1732559  32.6655960  51.3363800  17.3814240
  31.8220367  50.8927612  17.4699726  33.1561432  51.0760040  18.1610394
  71.5458298  40.5221939  22.0267487  72.1482544  39.9016151  21.6166325
  71.5288239  41.2699051  21.4293652  79.9314651  47.6951790  10.3731079
  79.0830383  47.2628326  10.2757540  80.2675552  47.3772202  11.2110682
   6.7509923  17.2946110   1.1992776   5.9607368  17.7147522   0.8598526
   6.4286456  16.6582947   1.8375763  23.7878761  34.1305504  14.1524572
  24.0661087  33.9452553  15.0493879  23.3225746  33.3403778  13.8779516
   0.2313136  37.0682831  70.5692825  -0.4748923  37.6444054  70.8618393
   0.9149360  37.6640167  70.2626953  30.3427734  34.9463997  87.1038818
  30.6111336  35.4452362  86.3322754  29.5834980  35.4202614  87.4432831
  37.4496880  68.3260727  32.0264130  36.4996262  68.3044586  32.1410828
  37.5925674  67.9797287  31.1455860  17.7560101  45.5051231  61.9644775
  18.0602169  46.4121094  61.9971008  18.0147724  45.1967964  61.0960274
  77.1715012  62.8625450  36.2419815  77.8794098  62.9412384  35.6025200
  77.2620316  63.6377602  36.7961235  19.6326981  33.4700508  73.6012344
  20.4663162  33.1384506  73.2675400  19.4726448  32.9600258  74.3952713
  19.0767441  65.6964340  81.7246628  19.0394363  64.7592316  81.5336227
  19.3143749  65.7428207  82.6507339  33.6975479  21.1963558  78.3213425
  34.5013847  20.6790371  78.3708954  32.9932709  20.5503845  78.3756332
   7.6268306  11.9184542  76.0369339   6.9296350  11.3485022  75.7124252
   7.6564918  12.6412859  75.4101486  44.7813797  37.1315918  33.5378723
  45.4844246  37.2629356  32.9017105  44.0082321  37.5138855  33.1227531
  12.8654814  68.2081909  31.8864918  13.5978203  68.1856461  31.2705345
  12.3917170  67.3922348  31.7252846  27.0402241  32.7624817  56.4140358
  27.7556496  33.1985474  56.8768997  26.4794350  32.4186745  57.1094093
  18.3739796  52.9575310  68.6344299  18.4207115  53.9012909  68.7872772
  19.1457329  52.6046753  69.0772858  41.9773102  46.6720505  66.9497986
  42.1051369  46.1340904  67.7311401  41.0316200  46.8143349  66.9090576
  57.3569946  14.2306843  50.7888641  58.0314140  14.4409409  50.1429710
  57.0421524  15.0821896  51.0922546  72.3456116  44.9676857  30.5618458
  72.1118927  45.4117928  31.3769398  71.5053864  44.7477570  30.1594849
  52.9817810  44.3509827  11.4805393  53.5159607  43.5890312  11.2562428
  52.3323212  44.4029770  10.7793036   4.4576774   3.9974034  19.9324551
   3.7023232   4.3631849  19.4721565   5.2014942   4.1870375  19.3606110
  46.4361610  45.0177307  47.8929901  46.1564255  44.2217407  48.3450737
  46.6054153  45.6453323  48.5956268  16.7556591  24.0542908  64.9476013
  17.0744858  23.4867954  65.6494064  17.3425522  24.8102436  64.9655914
  50.8202438  28.5317783  36.6989059  49.9302406  28.3828468  36.3796082
  51.1353645  27.6618900  36.9443092  21.7260456  33.2009315  30.6036987
  21.4543686  34.1184082  30.6293774  20.9254017  32.7088814  30.7855930
  64.4518051   2.2480264  48.1264839  64.3775940   1.8409292  47.2633514
  63.5900993   2.1243918  48.5244980  38.8476868   7.2234774  33.1217384
  38.9033699   6.3835020  33.5773392  38.5554123   6.9980149  32.2385750
  80.7673340  68.6188431  54.9898529  81.1988144  69.0522842  54.2535248
  80.3536682  69.3308258  55.4779129   5.8971152  42.6735687  84.7434692
   6.5229020  43.3176460  85.0748062   6.3868718  41.8513603  84.7248154
  16.7716637  53.9746628  82.1886215  15.9672489  53.4860077  82.0143738
  17.4743881  53.3826904  81.9203339  48.3732948  34.0011864  71.1937790
  48.4047775  34.3186951  72.0962372  47.4392052  33.9393196  70.9940948
  27.7455883  44.4215813   3.6634381  26.8645382  44.6219444   3.9794090
  27.9047832  45.0655746   2.9733937  52.0340576  25.1317577  70.8089676
  52.3766060  25.8951721  71.2738266  51.8155708  25.4604797  69.9369431
  15.2671957  43.1555214  29.2318554  15.6175175  43.9968109  29.5246639
  15.0749645  43.2862358  28.3033123  46.7995033  55.1457100  86.4986877
  47.6013641  55.0059738  87.0024033  46.1920624  55.5451508  87.1213379
  84.9004211  61.3201523  83.2640076  85.8252258  61.1064529  83.1402969
  84.8959961  62.2551231  83.4690399  64.3661804   7.3161731  54.3486137
  64.2111435   8.2266045  54.6002274  64.9717712   6.9842992  55.0114479
  44.1472855  55.7794495  51.6022797  44.2573776  55.1773148  50.8663826
  44.6724472  56.5442390  51.3666115  10.9881048  47.7024345   8.7100763
  11.5993061  48.0599213   9.3541803  11.3147535  48.0196609   7.8681135
  78.1525650  34.8393059   6.1524048  77.4853287  35.3371582   6.6248255
  78.1931686  33.9993515   6.6096358   9.9707003  69.3290634  41.6538773
  10.1183100  68.3948364  41.5066795  10.4183626  69.7599182  40.9257355
  43.7804565  32.1450386   6.7676086  43.1380577  31.4733791   6.9965730
  44.6229057  31.7661686   7.0185475  82.3414917  53.4524765  31.9721489
  82.6026230  53.2422943  31.0755653  83.0297470  53.0716438  32.5175896
  32.6824417  29.3935280  79.7873840  33.5478325  29.0356197  79.9854660
  32.6463928  29.4177094  78.8311691  23.5077362   0.8395436  23.8210373
  22.8243542   1.1112695  23.2083492  23.0687256   0.2304489  24.4147587
  55.5739288  17.4476280  36.9297028  54.9015541  17.7414989  37.5443420
  55.4318886  17.9798203  36.1468697  33.6255226  30.3752422  61.2194405
  33.2067070  31.2169952  61.0397797  33.0777702  29.7337742  60.7669830
  85.3581543  50.8915024  66.6370392  84.8690567  51.1090584  65.8435135
  84.8293304  51.2495193  67.3500519  85.9688034  45.7043648  82.6308975
  86.0481415  46.2145996  81.8249207  85.0256500  45.6360664  82.7792740
  11.9634686  17.6625519  76.2715149  11.2105169  17.6565533  76.8624954
  12.6984749  17.3828526  76.8171921  39.7020683   7.6280441  22.0455360
  40.3729935   7.3484087  21.4227219  39.0249710   8.0320797  21.5028343
  46.8190498  24.6214886  80.3846970  46.2981071  25.3590164  80.7023544
  47.1605568  24.9155750  79.5402374  56.0583382  16.2068119  28.5709343
  55.5025749  16.8204288  28.0904827  56.8866081  16.2076988  28.0911446
  50.1515121  39.9484329  88.1746292  50.6238327  39.3097267  87.6405869
  49.2584343  39.6072769  88.2220764  75.6992722  60.2576332  76.3605042
  74.9752655  59.6317520  76.3425522  75.2944565  61.0983315  76.1470032
  76.3893661  47.7858849   0.8387554  76.6841965  47.7242546   1.7473297
  75.9920197  48.6543274   0.7742701  80.1148071  51.9754295  22.2907314
  80.9423599  52.4488029  22.2052593  79.5416946  52.5784988  22.7641029
  16.7624702   7.4145565  14.8860807  17.1934471   7.3184156  14.0368176
  16.2825661   6.5949736  15.0052767  19.0614529  59.9539757   8.0617142
  18.7831211  59.5424767   8.8799019  20.0096416  60.0490570   8.1518860
  66.8334503   2.1309285  17.8986664  66.3910294   1.7780334  18.6706486
  66.7401047   1.4469838  17.2355404  54.9016800  31.2478848  83.4622955
  54.4223557  30.4202442  83.5009003  54.2775345  31.8688393  83.0866776
  21.6194305  43.7649879  23.8106899  20.8999901  44.3647194  24.0080700
  21.6544209  43.1764984  24.5648022  61.5109558  50.4190216  23.1236305
  60.7048416  50.8488693  22.8378983  61.5441628  50.5752983  24.0674038
  63.0473099  30.4904213  80.9270325  63.4849548  30.1343880  80.1537704
  63.7089767  31.0424080  81.3438568  54.2591171  54.7112045  53.2509575
  53.9607506  53.8116302  53.3850403  53.8743248  54.9688225  52.4132233
   3.6682906  49.3592148  63.0245056   4.2386785  48.6549492  63.3325691
   4.0241280  50.1501236  63.4295654  21.9793720  27.6085892  81.1231003
  21.1586819  27.9138832  81.5097504  21.9982948  26.6702499  81.3112335
  29.1730118  13.6005507  14.5186195  28.8635101  14.0297756  13.7209940
  29.9649925  14.0819912  14.7578135   3.9126670  69.7111206  23.1002655
   3.4078710  69.8396606  22.2972145   4.6858659  70.2641525  22.9882412
  68.1131058   5.9422331  30.3295116  68.9565125   6.3205333  30.0809555
  67.8048325   6.4952021  31.0474415  73.4077606  33.1598969   4.6639953
  74.2527390  33.2616234   4.2259359  73.2917862  33.9746361   5.1528535
  12.0967951  68.6200333  39.8029366  11.9092417  67.9729843  40.4829216
  11.9539957  68.1514969  38.9805527   7.5730186  14.3753157  74.5735397
   7.3845110  14.8560228  73.7675476   8.2546721  14.8900442  75.0055542
   7.1363873  33.4619980   7.8240414   6.9820995  33.0497322   6.9740624
   7.5863838  32.7910995   8.3374901   7.0657759   8.1836967  41.8897400
   6.8036304   7.3376102  41.5269051   7.0856895   8.0425835  42.8362694
  34.4419098  10.6601133  81.1859360  34.0782433  10.0314436  81.8094330
  34.2927322  10.2609968  80.3287964   3.2803450  61.2034721  42.9431229
   2.7595906  60.7155037  42.3052101   3.8008354  60.5351486  43.3888474
  16.7886581  36.4769096  22.5990219  16.9617691  37.2647057  22.0836182
  17.3976688  35.8250465  22.2520180  47.1556282  66.2420425  22.2030773
  46.6572113  66.7435532  22.8482876  46.8470116  66.5665588  21.3571033
  66.5816879  39.4896355  44.2443810  66.6463013  39.2554970  43.3185120
  66.0821686  40.3061409  44.2506561  78.9011688  39.0619469  86.2124557
  79.8278046  38.9907341  85.9833069  78.5444260  39.6829262  85.5773544
   7.3915367  47.6017151  27.2250748   7.9942770  47.1520691  26.6328297
   7.6992946  47.3699837  28.1013279  42.6350060  20.0571175  63.7376099
  43.3113937  20.7327976  63.7843895  42.4799538  19.8099098  64.6492462
  59.3514862   3.5747666  20.4616165  58.4551125   3.8327131  20.2466545
  59.3141022   2.6215293  20.5401840  38.5535507  58.4094849  59.1428909
  37.7399292  58.8326416  59.4171066  39.1897659  59.1229439  59.0935593
  41.3577957  16.9444389  67.4414139  40.7096329  17.5892353  67.7248917
  40.8420830  16.1714249  67.2118073  15.6765862  39.2447433  23.1779728
  14.7261963  39.2185097  23.0670567  15.8444538  38.6879311  23.9382439
  52.3945580   5.7462449  66.3786850  52.5761871   5.3104458  65.5460281
  51.6993561   6.3718715  66.1749344  35.5051689   4.3324289  17.5481377
  34.8896179   4.5848126  16.8599300  34.9751549   3.8396301  18.1746063
  83.7934189  22.3044281  40.1538582  83.2470779  22.9667549  40.5770187
  83.6843033  22.4669151  39.2168808  80.1999588   9.6723499  69.7575378
  80.2956467   9.0070009  70.4389954  79.9529648   9.1797676  68.9748535
  50.3832817  70.6729126  52.5747528  50.0230980  70.0172272  53.1718979
  51.3006935  70.7556381  52.8350220  16.3596268  42.9307709   2.9467163
  15.5266075  42.5145149   3.1681719  16.7858410  42.3126984   2.3529508
  77.0607834  25.9564743  51.4668922  76.7767258  26.5290985  52.1793823
  76.7247314  26.3753204  50.6745148  38.5536232  44.7023773  66.2350464
  38.8838501  44.2189865  66.9923553  38.8277931  45.6063309  66.3897629
  -0.1704969  25.8334503  66.4201279   0.5841388  25.2487087  66.4896622
  -0.3705121  26.0749359  67.3245163  15.2735395  37.9960861  15.8431978
  14.4117155  37.6030312  15.7053576  15.5544214  38.2697144  14.9700050
  85.4996262  65.3590927  11.1899891  86.0292816  64.6920776  10.7531939
  84.9371567  65.7087326  10.4988928  23.6944466  58.6975021  44.6014252
  23.3642654  59.5778656  44.7808075  24.2818947  58.5083275  45.3331032
  85.0826492  66.9949341  33.9885864  85.4521942  66.2277069  33.5515060
  84.5097733  66.6327515  34.6645012  35.0170631  62.1566124  79.5344086
  34.8778458  62.8660355  78.9070587  34.1896858  61.6753006  79.5391769
  72.8415756  26.7485542  15.5299845  72.1834869  27.4220161  15.3579435
  72.3671265  26.0656109  16.0040302  85.4619064  18.2157688  48.9582863
  85.7301636  17.4436340  49.4563560  85.4620972  18.9264088  49.5995522
  66.3186188  18.2903709  63.0955124  67.1637955  18.0592098  63.4808388
  66.3323212  17.8861408  62.2279625  57.5784988  34.0524216  14.5189772
  57.5379829  34.9364014  14.1540527  56.6822014  33.8678970  14.7997484
  79.7282944  40.0051041  40.6075020  80.5435257  39.5632896  40.8450546
  79.0505447  39.3409195  40.7330055  33.0107422  10.8596296  26.6089668
  33.7726707  10.6594048  26.0652676  32.3572006  11.1906176  25.9928837
   6.1862588  53.0083084  17.9765453   5.9069138  53.8616638  18.3081760
   6.1460052  52.4303589  18.7385101  24.7014046  51.0914230  34.8615265
  23.8475418  51.1365891  34.4312820  25.2610836  50.6320801  34.2354317
  84.5967636  64.0204620  28.5613136  84.8527527  64.9423752  28.5893345
  84.9787750  63.6416435  29.3530178   4.3059416  34.6393623  14.2553177
   4.6151180  34.5638504  13.3525772   3.6273468  35.3135490  14.2204733
  61.6998367  71.0912552  27.7606754  61.1649017  70.9230423  26.9849300
  62.3167992  70.3599777  27.7893372  36.3768959  54.0849648  42.4156189
  35.4750900  53.9830475  42.1113396  36.4175758  53.5695229  43.2211609
  65.0024872  28.2244358  19.2689381  64.4390335  27.5341072  18.9193726
  65.1975327  27.9444790  20.1632633  29.5769215  41.3551064  60.7912712
  29.7061729  40.6786194  61.4560204  30.3975182  41.3666763  60.2986069
   9.1934814  55.6529884  30.0568314   9.1035337  54.7754097  29.6853485
   8.8107672  55.5832405  30.9314156  86.3710251  58.8512802   8.6643610
  86.5680923  58.2901421   9.4143734  87.2286072  59.1051712   8.3233023
  46.9757805  41.0542145  19.0497799  47.1697998  41.8528519  19.5404644
  47.6481857  41.0218925  18.3692951  31.3630867  22.2130222   2.9590721
  30.8376865  22.0842838   2.1693814  31.0479603  21.5450439   3.5679483
  15.1463108  44.5964546  62.8467369  14.5864811  45.3577728  62.6943741
  15.9943409  44.8453445  62.4791336  71.6571198   0.5960264  78.2237244
  71.4469910  -0.3069998  78.4616776  71.2185669   1.1271120  78.8884430
  65.3662491  68.1919022  83.1293716  65.0186005  68.9807739  82.7133789
  64.8795319  68.1197510  83.9504242  68.9820633  69.9573669  37.6654625
  69.4254150  70.6173935  37.1325150  69.3981781  70.0244446  38.5248718
   1.1835170  48.0064926  13.1677103   1.6896678  47.9642563  13.9790421
   0.7993112  48.8831940  13.1704626  42.7102318  44.3442383  85.0280762
  43.1636887  45.1315498  85.3293152  42.4188995  43.9133759  85.8316345
  85.6275864  69.1099014  38.7093163  84.7609558  68.7168655  38.6058769
  86.0993195  68.8623428  37.9140739  72.8023300  39.5441437  47.1986046
  72.6458969  40.4240227  47.5414963  73.0814514  39.0363121  47.9604607
  14.4754839  62.8345909  18.6616421  14.1733923  62.0370750  18.2269726
  15.2712908  62.5693321  19.1226864  63.6062889  36.4068680  36.0598488
  64.5391693  36.5973282  36.1583061  63.5804062  35.5488510  35.6363297
  57.1224327  49.8952942  17.5998764  57.9634132  49.5965500  17.9459019
  57.3516159  50.5799561  16.9714279  70.6342697  27.8190289  63.6634598
  70.1887817  28.6443634  63.8547554  70.0859299  27.3988495  63.0008812
  11.5234051  68.6231461  62.1237869  10.9009686  69.3483124  62.0696220
  10.9842491  67.8374481  62.0331078   5.1397114   1.9998292  26.8759727
   5.5828137   2.8443582  26.9575996   5.5170579   1.4630212  27.5728798
  18.6726551  38.9612198  21.8644657  18.3134003  39.5623894  22.5169697
  19.6215420  39.0494804  21.9542294  55.5707817  49.8377304  64.0025482
  55.4096870  50.7565727  64.2170334  55.2375717  49.7379684  63.1107750
  85.1138992   7.6015911  78.0608673  85.3768158   8.5207720  78.1079025
  85.4224167   7.2218237  78.8835602  14.5449085  26.4701080  17.7785053
  13.6803331  26.8207359  17.5644913  14.4553652  26.1414604  18.6730461
  35.9655342  16.8116856  81.3108521  36.0352020  15.8773203  81.1150513
  36.6659851  16.9770298  81.9419327  51.0533905   7.2466407  84.8097305
  50.5781479   6.6820583  85.4193344  50.6617279   8.1117840  84.9295578
  43.1495132  54.8786697  48.9291229  43.8660202  54.6549034  48.3351746
  42.3996773  54.3854637  48.5963707  18.7960491  25.3628769  28.0603600
  19.0749359  26.0859318  28.6221848  19.6102695  25.0123482  27.6992416
  17.6152744  70.0812836   5.7291117  16.8093147  70.5549393   5.5234179
  17.6218262  69.3435593   5.1192360   7.8455658  46.1416512  81.9227448
   8.7715559  45.9679298  81.7536392   7.4489603  46.1938133  81.0531387
  81.3951492  29.4831886  27.6856861  81.9234314  29.5348301  26.8891392
  80.4909363  29.4611778  27.3723965  55.1330681   7.6207814  48.4548798
  54.8792496   6.7021260  48.3661079  54.3722763   8.1107035  48.1427879
  63.6320877  26.9042377  47.7481728  62.9359093  26.3064117  48.0205193
  64.2479172  26.3514385  47.2671356  41.5540657  59.9594498  28.3425159
  41.6568222  59.6654053  27.4374123  42.3967285  60.3566666  28.5624390
  78.1269684  11.0835962  34.6727867  79.0540848  11.0435247  34.9074860
  77.6727676  10.7049828  35.4255066  56.8380127  49.3200111  28.7581043
  57.0900002  48.4717522  28.3931484  57.0106087  49.2380142  29.6960392
  62.9351807   6.6048555  81.2663803  62.0444832   6.3029318  81.0882339
  62.8564682   7.1242743  82.0665283  12.0410471   3.7666965  64.2835007
  12.7798691   3.6007738  63.6979752  12.2040701   4.6429973  64.6324310
  62.4067039  22.2017422  52.4883499  61.5636902  21.7501450  52.5286255
  62.1873245  23.0954323  52.2248650  67.4500198   8.0369797  48.0630760
  67.5272827   7.6429534  48.9319878  68.2682495   7.8076286  47.6224670
  81.5730515  11.2767744  55.1281967  81.3928223  10.8861179  54.2731285
  82.3829651  10.8566093  55.4175682  23.8893681  57.0687370   8.5074549
  24.1508484  56.5797844   9.2877035  22.9805336  57.3183479   8.6746216
  29.8792667  68.3648453  37.7573853  30.7487545  68.6554565  37.4821281
  29.4981041  67.9724121  36.9719276  11.2374554  46.9087524  46.7762527
  11.0140448  46.3251381  46.0511894  11.0949669  47.7888680  46.4279366
  81.9605713  15.2893400   1.1090848  82.6463852  15.1546183   0.4550600
  82.3084564  14.8903589   1.9065963  24.1591320  42.1290932  76.7457504
  24.8532562  41.9069824  76.1251984  24.5501232  41.9786148  77.6063995
  40.1437454   1.5377071  71.8569641  39.8386383   1.4114079  72.7554016
  40.4166565   0.6656542  71.5718842  17.8898945  45.9133034  72.1162186
  17.8431778  45.5638580  73.0061264  18.3271084  46.7592163  72.2137222
  65.8036575   6.0288033  50.5443954  65.6080933   6.9624481  50.6237450
  65.4173279   5.7735252  49.7066536  22.1442909  59.1873627   5.7093210
  22.8417072  59.8279076   5.8491211  21.3725052  59.7147293   5.5032582
  11.5832090  70.5744247  31.8258572  12.0914421  69.7657700  31.8892174
  12.1195107  71.2299347  32.2718506  32.0521088   4.4576011  25.3954334
  31.4680901   3.7185733  25.5656986  31.5885239   5.2160006  25.7506104
  77.5759888  27.7086849  72.3585663  77.9430923  28.5072060  72.7378159
  78.2613144  27.0508060  72.4758682  17.1691113  45.2925262  79.5371933
  17.2744694  46.1863632  79.2113342  18.0625629  44.9562836  79.6073074
  19.6228218  39.7242279  64.2906494  20.1201611  38.9132195  64.1850357
  20.1454163  40.2483444  64.8976288  55.3650169  70.7219772  40.9415245
  55.8869820  70.2945938  40.2624550  55.9617577  70.8054657  41.6852722
   2.6928570  51.5679741  80.7859344   2.6522667  52.5218239  80.8549194
   2.0012665  51.2559814  81.3695450  38.9453049  39.5011101  42.2235832
  38.8924294  38.8824005  42.9520302  39.2221413  40.3235703  42.6275101
   2.0788624  28.7558365  39.8237000   3.0236290  28.6757107  39.9549561
   1.7217835  27.9262962  40.1408615  71.0927200   7.4729614   2.6545839
  70.2246780   7.8533049   2.7890210  70.9193726   6.5880923   2.3333564
  75.5575714  45.1007652  85.8118439  75.4762726  45.9315147  85.3433609
  76.2336044  45.2621193  86.4700165  67.8061676  47.0586052  76.9006424
  68.5936279  46.6025352  77.1975098  68.0796814  47.5159874  76.1055145
  57.5936966  64.8862381  84.2172165  58.0376663  64.0412216  84.2884445
  56.6683464  64.6629028  84.1167984  75.7341156  18.6556511  24.9394550
  76.2925949  18.8188934  25.6995106  76.1855011  17.9647579  24.4545345
  77.8725281  45.9488029  26.9621887  77.2768326  46.5977173  27.3367443
  77.4541092  45.1070824  27.1429195  45.8962212  61.2902527  17.4426765
  45.0838776  61.1306801  17.9231606  46.2767410  62.0605431  17.8646832
  30.4990768  38.5542488  57.6812744  30.9912796  39.3751831  57.6871796
  30.8060722  38.0853348  58.4572296  29.1666927  50.5389290  28.0703621
  28.3442402  50.8906784  27.7296638  29.8273907  50.8179970  27.4364586
  51.8463249  48.6487236  27.6940708  52.4334984  49.3656845  27.9336987
  51.0466042  48.8173866  28.1923008  39.0470772  61.9068108  28.0213356
  39.0235176  62.0701675  28.9641991  38.1339836  61.7462540  27.7831841
  60.8080139  45.8575058  80.3240662  61.0345116  46.7501793  80.0631714
  61.5786896  45.5433311  80.7969131  15.2217779  32.5580330  87.5834122
  15.0056505  33.1383820  86.8535385  16.1437149  32.3381004  87.4496460
  38.2570419  47.5434952  26.7009983  38.3340263  47.7839928  25.7777081
  38.5697021  46.6396370  26.7399387  28.0656300  47.0915871  55.6225243
  27.1635857  47.3700409  55.7806816  28.5416145  47.9050789  55.4554863
  52.1944923   5.7652421  57.7669106  51.2904701   5.4888377  57.6166573
  52.2839661   6.5751109  57.2645760  44.3374710  42.0611420  31.3685379
  44.9358635  42.6582870  31.8175106  43.8802567  41.6044617  32.0746765
  56.1652756  30.5858421  50.0138168  55.6278610  30.9157181  49.2936745
  55.5352364  30.2208214  50.6351395  13.2188091  65.2702484  61.2351341
  12.3625669  65.0268936  60.8832016  13.4976883  66.0105133  60.6961861
  75.3864822  56.1261024  68.9721069  76.2526321  56.4922333  68.7933502
  75.3996201  55.2649269  68.5544510  72.5779800  39.1647072  33.2719688
  73.0339508  39.4765663  34.0536728  72.2737427  38.2878265  33.5059700
  41.1183891  26.2932854  85.4248581  40.9839058  27.1175327  85.8925781
  40.6616859  26.4131107  84.5922165  15.7558746  18.5873470  18.3342133
  16.3612347  17.8479538  18.2788277  15.8727179  18.9266014  19.2216187
  10.4402952  57.1484451  55.8148689   9.6568308  56.7100677  55.4828491
  10.8810892  56.4832573  56.3435059  49.2747688  44.4589157   5.8518801
  48.4170952  44.7687912   6.1427441  49.0858574  43.6634941   5.3540339
  79.0345383  24.1275406  79.5207443  78.8960114  24.9723225  79.0925064
  79.2524414  24.3506393  80.4257202  38.6273575  53.4828110  18.2885323
  39.0256653  53.9738731  19.0071678  38.6470413  54.0865746  17.5460281
  56.4204025   9.9924526  83.1087646  57.0189056   9.2465668  83.1497498
  55.5772591   9.6099262  82.8658371  35.7400322  66.5567245  25.6431408
  34.9068031  66.1673660  25.9084053  35.6223221  66.7661972  24.7165890
  58.7293625  41.5382042  78.6728592  58.3417473  40.6876907  78.8792877
  58.3664627  41.7653542  77.8167343  11.6395493   5.7852097  66.6217041
  11.3842812   5.8647575  65.7026062  11.5089417   6.6618109  66.9832840
  79.7218094   7.6532397  30.5893459  80.3289795   8.3913307  30.6422844
  78.9137955   8.0321350  30.2432461  11.4359760  67.2493896  85.0709000
  10.5716467  67.6131668  84.8789902  11.2711353  66.5753479  85.7302399
  84.6016083   2.4756854  31.5671368  84.3680801   1.5764482  31.3367710
  84.0073547   3.0178633  31.0483494  35.6033669  64.9660110  77.8045349
  34.9013252  65.6166687  77.8076630  36.3805199  65.4508514  78.0823822
  38.1906586  40.8738708  25.1137371  38.9766617  41.0918350  24.6128139
  37.8751793  40.0594597  24.7220230  13.9297943  56.0333176  19.9294834
  14.0940189  55.1544380  20.2712841  12.9768324  56.0884552  19.8583794
   4.2588978  68.4235916  53.1072769   4.9155631  67.7284393  53.0649452
   4.7320423  69.1791077  53.4559250  17.5235443  41.6079674  87.0774307
  18.3823948  41.9389038  87.3402863  17.7103138  40.7760735  86.6423492
  65.6167984  34.0830650  22.2931957  65.8088074  34.9812241  22.5627861
  65.9696732  34.0187492  21.4057407  86.1493149  23.2534084  68.8814774
  85.2764816  23.5863342  69.0901642  86.7477112  23.8617401  69.3151779
  28.1586838  12.8770494  63.7944412  27.8091450  12.0027313  63.6223259
  28.9099121  12.7260113  64.3680878  34.2462234  67.5971527  84.9852066
  33.9581108  68.5071640  84.9137726  35.1943703  67.6546707  85.1032715
   2.9522684  48.0222359  15.3266287   3.7210383  47.9089432  14.7677107
   2.8707702  47.1904907  15.7933111  39.1676826  66.2203522  70.8487854
  39.4955406  65.6154709  71.5142670  39.6688919  66.0055389  70.0620956
   4.6069016  38.7330666  75.4224167   4.0402503  38.8168449  76.1893082
   4.0446520  38.9635773  74.6828461  11.2206097  67.0166626  23.2984772
  11.6488924  66.3680496  23.8571377  10.2849941  66.8471375  23.4085388
  80.7818298  38.3875084  28.8442459  80.6988220  37.9081078  28.0199184
  80.0381546  38.0916901  29.3692894  17.1907101  29.3330040  15.0407772
  16.5055752  29.7543755  14.5218658  16.7714329  29.1398182  15.8792982
  48.5591774  63.8450584  74.1661835  47.7571793  63.3470154  74.0081100
  49.2396355  63.1788673  74.2631378   2.0481567  24.7481880  23.3232059
   2.6939051  24.2090721  22.8664837   1.3210918  24.1516418  23.5013618
  44.2472382  58.3380966  85.9550629  43.9720573  58.5239639  85.0573120
  45.1963692  58.4617424  85.9451065  55.8210602  67.9028473  44.0445976
  55.4424591  68.7080688  43.6917305  55.2208176  67.2124786  43.7629395
  71.3996353   5.9585075  76.3047256  71.0507660   6.6233873  76.8984070
  71.7361221   5.2739325  76.8829651  64.4357681  23.1304379  81.7006378
  64.3565445  22.1778164  81.6509781  63.5693703  23.4287224  81.9774246
  56.6587868   2.2719719  84.2641754  55.8724442   2.8174732  84.2461319
  56.4816551   1.5754488  83.6319504  31.1617813  43.3299255  13.0318489
  31.5564957  42.7167931  13.6519299  31.3958778  44.1948929  13.3683863
  33.6049118  41.9954262  69.3241043  34.2913628  41.4028587  69.6305084
  34.0713120  42.6614151  68.8189697  46.6882896   5.1617332  42.4532928
  45.8544769   4.7350526  42.6506042  47.2847786   4.8476381  43.1328354
  46.2232323  52.3693504  13.0775194  46.7702675  53.1293488  13.2759886
  45.6691322  52.2645454  13.8509665  42.9632263  43.9240150   8.0643358
  43.7680588  44.4179916   8.2207317  43.2613907  43.0350227   7.8719282
  49.1973457  11.9705992  85.6486969  48.6001625  12.5128412  86.1640396
  50.0470123  12.4032106  85.7332306  74.3267441  30.3426037  64.0048904
  74.1014404  29.4159203  63.9228783  74.3405457  30.5031471  64.9484253
   4.7311635  48.2700195  30.7688255   3.7966931  48.2868652  30.9754982
   4.9333863  49.1664085  30.5008240  25.0550938   6.7441978  67.8671799
  24.6695881   6.7615356  68.7431412  24.7232838   5.9363260  67.4754181
  53.0235443  61.4210434   6.9888387  53.4098206  61.9609718   6.2992754
  53.7747955  61.0488434   7.4507074  19.5212154  63.0631866  86.0423889
  19.1755772  63.1723938  85.1564789  18.7527962  63.1300545  86.6092148
  55.1831207   0.9411370   5.8637395  54.9666519   1.3982446   6.6764054
  54.3457527   0.5984075   5.5513597  37.2456894  48.0485649  84.6717148
  36.4105301  48.2325249  85.1017075  37.9057465  48.3938980  85.2728043
  84.8232193  19.3480034  59.1549835  85.0940399  20.1816502  59.5395927
  84.3761444  18.8898907  59.8666611  13.4425220  67.7070160  42.6626015
  13.3349485  68.6549072  42.5840607  12.7902403  67.4449615  43.3122826
  12.4100304  41.4192200  57.4715652  13.2057390  41.5635757  56.9594727
  12.0332060  40.6179924  57.1078720  49.9999275  65.9376144  63.1582909
  50.2130127  65.2813644  63.8217392  49.9729156  66.7646408  63.6394615
  54.3072052  54.5788956  22.9053822  54.4947929  53.7741356  23.3885002
  53.4628906  54.4148026  22.4853344  26.6234550  62.3208771  65.5009995
  26.9033031  61.4316330  65.7181702  27.1931152  62.8855400  66.0233688
  44.5092239  38.5922089  13.8796616  43.9716339  37.8293991  14.0926094
  44.1646500  39.2908669  14.4358749  63.2291412  17.6968021  80.4876404
  62.8200340  16.8349380  80.5654297  63.4450188  17.7764702  79.5585098
  62.8083267  50.0626564  38.4308205  61.9925766  50.1407547  38.9254723
  62.9620209  50.9407501  38.0821648  56.5840759  56.5645790  41.9531097
  56.1337891  57.4090652  41.9352913  57.5136757  56.7895699  41.9912338
  50.8641205   7.3416195  45.8193245  51.7907753   7.1465487  45.6797066
  50.8496475   7.8834476  46.6082764   2.1032450   6.0787296  37.0816612
   2.2246544   6.8897076  36.5878944   1.3161709   6.2321148  37.6043663
  41.5117760  51.1763268  75.3386002  40.7468605  51.4310875  75.8545761
  41.2972031  51.4427834  74.4446259  37.3612175  49.0501213  38.2392044
  37.0092316  48.8509941  39.1067772  38.0092659  49.7370186  38.3955307
  71.6983109  41.5069122  78.9851685  71.9287186  40.5865250  78.8585587
  71.4013214  41.8001556  78.1237488  20.2013626  44.8375168  43.8746834
  21.0571613  44.8866005  43.4487381  20.1173286  45.6697807  44.3399887
  77.7706757  51.3435173  64.3435364  77.2969894  51.5120926  65.1580505
  77.0953827  51.0568581  63.7286797  49.4606972  25.0245819  72.9938507
  49.5074272  25.9794922  73.0406876  49.9669609  24.7979851  72.2137375
  82.5954437  65.4074249   6.7183027  83.0577774  65.8913193   6.0339613
  82.6251373  64.4955978   6.4286227  69.1050491  13.6170025   9.8553762
  69.4564285  12.8938093  10.3747540  68.2428741  13.3120861   9.5726919
  41.4560013  47.1843185  79.2730789  40.7778244  47.0920410  78.6039124
  41.7967033  48.0700798  79.1482544   2.4840724  21.9287567  85.0419617
   2.5926425  22.4197655  85.8564301   2.7661262  22.5352554  84.3572464
  15.2128906  21.7065773  87.8902740  14.5487814  22.3409710  87.6205750
  15.7120218  21.5288029  87.0930939  66.2688141  20.4599075  74.1491470
  66.4729538  19.7577667  74.7668457  66.5404282  20.1165466  73.2979355
  73.5731506  17.4375210  71.9186630  72.7029037  17.7939320  72.0971985
  73.4051514  16.5823040  71.5229263  20.0408497  42.4454308  88.0613022
  20.5351391  43.0572052  87.5157318  20.3421974  41.5801659  87.7842865
  35.8347206  45.9449692  81.1321259  35.6089401  46.0533447  80.2082748
  36.5736809  45.3365631  81.1283188  21.3603859  25.0092297   4.9010482
  21.6557255  25.9121399   5.0183563  21.3929691  24.8675785   3.9549484
  84.2446442  30.9686928  56.8721275  84.2986145  30.7146626  57.7934227
  83.3698959  30.6927547  56.5984383   6.9593334  66.1377335  67.5321579
   6.4296799  66.6183853  68.1682968   6.9724350  66.7001495  66.7577209
  13.1784487  39.6075096  77.8065186  13.3821106  40.3292084  77.2116165
  13.4847879  38.8252449  77.3477707  72.0649872  13.4450588  36.6707344
  72.5744781  13.0102587  35.9869194  72.4929657  13.1889420  37.4877243
  41.0852852  30.4771061  72.9534531  41.4570007  30.8726463  73.7418747
  40.2817154  30.9719296  72.7932816  50.8491020  49.4804993  41.6221313
  51.0992966  49.0580750  40.8004303  50.6548691  48.7546577  42.2151413
  85.6862946  26.3432865  18.0776863  86.1420746  26.6235619  18.8713779
  85.4332428  27.1592770  17.6459980  47.4464073  55.9661179  53.4859962
  46.5834312  55.7336349  53.1432800  47.6861382  56.7620430  53.0113792
  17.6195621  10.2272291  32.2671013  18.2978706  10.1154299  32.9331551
  17.7028027  11.1400595  31.9913425  74.7109299  35.2519417  60.0781212
  74.7700195  35.1076202  59.1337090  73.8434982  34.9249382  60.3165741
   8.3725595  48.6310883   8.6208334   9.2436047  48.2555504   8.7492247
   8.0273447  48.1778831   7.8516374  16.5192013  48.8527565  52.4210205
  15.6276312  48.8839073  52.7679596  16.4050560  48.7774467  51.4736404
  31.1077690   7.9478478  61.1291695  31.1351471   8.8364182  61.4840279
  31.1504631   7.3809724  61.8992729  36.4484978  53.5552254  75.6898651
  35.8569374  52.9542465  76.1427612  37.2675972  53.0671196  75.6058350
  40.5693626  21.5667667  74.9791794  41.1763763  21.5203629  74.2405243
  40.6618958  20.7214890  75.4187012  70.7998047  48.1899605  61.4388809
  70.1218338  48.1918640  62.1145897  70.3624725  48.5335312  60.6598244
  51.2582664  45.0486908  36.6389809  50.6915588  44.6158714  37.2775269
  52.1372414  44.7299118  36.8439560   9.0765562  53.2120895  28.3799038
   8.8883057  53.3206062  27.4476929   8.5326004  52.4720612  28.6495361
  77.4579163   1.2027947  57.6463165  76.8779144   0.5994340  58.1108437
  78.2435760   1.2470943  58.1912918  12.7711716  30.3150539   2.1308732
  13.0709867  30.9909801   1.5230352  13.1788416  29.5093727   1.8132000
  23.3046474   1.8587055  69.1678085  22.6373615   2.5006976  69.4103088
  23.2962208   1.2226576  69.8830719  84.0471954  50.1107140  76.0208282
  83.9836044  49.1556664  76.0122986  83.3367004  50.4031715  75.4499435
  37.6877670  47.4022369  32.3044510  37.9803085  47.5572777  33.2025681
  38.4602089  47.5781212  31.7672119   4.0067897   8.5101604  53.6204681
   3.6028817   9.0260801  52.9226723   4.2263870   7.6761279  53.2052574
  78.6594620   8.1054115  74.4344635  77.9227524   8.2525120  75.0276337
  78.7260056   7.1529269  74.3668137  23.1030769  27.1932487  87.8370895
  22.2737656  27.6710987  87.8255463  23.3238869  27.0743694  86.9133224
   8.4468231  42.4242744  71.8807526   8.7976656  43.2832298  72.1159821
   8.9162655  41.8108215  72.4460220   7.0123339   1.8889743  85.5222397
   6.9341664   2.3795974  84.7040634   7.0049920   0.9706110  85.2524490
   7.0897889  36.0416908  86.7467957   6.5686760  36.4133911  86.0351028
   6.6614628  35.2096558  86.9480057  14.2142057  31.8442879  60.7760506
  14.4349041  32.3730850  61.5427971  14.1221981  32.4791985  60.0656548
  83.5697556  40.7734718  80.3986130  82.8065109  41.3385010  80.5187531
  83.4314880  40.3623810  79.5453186  42.4209023  64.3555298  32.9284325
  42.0315514  64.5425262  33.7826385  41.9503479  63.5833092  32.6146088
  79.7144699  22.6345615  17.5050259  79.9302979  23.5401020  17.7278404
  80.4237137  22.3547382  16.9263153  45.7893066  29.4261971  75.2348785
  45.7219238  29.3720722  76.1881714  45.6238098  30.3475494  75.0350037
  26.6282005  65.3351822  22.8264923  27.1700611  65.6335373  22.0960121
  25.7715778  65.1642227  22.4350834  31.6461926   2.9743106  75.2482147
  31.4821529   3.8053584  75.6939545  31.1421394   2.3313985  75.7470398
  44.8216667  32.0928078  68.7332382  44.4311028  31.2368393  68.9093246
  45.2646484  31.9853649  67.8915405  66.4449768  60.5878067  22.5792446
  66.6270981  61.5273781  22.5628719  67.3013535  60.1758080  22.4648037
  56.0479317  36.8516884  57.4277153  56.0692787  35.9439125  57.1248741
  56.9640198  37.0676231  57.6020432  55.7970314  35.8934669  84.6941986
  55.5024834  36.0405922  83.7954025  56.3305244  35.1002731  84.6445999
  56.3741493  10.0495462   0.9204201  57.2801895  10.3214970   0.7742448
  56.3881607   9.6194162   1.7754196  54.2514648  35.8834229  23.9204102
  54.2452354  36.3792419  24.7391644  55.1727142  35.6649094  23.7797375
  81.3945236  29.0454216  56.5051384  80.8955383  29.3246975  57.2727623
  81.5791931  29.8564415  56.0314560  85.9740601  28.9098606  14.1068039
  85.2902679  29.4680176  13.7365103  85.7447662  28.8326168  15.0329199
  33.1695061  25.7606201  88.5233841  32.9781303  26.1853027  87.6871719
  32.7178841  24.9181633  88.4730530  46.0724182  53.5748672  31.5504951
  45.1414261  53.7807846  31.6346531  46.0995865  52.8295288  30.9505234
  79.0972900  42.1688766  52.8381844  79.4673996  42.9972878  53.1431160
  78.9235077  42.3122177  51.9078674  28.1648521  42.6601753  67.0798569
  28.8743210  43.1500053  66.6639786  28.4234467  41.7427864  66.9917526
  73.4081573  15.0387335  87.5904922  74.0141525  15.1946831  88.3148422
  72.6780853  14.5634136  87.9870987  43.3498764  52.7582016  51.2253838
  42.6039085  52.1862831  51.0446320  43.0561867  53.6278877  50.9540520
  35.1753960   2.8664596  69.2922974  35.9143486   3.3014038  68.8668518
  35.5392799   2.5166824  70.1056137  61.4345512  50.3235741  74.7610550
  61.6128235  50.9764977  75.4379120  61.6631393  49.4879761  75.1681824
  45.1496620  40.5208511  70.1978378  45.9291992  41.0428352  70.3877945
  45.2646790  39.7223816  70.7130585  56.1840591  63.4177704  11.5033407
  56.6440163  64.1719437  11.8719769  55.7982063  63.7460747  10.6912050
  64.7899857   6.2814794   5.7418137  64.3028946   5.8134880   5.0636120
  64.5809402   5.8156300   6.5514531  61.5706749  70.7036057  35.7187729
  62.1916161  70.5739746  35.0019341  61.4462547  69.8296585  36.0888596
  53.3719025  35.2998199  26.9885864  53.5635605  35.2169685  27.9227352
  53.4275360  36.2395172  26.8150940  28.3579445  44.0335388  19.9782925
  27.5645065  43.5049515  19.8929539  29.0541229  43.3964157  20.1384163
  75.8301849  41.9370766  86.8285675  74.8988571  41.7312965  86.7479019
  76.1635590  41.2961998  87.4565582  62.0494690  51.8482933  30.1595192
  61.8997726  51.1591797  29.5122604  62.9946060  51.8340225  30.3103256
  45.0771294  27.5621681  17.4076672  45.6126251  27.4003468  18.1843853
  45.4550400  26.9966774  16.7341423  11.1431847  67.3859406  10.2878351
  11.3960991  67.1733780   9.3894567  11.9736938  67.4893494  10.7523699
  80.5606308  56.2881165  62.6527824  79.9896545  55.6321869  62.2528152
  79.9679260  56.9906502  62.9199600  76.6547546   2.7287900  77.0430450
  75.7657089   2.4922843  77.3074493  77.0648575   3.0529644  77.8448944
  26.5166378  55.8927383  27.3730030  26.5691338  56.7984619  27.0678215
  27.1179695  55.4128647  26.8034840  57.6888466  22.2605820  88.8589478
  58.4863243  21.7339268  88.8051605  57.1370621  21.9328995  88.1487427
  49.1975861  64.9085693  10.2420883  49.1215477  65.6347733  10.8610239
  49.7839432  65.2357025   9.5598860  35.8856010   6.7312398   0.4293155
  36.1229210   7.3323436   1.1354213  36.7120895   6.5485992  -0.0176662
  48.1432190   4.7278686  49.4428596  48.5731239   5.1913314  50.1616211
  48.4387436   5.1824384  48.6540222  68.7605515  55.3019028  66.0421295
  68.8899460  54.4929314  66.5371628  69.3737106  55.2354355  65.3101120
  72.7674866  18.0775738  15.7749739  73.4763260  18.4734879  15.2679892
  72.0363388  18.0198917  15.1598873  31.7112007  47.4427261  48.0758972
  32.5045815  46.9087067  48.1159859  31.9602718  48.2025833  47.5497704
   0.8408148  49.1691055  63.3193703   1.7479898  49.1234627  63.0174065
   0.9030097  49.4998436  64.2154617  13.8172283  24.1603050  80.0560303
  14.4617853  23.7015190  80.5948181  14.2150269  25.0131149  79.8808060
  64.7311096  32.4258766  67.7975693  64.7231522  31.6490517  67.2383652
  65.3518448  33.0191536  67.3745575  28.2928905  41.5326958  22.1008892
  28.9610882  40.9968719  22.5282478  28.1753044  41.1283379  21.2412968
  74.0542831  20.2484550  70.2859650  73.6389084  19.7181320  70.9660034
  74.5653687  19.6225338  69.7728882  34.9984207  41.4584579   6.3992395
  34.5055161  41.9998398   5.7826505  35.7817535  41.9721947   6.5959387
  71.5503693  70.9116135  34.6997757  70.9956131  71.0018082  35.4745941
  71.4540176  69.9949417  34.4416084   1.8966408  25.2190170  54.0621338
   2.2138095  25.6507492  54.8553810   2.6908550  24.9291000  53.6133537
  49.3329964  67.6615372  51.2161598  49.3666687  67.2472534  50.3539124
  49.9998474  68.3472061  51.1786423  74.4389648  65.6859894  88.4071960
  74.9821625  65.7265015  89.1942978  73.8702850  64.9288940  88.5473557
  85.4572220  65.3414230  21.4470425  85.4797516  64.9910431  22.3375244
  86.3114243  65.7576981  21.3317699  86.0965424  65.5359039  86.4657440
  85.3103333  65.9383392  86.8347397  86.6612930  65.3762054  87.2219086
  79.0400848  67.3878326  62.0334663  79.4208145  66.6337204  61.5833778
  78.4331665  67.0067139  62.6679955  23.2249298  44.4601936  34.9664955
  23.7352486  44.4563103  34.1566887  22.3639641  44.7870560  34.7054787
  63.3831787  20.1876526  88.3363037  62.7118912  20.8433151  88.1473236
  63.0330544  19.3745823  87.9722137  50.4849586  56.9008636  52.3864365
  50.3226967  56.0780869  52.8478928  49.6259727  57.3200684  52.3350143
  24.5333042  38.6809769  77.1037979  24.2032566  37.7940598  76.9599915
  25.2231865  38.5764961  77.7590637  30.1887741  50.3537292  17.0768642
  29.9275169  50.5580254  16.1789551  29.5266228  49.7344666  17.3839550
   3.2734590   8.9257412  36.7121162   4.1288972   8.5012484  36.6468239
   3.4547305   9.8538895  36.5640869   0.5222702  15.7087250  26.4487419
   1.3283327  15.8905602  26.9318886   0.1333200  14.9620333  26.9041557
  29.6616173  65.7423935  30.8631516  29.4219646  66.6690216  30.8508492
  30.4147396  65.6975784  31.4522438  16.1782494  53.7171936  47.0236206
  15.5602989  54.2877350  47.4806213  15.8122044  52.8384666  47.1240349
   8.0691462  27.4027157   2.8104675   8.9210663  27.5338879   2.3942249
   8.1400261  26.5488586   3.2372422  48.4141808  39.0856209  64.0819244
  49.3081665  38.8026199  63.8897400  48.2269135  38.7177010  64.9455185
  55.2319908  55.8558159  74.1853790  55.2118759  55.5530930  73.2775345
  54.4750023  55.4365120  74.5944977  16.1878510  60.1548233  30.6159821
  15.3127146  60.5388565  30.5622578  16.7273026  60.8418961  31.0073376
  61.9509315  62.3005714  53.3940048  62.0867577  61.9789352  52.5027504
  62.4058838  63.1424332  53.4167595  19.8271751  68.9320068  87.2381973
  19.7117271  68.5038681  86.3899078  18.9414806  69.1787491  87.5044632
  55.6034508  47.6060982  54.7987251  55.6274872  46.6522369  54.8749237
  54.9311333  47.8793640  55.4228592  86.2798080  13.2978725  27.3290119
  85.3248596  13.2851782  27.2646637  86.4793701  12.6988420  28.0484352
  23.5587502  56.2494125  32.1966057  23.5299149  55.7685661  33.0237617
  23.5812168  57.1705971  32.4557343  83.5656815   2.1662347  20.0659027
  83.5088806   1.8090397  20.9521408  84.0453720   1.5024379  19.5704193
  80.0030594  65.4978943  60.5172653  79.8587723  64.5741730  60.3119545
  80.1996155  65.9031143  59.6726418  71.2306747  61.6673584  66.1332016
  71.3336487  60.7439308  65.9031754  70.8324203  62.0641937  65.3585129
  54.6474800  19.0737991  54.8836403  54.9322281  19.9146366  54.5256691
  54.6506844  18.4803295  54.1326294  12.3350782  14.5318003  84.2664413
  11.4728708  14.8762045  84.4992828  12.9145412  15.2928524  84.3018570
  40.3088264  43.4366837  56.9477844  40.9099617  43.8928986  56.3589401
  40.8382988  43.2308655  57.7181931  69.3429337  34.3495102  32.9827728
  68.3857956  34.3604279  32.9826660  69.5718689  33.4212646  33.0294571
  38.3579102  39.6106796   8.6475801  39.2605286  39.8543091   8.4422674
  38.1866646  40.0191956   9.4961205   1.8684752   2.4845085  39.6124649
   0.9417208   2.6491039  39.7864380   1.8685359   1.8136779  38.9296608
  78.4576111  49.8216133  22.6435108  79.1344986  50.4755096  22.4689522
  78.8500366  49.2381592  23.2929859  28.3988895  19.9984131  79.5963898
  27.8811264  19.4897957  80.2204590  27.9710579  20.8543224  79.5716400
  73.1074371  40.2242203  40.6459579  72.7341614  39.4755249  41.1110916
  72.9903641  40.0133324  39.7196465  55.7100525   4.7425823   5.7461324
  54.8674088   4.5209951   6.1424670  56.3379822   4.6760502   6.4655156
  48.2574234  42.9902534  11.2796030  47.6361122  43.1072845  11.9982901
  48.9277725  43.6563911  11.4316521  66.1628036  70.3390732  56.6644707
  66.6304016  69.7713852  56.0518456  66.4180984  70.0193481  57.5298233
  59.1775436  25.5787544  11.0002851  59.9125175  25.4102421  11.5899057
  59.5867805  25.7768860  10.1579657  65.8380661  70.9600449  17.5103188
  66.4249954  70.4440918  18.0630760  64.9598694  70.7324829  17.8156319
  54.4207497   5.1774216  48.2013817  54.0579109   5.1598268  49.0869751
  54.4697571   4.2566972  47.9442902  32.8349876  61.9220619   6.8656111
  32.1406860  61.2638206   6.8955393  33.1918945  61.9342766   7.7536993
  82.9635468  63.8933258  60.6007843  82.9402390  63.9820671  61.5535774
  83.1777802  64.7706985  60.2836876  63.1773834  63.3940125  23.7226105
  62.4060135  63.6527367  23.2183456  63.0501289  62.4607506  23.8930817
  27.2331047   2.6436276  75.8670349  26.7547035   1.8887855  75.5241394
  27.7304611   2.9723253  75.1181564  16.2110901  24.1619587   8.1243124
  16.8302765  24.6218567   7.5574474  15.9466619  24.8163948   8.7708588
  48.9029198  62.1493950  21.1844101  49.4448929  61.7029991  21.8349686
  48.2381897  62.6066055  21.6995068   1.3651730   8.8785791  45.7275734
   1.5661844   8.8554134  44.7920036   0.6735506   8.2264957  45.8401680
  45.1487732  36.7764206  23.7264175  45.0031357  36.6007423  24.6560192
  45.3733025  35.9237747  23.3538380  67.3058319  68.1026459  11.8835411
  67.7787933  67.3914413  11.4514246  67.6980743  68.1563416  12.7550316
  71.1270523  67.0202255  76.3041687  70.5912704  66.2319260  76.2161026
  70.6406784  67.5733261  76.9155273   7.5468559  15.9446087  43.8437729
   7.2572522  15.3827515  44.5625763   7.0850625  15.6081743  43.0757942
  57.1982460  22.2643166  13.2543154  56.8636246  21.4358387  12.9109755
  58.1461906  22.1394501  13.2994757  12.1065006  18.1287918  54.9874992
  12.4042225  18.7605171  55.6421089  11.3292799  18.5324535  54.6012115
  31.8004513  53.9379349  80.1934433  32.0747261  53.7103615  79.3050613
  30.8797894  53.6790886  80.2335739   2.9281709   7.2920728   9.8612995
   3.4568176   7.4901195   9.0882912   3.4265211   6.6202006  10.3265600
  23.2097149  54.4305878  65.6165619  23.3312759  53.6280365  65.1092453
  24.0980339  54.7473297  65.7802582  16.6651630  49.6600189  11.0186682
  17.3262177  49.5219574  10.3403034  17.1254444  50.1393051  11.7076216
  13.6495085  62.6727180  34.3966064  13.6300764  63.6174240  34.2436905
  13.9856949  62.5812645  35.2881508  68.4800720   4.0940065  11.8218813
  67.5917969   3.8986285  12.1202621  68.4464722   3.9713218  10.8731709
  44.8126450  65.5316238  27.0139427  43.9623642  65.1108093  27.1410961
  45.0410957  65.3399887  26.1043720  20.7477169  30.3484726  69.3873367
  20.9090366  29.4114189  69.2771606  20.4779892  30.6487522  68.5194092
   7.9766169   6.9013810  11.2573862   7.7940412   6.8382897  12.1948919
   8.1936312   7.8230457  11.1171312  79.6466599   2.1307876  59.1094551
  79.7624969   1.2353896  59.4273796  79.3516922   2.6211257  59.8767853
  70.1028214  68.5653534  49.6447487  69.8589401  69.3016052  49.0837708
  70.8446198  68.8890762  50.1557961  15.7263422  13.3882532   4.4162631
  14.7877712  13.2408714   4.5328598  15.9409809  12.9328671   3.6021466
  73.8192139  18.9769783  88.5583496  74.5539017  19.2672596  89.0989075
  74.2096634  18.3701344  87.9294434  68.3518066  53.0710411  20.3273449
  68.4164886  52.8005409  19.4114418  67.4130783  53.1806793  20.4789829
  81.2507248  43.9669914  13.4095268  81.8142395  44.2580338  14.1264515
  81.8567810  43.7534447  12.7000704  58.4610023  14.0630026  69.0670166
  57.5176468  14.1860533  69.1726913  58.5407982  13.2824965  68.5186768
  56.6550293   5.2297959  65.0260620  55.9375038   5.5465035  65.5747757
  56.4873505   4.2922964  64.9300919   8.1264811  70.0023193   5.7644582
   7.2094822  70.0620193   5.4965377   8.3003092  69.0624390   5.8157835
  23.0508327   0.2948307  77.4762039  23.1555214  -0.0549681  76.5913849
  22.5380878   1.0945009  77.3585052  43.9499855  69.4330826  66.9275970
  44.6720047  68.8483658  66.6973343  43.8338432  69.3107071  67.8698120
  20.8216114  70.6605606  55.4598999  20.8867531  71.5230560  55.8698730
  20.0117054  70.2894897  55.8100319  17.2743988  51.5361176  52.3123436
  17.1178818  50.6555061  52.6533127  17.7828274  51.3967514  51.5134010
   0.7803577   8.2164354  52.3006287   1.0548791   7.3512115  51.9968910
   1.0383883   8.8106527  51.5959625  73.5377502  19.4050503   9.7910948
  74.2147980  19.3322563   9.1183796  73.7863998  18.7588825  10.4520607
  51.9525642  66.9234848  21.8432121  52.2983055  67.3661118  22.6183090
  51.1554642  67.4072266  21.6267395   4.7698259  44.5999832  22.3258247
   4.1531491  45.1519623  22.8067207   5.5336533  45.1597023  22.1861286
  86.3752289  20.4706573  69.6836014  86.5956726  21.2725353  69.2096558
  86.5157623  19.7698269  69.0469589  60.3134842  65.0285034  28.3527489
  59.7697029  64.6370773  27.6691399  59.6905861  65.4661102  28.9330330
  13.1305208  44.6472855  67.5140305  13.6723900  45.2021942  66.9530563
  12.4204655  44.3515511  66.9442978   3.6017904  61.0683136   1.3640243
   2.9268417  61.7468071   1.3819759   4.1735702  61.2796860   2.1020098
  82.1276550  67.0570145  82.4840469  83.0824203  67.0059509  82.4387589
  81.9426193  67.9897614  82.5935364  29.5245419  62.4538422  42.2257271
  29.3474731  61.5893822  42.5966606  30.4684277  62.4574585  42.0666656
  76.9088364  52.4311218  44.6780434  76.3010483  53.0754242  44.3151283
  77.4940796  52.9422340  45.2370415  69.6268539  44.9077187  66.4583206
  70.2175369  44.6293068  65.7584610  68.9875031  45.4709930  66.0222092
  45.9607658  21.8270626  21.7640896  46.3641968  21.3558083  21.0351219
  46.6547050  21.8928585  22.4200993  81.9703522  56.4725342  50.9209633
  82.4170837  55.6275826  50.8687782  82.5418243  57.0753784  50.4453239
  69.8442993  44.2622414  11.6235991  69.6559143  43.8733139  12.4776926
  69.8479233  43.5207291  11.0183105  28.9069405  26.1945572  67.2348328
  29.3408165  27.0353088  67.0895004  29.2350636  25.8993683  68.0842056
  77.3190613  18.9568214  11.0676527  77.4285355  18.9114532  12.0174885
  77.3177032  19.8936405  10.8711863  26.1122971  64.5025787  14.6025105
  25.4073582  64.8608704  14.0631409  26.0681438  65.0026779  15.4174814
  86.7395706  71.5822754  53.4275703  86.8074951  71.8873367  52.5228271
  86.8953018  70.6393127  53.3747101  28.2055283  46.1501350  23.7355328
  27.9512939  45.2274742  23.7527447  28.8979416  46.2200813  24.3927250
  41.0023956  50.2421684  84.1894913  40.8015747  49.3161201  84.0540543
  40.1475639  50.6596069  84.2955170  83.7040863  69.3956375  65.3533401
  84.3165894  69.8346329  65.9435654  83.2798843  70.1081390  64.8751907
  45.1327591  69.6958237  86.1986008  45.0085564  70.2496490  85.4278259
  45.1324730  68.8026810  85.8543396  24.1927586  33.8318825  16.9009457
  24.6461086  34.3156853  17.5913391  23.8571663  33.0490875  17.3377953
   0.0365677  21.2640381  39.4064941   0.2089855  21.0615349  38.4869881
   0.6538453  20.7168541  39.8920784  71.1933899  56.0771866   0.0061234
  71.0720596  56.1301956   0.9541224  72.1198807  56.2766380  -0.1282920
  66.5541992  32.7366295   7.3522048  66.4728012  33.1839523   6.5098810
  66.8536835  31.8556690   7.1276002  12.1891537  70.0845413   5.5906525
  12.5186291  70.5301514   4.8101950  11.5102549  70.6674347   5.9306059
  82.5480652  24.2542858  41.5341797  81.6484985  23.9275589  41.5179138
  82.5516891  24.9772167  40.9068146  81.5468903   6.2122726  88.1259460
  81.9319458   5.8518019  87.3271790  81.7549286   5.5689979  88.8035507
  19.7803974  25.0439053  58.9595795  20.1904755  25.6755924  58.3687859
  19.7331753  25.4983120  59.8007164  40.4992561  35.6284447  60.0610237
  40.4475136  36.5726395  59.9125214  41.2835007  35.3538742  59.5858345
  68.1967010  35.6996193  86.8026581  67.7046356  36.1218262  87.5068207
  67.5873413  35.0594559  86.4350967  40.5654526  66.2825623  37.4903793
  41.4739304  66.2935867  37.7916718  40.5957146  66.6871338  36.6234055
  80.1409378  65.2044525  65.0049667  79.7456055  66.0760574  64.9893875
  79.3989487  64.6036453  64.9362335  63.6048775  38.1893349  47.0320663
  64.4771729  38.0793076  46.6536179  63.7674103  38.5092354  47.9194679
  53.9093513  49.5037651  74.7874069  53.3730240  48.8966217  75.2972717
  53.8623886  49.1703911  73.8913727  49.4828758  65.5582275  67.2600861
  49.1210480  66.3371353  67.6827164  49.5141983  64.9011536  67.9554367
  60.1092491  49.8060226  39.5719910  59.7052574  48.9455185  39.4599495
  59.5655365  50.3957253  39.0496292  72.1466293  23.4210072  25.7130966
  71.8554611  24.1776218  26.2220058  72.8128204  23.7718945  25.1220760
  20.5866642   7.6743760  54.1014404  21.2289009   8.1650467  53.5886002
  21.0098877   7.5393572  54.9493103  45.6997719   3.3777821   6.9316158
  46.5183792   3.8736444   6.9469881  45.9745865   2.4641471   6.8542871
   0.8383523  35.4213638  74.5659561   1.5426639  34.8290863  74.8293686
   0.8723276  35.4234200  73.6093674   4.2635498   3.5059190  40.0126953
   4.5100641   3.6115248  40.9315605   3.3807032   3.1372316  40.0424156
   8.0342836  38.4540367  65.8034286   8.7875986  38.6542702  65.2478638
   8.4134216  38.2630043  66.6613235  50.0346680  68.6175919  20.8173084
  49.5556221  68.7045670  21.6414337  50.3533745  69.5007782  20.6311760
  28.2706280  17.1686325   8.4610329  27.9634247  16.2942371   8.7003899
  27.9273376  17.3099174   7.5787501  62.5629959  61.4717865  76.8390198
  63.0733757  61.4470177  76.0296173  62.9091415  60.7491264  77.3626480
  80.6980667  30.7271881  70.9227982  81.3741989  31.1437931  70.3884583
  80.3938217  31.4210186  71.5078354   4.8418632  58.9229507  47.4744148
   4.5506811  59.6308479  48.0491562   4.8488059  59.3119850  46.5998688
  59.0889397  53.9264870   0.1764318  59.1905251  52.9759293   0.2249290
  59.9477196  54.2718849   0.4202070  49.0999260  15.6384468  82.3304672
  49.9316330  15.6078749  82.8032913  48.7162628  14.7717943  82.4644241
  77.0500717  64.2186890  69.7341537  76.8002090  63.5973549  69.0502319
  76.5007935  64.9858780  69.5730591  41.8167725  68.1210480  52.3912239
  42.6253700  67.7652664  52.0226860  41.8705101  67.9198151  53.3254890
  76.8645706  70.7704315  20.0332832  77.7715302  71.0716705  19.9793758
  76.4335022  71.1722488  19.2789955  53.2941360  47.2286568  38.1820869
  54.1513329  47.6460762  38.0972137  52.9355659  47.2353210  37.2946091
   4.4025760  39.2631683  56.6906738   5.0080972  38.5844383  56.3925095
   3.5335321  38.9056778  56.5084724   5.6241698  13.0104036  29.1547451
   5.0092297  12.8960438  29.8793144   5.1273232  12.7573195  28.3767185
  11.8329039  23.0534534   6.1501884  11.3048067  23.3227329   6.9017425
  11.6068106  22.1330624   6.0160456   0.5968503  22.3590393   2.0247612
   0.0778024  22.1486816   1.2485069   1.4020793  21.8524380   1.9189655
  30.6192970  55.5052147   6.5995440  30.6364784  55.0869904   7.4603729
  30.0003071  54.9812889   6.0910311  22.1330471  61.1992569  42.2164841
  22.0028839  60.5668716  41.5098152  22.3058033  62.0271645  41.7682076
  64.0304565  51.5458565  79.1002426  63.5772095  50.7173119  78.9443207
  64.7227020  51.3265114  79.7238770  57.1552200  28.2066383  63.4856949
  57.2151566  27.5397072  64.1696854  56.2410049  28.4895096  63.5064392
  30.8843498  56.4010544  45.5937767  30.6651478  57.0792847  44.9548836
  30.8652153  55.5853615  45.0932617  67.9293289  29.7880344  24.2938232
  67.6533585  30.6575947  24.0041046  68.5858002  29.9578247  24.9694290
  57.6193733   5.0593810  48.1292725  56.7291679   5.0085549  47.7811623
  58.1021805   4.3848171  47.6516800  84.8720016  48.7031517   7.5621061
  84.0998001  49.0976295   7.9674816  85.5613556  48.7956200   8.2197266
  28.2495384  65.2265396  12.9270382  28.7263966  64.7622757  13.6150084
  27.3520699  65.2842712  13.2548285  66.7160950   5.4069085  61.2371407
  65.9814301   6.0200448  61.2134285  66.3733826   4.6401086  61.6962700
  28.7377491  52.3215561  70.8804626  28.5361366  53.2522163  70.9777374
  27.8925991  51.8822365  70.9750671  83.1114807  31.1343861  32.5063744
  83.6497192  31.7388992  31.9954071  82.5207367  30.7391834  31.8652287
  44.6835556  32.7119331  62.9966431  45.0696907  31.9780827  62.5185242
  44.3291664  33.2822990  62.3144989  51.7052803  45.3679466   7.3408852
  52.0128326  44.5393867   7.7084961  50.9362335  45.1295204   6.8232465
  16.3112640  58.5572929  83.6599197  16.4725342  59.2992210  84.2428131
  17.1803703  58.1956100  83.4865036  55.1604271  56.4498558  66.5622635
  54.3911209  56.1950760  66.0528641  55.7122498  56.9252319  65.9411850
  52.4925766  15.0315762  62.4108200  53.1389542  14.5676823  62.9430122
  52.5181999  14.5885220  61.5627174  48.4739952  32.7994423   6.0000677
  49.2089615  32.2105293   5.8290777  48.3297615  33.2502975   5.1681051
  43.5446129   0.9291998  35.7052269  43.4519653  -0.0106096  35.5490036
  44.3092995   1.1836178  35.1887398  69.0294266  15.7980127  53.8794174
  69.0003510  15.3451586  54.7222176  68.1777420  15.6180706  53.4813232
  31.3729019   2.5691257  66.8613358  31.1391163   3.0387669  67.6619720
  31.8930740   1.8246180  67.1635971  62.3523064   9.6254683  75.8399582
  61.9005432  10.4460917  75.6431885  62.1673889   9.4662342  76.7655334
  87.0139084  35.9292221  39.9244118  86.5468979  35.1672707  40.2672768
  87.0153351  36.5551186  40.6486206  34.2592735  22.3948517   2.4099402
  33.3171425  22.2805328   2.5346570  34.6588173  21.8065948   3.0506825
  82.3200455  18.2249069  64.9281235  81.7876511  17.9024067  65.6552963
  81.6831207  18.5222111  64.2783813  80.8083572  31.6540775   4.7980013
  81.4592743  32.2037125   5.2343984  80.0225906  31.7387505   5.3380332
  28.6328659  53.7143860  44.7143784  27.9660854  53.5361481  44.0511513
  29.4632225  53.5338097  44.2737770  61.9905205   5.8558536  44.3350334
  62.4836769   5.0849085  44.0545502  62.3987350   6.5844898  43.8673973
  64.5540543  38.6491470  84.0856705  65.1725159  37.9673843  83.8231125
  64.0244141  38.8060188  83.3039398  82.1555328   6.2107716  63.9435005
  82.6282654   6.2365685  63.1115837  82.5585480   5.4887710  64.4257126
  11.5339088  36.1779938  65.9122009  12.0757170  35.5721931  65.4065552
  10.6586142  35.7911491  65.8911819  32.0974693  51.2425423  67.3649063
  31.2571373  51.3661652  67.8062668  32.1296310  50.3061638  67.1689758
  37.6399155  64.7777557  83.6990662  36.8492279  64.4013367  83.3125992
  38.1153603  65.1504288  82.9565735  85.3262787  61.0443153  45.2719231
  84.8831635  60.2390900  45.5393105  86.0491638  61.1372757  45.8924255
  77.0462875  17.7550716  53.2750854  76.3822556  18.0148697  52.6364937
  77.1308670  18.5124474  53.8542709  78.3894119  62.0148621  19.9359303
  77.4681244  61.8395844  20.1275978  78.6304321  62.7168999  20.5403175
  78.5229416  20.6554470  37.6668930  79.0705490  20.9450512  36.9371758
  77.7409439  20.2931194  37.2504311  51.6264458  14.1526623  74.3041534
  50.9800148  14.3305521  73.6209869  51.3092766  13.3577805  74.7328720
  53.6662445   4.8773284   8.1124353  53.5687866   4.6534510   9.0379686
  53.8673172   5.8131709   8.1122723  20.5046043  30.6379910  66.5322266
  21.4393063  30.7881050  66.3907089  20.2721577  29.9599934  65.8977737
  49.0789604  53.1309814  79.1150818  48.7641525  53.3286438  78.2330017
  49.0226212  52.1777496  79.1814880  44.9438019  41.7946396  17.5080719
  44.9560318  42.2357445  18.3574867  45.5828323  41.0874596  17.5962086
  60.4190712  31.8560143  54.4348640  59.9607582  32.1650810  53.6534157
  60.3608971  32.5861282  55.0511246   2.6223934  52.7061577  26.5758419
   3.0187747  53.3245468  27.1896095   2.5271649  53.2029877  25.7632389
  53.8001137  64.2871323   1.0137532  53.1496353  64.8885345   1.3762850
  53.2920380  63.5266800   0.7312570  68.2212524  23.3398571  70.0014496
  68.7798920  22.5667877  70.0822144  67.8468475  23.4570789  70.8745499
  58.6745758  56.3670616  69.4409180  57.8026733  56.7516441  69.3508530
  58.5435028  55.4341202  69.2716064  11.1383915   4.1411133  85.5390778
  11.2566643   3.7020507  84.6967850  11.0055561   5.0616407  85.3127747
  83.7401657  40.0494347  62.6456375  84.0561218  40.9327202  62.8359337
  84.5302200  39.5535583  62.4308052  56.6056747  59.4842796   5.9098425
  56.3658714  59.4963837   4.9832463  57.5478325  59.6532173   5.9156432
  38.6990585  39.5435791  69.8434448  38.5308228  39.5987167  70.7841263
  39.1002464  40.3840179  69.6222153  37.6217422  45.0440750   5.5102267
  37.2485580  45.4403000   4.7228422  37.5582619  44.1013412   5.3570828
  56.6255341  32.5511551  53.7555733  57.3231201  32.3161240  53.1437149
  56.4490318  33.4743347  53.5744171  78.6281128  27.7213326  43.1908112
  78.1444855  28.4239960  42.7565384  78.8653564  27.1213436  42.4837303
  29.0210152  63.6336861  15.7505159  29.6498852  63.0441742  16.1667271
  29.4403248  64.4935074  15.7839670  84.6693268  70.2115784  35.4866028
  85.1922989  70.5933228  36.1915894  84.0942612  70.9223328  35.2031288
  11.4685812  36.5758476   2.1345756  10.8529711  36.6863289   2.8591778
  10.9133234  36.4291267   1.3688128  29.5876045   5.9376788  70.7607803
  29.5333767   5.7533112  69.8230667  29.8629856   5.1087680  71.1523209
  10.3242455  39.0882607  45.0253944  10.3548336  38.2243385  45.4364052
   9.4243221  39.1717796  44.7101250  64.4255219  29.4540539  28.6376572
  65.0336304  29.3966560  27.9006748  64.4315262  28.5774117  29.0219650
  26.2568283  11.4413557  74.2106934  25.3183556  11.5807705  74.0839615
  26.4296417  10.5916462  73.8052826  72.6193161  16.1638985  60.2702026
  73.3423157  15.8862400  59.7077026  71.8325577  15.8660755  59.8135376
  58.4454002  14.4883575   6.5988803  59.1621246  14.2246647   6.0218134
  58.6349792  14.0535793   7.4303002  57.4597969  20.6661224   7.0885024
  56.6119461  20.7041550   6.6458588  57.2912979  20.1644154   7.8860793
  20.9877281  24.7572994  73.5232925  21.3397808  23.8955460  73.3004227
  21.1298714  25.2846985  72.7372360  43.2382698  40.4089241   5.4495873
  42.4764481  40.8937798   5.7670450  43.9895744  40.8846550   5.8037734
   6.7392888  57.1046066  33.8989258   6.8755541  58.0276222  34.1127167
   6.7002387  56.6652260  34.7484245  75.3411484  35.4439888  12.0726204
  75.8330688  36.2352066  12.2922144  74.4557648  35.7564125  11.8862925
   6.1031437  65.2618942  59.2070770   5.6996722  65.7803116  58.5108795
   6.8135619  65.8131638  59.5351639  51.5291176  50.6809158  73.4414368
  52.1992111  50.1527405  73.0075760  51.4502983  50.2974701  74.3149261
  27.7200050  66.4374084  20.5810165  28.3989925  65.9096832  20.1606426
  27.0290985  66.5076370  19.9222698  57.0050583   1.5322978  79.7384949
  56.3993378   2.1614065  80.1303635  56.5781555   1.2635643  78.9250031
  43.7572479  64.5994873  52.5683479  43.7942543  64.7793655  53.5077667
  43.7196732  63.6448936  52.5085678  21.2317715   3.2380574  80.4920044
  20.4901218   2.6334047  80.4678040  21.1163311   3.7261872  81.3072510
  68.2723007  12.4159985  33.1287537  68.6298447  12.2278776  32.2609940
  67.3855133  12.7336903  32.9587021   6.6521797  41.4167213  77.8587341
   7.3417573  40.7902069  78.0782700   5.8694711  41.0716896  78.2883301
  29.8096542  22.8472328  77.9257812  29.8249073  21.9051247  77.7571640
  29.1992474  22.9500198  78.6558990  69.1455383  61.1848068  50.6151543
  69.2313766  61.3272362  49.6725082  68.6525879  61.9432945  50.9280815
  34.5380363  48.8550797  64.6519623  34.5245094  49.0376740  65.5914841
  33.6596413  48.5273399  64.4589920  45.9859657  42.8726845  71.6864166
  45.0594482  42.7543602  71.8956985  45.9906349  43.5090637  70.9714203
  46.9208527  49.8816032  74.0041962  46.3681717  49.6056290  73.2730255
  46.8910408  50.8380127  73.9792938  12.1708069  16.7738914   1.4466375
  11.2387066  16.9609222   1.5581691  12.2356091  15.8223810   1.5282567
  21.9074574  27.2174168  74.9192123  21.4437943  27.2008114  75.7564545
  21.7682400  26.3449173  74.5509796  72.3921509   4.2917500  78.0210724
  71.8311386   3.6578939  77.5741577  73.2338409   3.8449199  78.1112289
  80.5740280   0.4268007  85.4353180  80.8250809   1.2379634  85.8771591
  80.2963409   0.7054318  84.5626907   1.8785959  54.0461540  81.7577591
   1.4444566  54.3592796  80.9642181   1.3490317  54.3958206  82.4743652
  52.0820007  46.1561432  58.7363701  52.6080475  45.4541512  59.1194038
  52.2088509  46.0626297  57.7922325  63.1392746  42.0696907  43.1759224
  62.3323708  42.1238098  42.6638603  63.4523506  41.1760483  43.0358505
  41.7714996   4.1514044  83.0996399  42.0925560   3.2506080  83.1411438
  42.2109222   4.5959263  83.8245850  23.3657360  52.2287292  26.2720604
  23.8295383  52.9554253  25.8560925  23.3784733  52.4395256  27.2056732
  52.3315315  32.4911613  69.3836212  52.8998184  33.2475014  69.2379303
  52.8772011  31.7358494  69.1645813  30.2719517  55.8745499  71.7104645
  29.3507442  55.6691895  71.5509872  30.6695957  55.0331802  71.9345322
   8.4005098  32.7167320  71.3178864   7.7429237  32.8731308  71.9956436
   9.1725607  32.4170609  71.7978516  10.4695749  28.8585835  18.1518612
  10.6555767  28.5169125  19.0264454  10.1422729  29.7448559  18.3055706
  80.2124100  21.5117855  62.2642632  80.3252335  20.8782082  62.9728432
  81.0232773  21.4529953  61.7590294  68.1368027  26.1291084  69.9978104
  68.2724915  25.1832180  69.9420319  68.7843323  26.4266949  70.6368561
   9.8289022  49.1193161  80.5273666  10.6313086  48.9346962  81.0155182
   9.2031975  49.4034576  81.1936951  23.6256104  45.2262039  80.8181915
  23.5247269  45.9935837  80.2549973  23.9186916  45.5817337  81.6571960
  36.7534828  69.2150803  66.4216537  37.5198517  68.6706467  66.6019592
  36.7735405  69.3506851  65.4743195  64.1371231  45.3002815  31.1987381
  64.9692078  44.8537102  31.0423946  64.3462906  45.9785690  31.8409271
  77.9943848  31.7616940  43.3896103  78.9327393  31.8969822  43.2576523
  77.9341583  31.3011875  44.2265930  49.7586746  38.3958397  53.3409729
  50.0399742  39.3049660  53.4438744  49.4326096  38.3462601  52.4423904
  19.4180813  67.2929916  23.8879318  19.0155659  66.5359497  23.4623699
  20.1646481  66.9306946  24.3650150  66.2154007  19.8793049  30.2467861
  65.7397995  20.0362854  31.0625038  66.8884964  20.5595913  30.2272587
  62.5537987  35.4257736  42.4989662  62.1400108  34.8041229  43.0977707
  62.7345505  36.1948471  43.0394211  46.5330582  53.9645157   2.2441924
  47.0163689  54.0843620   3.0616777  47.2111626  53.8231354   1.5835705
  16.0663929  28.2027664  72.0615234  16.8894978  28.5722942  71.7418747
  16.1801949  27.2560863  71.9773941  78.1079788  54.5042229  84.7183304
  77.4509735  54.5286217  84.0226440  77.5993652  54.4265099  85.5254898
  14.8579931  25.3784542  59.6028328  14.2500963  24.6610527  59.7817955
  15.6744404  24.9444485  59.3552742  15.8737879  54.2268219  56.2600327
  15.3202028  53.4531174  56.1543846  15.8107357  54.4411507  57.1907959
  69.0032730  35.5639839  52.4227257  68.9787674  35.4582138  53.3737488
  69.6044998  36.2946892  52.2784157  25.0401516  51.2846680   3.5745938
  25.8173141  50.7372589   3.6868050  25.0496960  51.5272293   2.6486864
  34.9934998  64.9992905  31.4906540  34.6574936  64.1896286  31.1062374
  35.5180092  65.3952103  30.7946892  22.7147236  60.8314438  52.7719269
  23.3743877  60.4394798  52.1997070  23.1808777  61.0078583  53.5891266
  83.3195190  60.5646515  58.0394745  82.9097977  60.8478317  57.2220612
  84.0568085  60.0209122  57.7620201  76.5094070  49.2737770  37.9818878
  77.0745392  48.5048981  37.9065056  75.7698669  48.9764175  38.5118828
  22.4807587  60.7730904  81.7790222  21.9391556  60.8672333  80.9954224
  22.7194748  61.6696854  82.0143204  47.7996407  17.2307243   1.0821747
  48.2676926  17.3577709   1.9074116  48.1262436  17.9267330   0.5119690
  81.9861679  13.6728296  12.7078772  81.1045837  13.8038435  13.0569792
  81.8700943  13.0471048  11.9928751  21.6392708  67.3075562  46.3396721
  22.4011555  66.8488770  46.6937561  21.7031231  67.1825104  45.3928261
  81.8129654  42.4130669  50.4619408  82.0491638  42.1883202  51.3619003
  82.5228500  42.9812088  50.1627655  64.3288422  35.7311668  28.7230034
  63.6447983  36.3963623  28.6466484  64.5792923  35.5403023  27.8190804
  63.9531059  21.7466850  23.8838921  63.3760529  20.9831829  23.8664188
  63.9457207  22.0731373  22.9841118  14.0332174   3.3093493   2.1909587
  13.8822498   3.3475287   1.2465103  13.6601715   2.4696994   2.4593918
  58.4660530  63.2990723  80.3479004  57.5967178  63.5733223  80.6399231
  58.2977180  62.5886383  79.7288818   1.0243313  44.1590538  79.6249237
   0.3200428  43.6716843  80.0523300   0.7856140  44.1615105  78.6979675
  13.1174679  10.5509357  15.3835211  12.4082193  11.1709452  15.2138557
  13.2600260  10.6028671  16.3286209   4.7965465  26.8369656  64.4607849
   5.0866756  26.9893894  63.5614357   5.5760002  26.5131836  64.9122772
  62.2006950  66.0734863  65.1589890  63.1028366  66.3524399  65.0022964
  62.1345863  66.0002136  66.1110916  22.9999924  54.6054649   7.5398889
  23.8968792  54.7481842   7.8423071  23.0992661  54.1817741   6.6873274
  55.0105667   6.9053760   3.9009216  55.5013428   6.2475452   4.3934960
  54.1163368   6.8372784   4.2355094  17.3845901  69.2379990  40.0162544
  18.3093548  69.2853165  40.2587509  16.9479828  68.9058609  40.8006592
  23.3594704  12.3184261  68.2466965  22.6106129  12.2938881  68.8423843
  23.4774475  13.2474012  68.0484085   7.2311344  66.7171402  29.5798378
   6.5508800  67.2918167  29.2287960   7.5668631  66.2487411  28.8155575
  29.5060425  10.5875597  83.2241211  29.1101856  10.1950550  82.4460068
  30.0655556  11.2849512  82.8823318   8.4767532  58.2219238  62.4640732
   8.5653763  58.3289566  61.5170135   8.4722118  57.2742348  62.5986214
  65.6556931  63.6425896  34.5400009  65.2342224  62.8294754  34.2617188
  65.7992401  64.1281433  33.7276840  35.5798683   7.9607768  12.2424011
  36.3833885   8.2879467  11.8379917  35.8621063   7.2066908  12.7600193
  31.0118427  43.1012421  19.8070850  31.2418079  42.3248596  19.2966175
  30.8672199  43.7842522  19.1522465  17.4744358  63.9436646  84.0312729
  18.1578560  64.6062698  84.1318741  16.6669559  64.4466095  83.9251938
  45.8376541  71.5080566  26.4704170  45.3240280  71.3199921  27.2559452
  46.0928307  70.6469803  26.1392593  16.1794281  41.4000854  46.8934937
  15.4079294  40.9216156  46.5900345  16.0970650  42.2657700  46.4934464
  47.8974762  30.4349403  63.3727646  48.7772865  30.3270016  63.0114975
  47.3404732  29.8947334  62.8122711   5.0680509  61.0495453  10.6632051
   5.0749893  60.9716797  11.6172075   5.2480426  61.9748802  10.4971066
  58.5031128  50.0141335   5.0469790  59.2718277  49.6283836   4.6268497
  58.2775269  50.7617645   4.4934564  58.2754936  22.7681351  19.1859131
  57.7865982  22.1766300  19.7580452  58.1677551  22.3975220  18.3099728
  35.6641121  63.1448708  11.3672590  35.7344131  62.4732246  12.0456266
  34.9522743  63.7117004  11.6642828  57.6598549  16.0023232  41.2862434
  57.4511604  16.7855072  40.7770271  57.3863182  16.2166042  42.1781464
  71.7470245  50.8506889  23.9121017  72.4633179  51.4845695  23.8754025
  71.3047104  50.9399605  23.0679321  26.0024109  63.3612900  62.8035431
  26.2375469  62.7686806  63.5175133  25.4674244  62.8278084  62.2158241
  10.0890627  65.7470932  34.7856941   9.4477282  65.0565567  34.9532433
  10.7215242  65.3469162  34.1889687  61.6354256  34.7850380  33.6332283
  62.2080803  34.3587494  34.2708626  61.4855804  34.1185799  32.9626961
   3.3021522  59.9146690  88.0725327   3.5058961  60.4228172  88.8577118
   2.6888103  60.4638863  87.5842667  66.3742142  39.3709602  77.3331680
  65.5227814  39.5547676  77.7300339  66.9054108  40.1402245  77.5388336
  74.2554398  57.3052902  86.4309082  74.2361145  57.1981812  85.4799194
  73.4201355  57.7223473  86.6419907  47.1782799  64.5833435   7.6447353
  46.9630356  64.1830902   8.4871693  47.8615227  65.2214203   7.8503289
  84.1270142  33.1680832  63.4986458  84.8688354  32.7649879  63.0475960
  84.5270691  33.7454414  64.1489105  54.9459229   2.4071023  58.8450661
  55.5759773   2.7024953  59.5023384  55.3881836   2.5497050  58.0082245
  69.3865585  63.1074524  87.3244934  69.2912216  62.6717033  86.4775772
  69.4408798  64.0387115  87.1099396  34.9861107  52.1781578  49.6563873
  34.1511345  52.5242348  49.3413086  35.1355400  52.6315689  50.4860382
  69.1807175  17.8870697  74.7297058  69.5151138  18.7350712  74.4376450
  69.9549255  17.3257351  74.7713013  20.5751553  15.2073717  15.5250444
  19.7037964  15.5840302  15.6478987  20.6819649  14.6055307  16.2616653
  59.7540169  36.2164574  35.1029396  60.0954285  35.5514870  34.5050392
  58.8030205  36.1228943  35.0474014  42.9201622  11.1292028  65.5590515
  43.7693329  10.8467598  65.2193909  42.9448586  12.0843534  65.5015106
  56.0151901   3.8534443  56.5923996  56.8527489   3.4170697  56.7482986
  56.1775780   4.7700868  56.8151741  24.4730530  44.3808174  47.9256058
  23.7407112  44.7702942  47.4478874  24.1136589  44.1748352  48.7885284
  83.1025772  59.0962982  46.6551132  83.4232178  58.7586250  45.8188133
  82.2353897  58.7036362  46.7553139  53.7841339  56.2585907  18.3988132
  53.0927696  56.9143753  18.4893341  54.2900429  56.3306274  19.2081947
  83.8360748  15.6428614  50.4042091  83.8965225  15.8689480  49.4760590
  84.5863190  15.0692987  50.5603676  55.0027466  60.4836464  86.2951965
  54.3609581  59.9865799  85.7879868  55.8412933  60.0688591  86.0926590
  66.4797134  65.0516815   4.6657882  66.2205276  65.0510712   5.5872312
  66.0606079  65.8304596   4.2996111  56.0215607  41.8539314  74.0398712
  56.2981377  42.1847992  73.1853180  56.2765999  40.9313545  74.0334930
  86.8097839  26.2889328  32.4389801  87.2250977  25.8300724  31.7087765
  86.3194733  25.6091385  32.9012604  77.6745148   4.2912450  15.4864788
  78.2964554   4.0011683  16.1537704  78.2228470   4.5712914  14.7535820
  85.8649216  61.4838905   9.9045544  86.6758194  61.2866287  10.3733454
  85.2270279  61.6646194  10.5949602  69.4507217  50.7146378   6.5124974
  69.0426102  51.3229408   5.8963451  68.9568558  50.8288536   7.3244591
  17.2772312  32.3649445  16.3630219  17.0185165  33.0695343  15.7690105
  16.4580231  32.0802650  16.7680988  27.8731918  59.2054405  69.3825760
  28.7924709  59.4325829  69.5224457  27.4753628  59.2716103  70.2506638
  68.6879807   3.5519719  14.9910965  67.8474503   3.2550812  14.6423826
  68.4575348   4.2276101  15.6287785  80.3008118  29.8641376   0.2585903
  80.5565414  28.9988327  -0.0609135  80.3069077  29.7788639   1.2119650
  53.7417221  14.9281645  23.3901310  53.4356499  15.3211699  22.5727577
  54.4697914  14.3650961  23.1272526  39.6211090   4.9837532  23.0745487
  38.8175926   4.7309799  23.5291882  39.4569550   5.8788743  22.7778282
  79.1010284  51.2189865  18.3628273  78.5329437  50.7847557  18.9991913
  78.5730667  51.2699432  17.5660248  49.4779701  16.2837467  75.7148666
  49.4989548  15.9450817  74.8198242  49.6057434  17.2273159  75.6169815
  36.7408905   1.6945798  34.7825241  36.0243912   2.2696772  34.5139618
  36.3085213   0.9629504  35.2229881  71.7549210  50.5172234  41.7687302
  71.2880707  51.2868767  41.4432869  71.0627060  49.9061279  42.0209808
  11.5183477  25.5573730  89.4255524  11.8994732  26.3714561  89.0965424
  10.6385784  25.5354691  89.0490417  20.9710121  71.3158035  23.0196323
  21.3491783  70.4374161  23.0603580  20.5355835  71.3498535  22.1678848
  55.9427567  56.4406471   4.7488523  56.8224754  56.3532028   5.1158328
  55.9969177  57.2061081   4.1766887  12.6541119  49.2571220  22.3611927
  13.1381636  49.7475243  23.0255947  12.5690947  48.3769722  22.7277164
  46.8313637  47.5944366  14.0768147  46.6237640  47.2654800  13.2022161
  47.1241913  48.4940186  13.9310894  84.2662659  28.9636173   2.2184322
  84.6531525  28.0887909   2.2534726  84.1718292  29.1464748   1.2836185
  16.5901699   2.4746954  56.2559280  16.6891155   3.4165010  56.3953705
  15.7036991   2.3758228  55.9086151  25.2463570  48.3239059  54.2673836
  25.0100918  49.1148376  54.7519836  24.7022266  47.6363068  54.6512604
  50.2745895  47.6401596  53.7128410  49.6338463  46.9480743  53.8762283
  50.8807793  47.2600861  53.0769844   0.2416431  36.6849632  66.8105469
   1.0195637  36.4860153  67.3315964  -0.3096338  37.2074318  67.3930817
   1.9652362  48.7223015  31.2978477   1.4771158  48.3354301  30.5710049
   1.8053635  48.1324692  32.0345764   3.8964112  12.8054867  48.7954330
   4.0112977  12.9567585  47.8572693   4.7604299  12.5292892  49.1010780
  48.5169563  38.7789764  41.3596344  47.7814407  39.3089066  41.0523529
  48.3179817  37.8936005  41.0550804  47.0095062  71.4686279  23.0448189
  46.0540352  71.4183044  23.0170135  47.2365685  72.0935898  22.3562679
  70.7364960  51.3111610  86.5455856  71.4369431  51.8880653  86.2409744
  70.9612656  51.1218643  87.4565582  82.4467773  16.3006687  44.7174454
  82.2248611  16.7201748  43.8861847  82.7902679  17.0106373  45.2598419
  76.7603455   8.9141502  19.2210064  77.1183395   8.4022541  19.9462872
  77.4238434   8.8524284  18.5338440  79.5766602  17.2299862  89.4017334
  78.6250992  17.2473450  89.5040054  79.7201233  16.7744675  88.5721893
  50.4802666  37.5512199  65.0915756  50.3050194  37.9301147  65.9529495
  50.4347534  36.6054955  65.2321625   0.6512571  68.7428055  20.4703484
   1.2224071  69.4300995  20.1273518   1.0577223  67.9263916  20.1796703
   7.9138889  19.2881260  59.8786659   7.1207161  19.8185043  59.9548759
   7.6357217  18.4049931  60.1214218  86.9335480  57.0562057  58.5703545
  86.0498047  56.7035599  58.6746063  86.9897614  57.7573662  59.2195396
  50.9267654  44.4882774  84.9409561  51.1315727  43.6939659  84.4476395
  51.7216110  45.0183640  84.8821640   7.8444734  11.0262184  81.8725281
   7.5756578  10.1259384  82.0554657   8.5715618  11.1860361  82.4742203
  67.7148666  68.0511398  84.8127213  67.9425430  68.9690170  84.9606705
  67.0605392  68.0762024  84.1145401  57.0155792  52.2923012  33.9267502
  57.5255699  52.9356232  33.4345360  56.1047173  52.4944649  33.7129974
  56.6707802  38.3069496  82.7029877  57.3539886  38.2346497  83.3694992
  56.0277863  38.9055634  83.0830612  26.0003719  17.6170139  87.8406982
  26.3569832  18.2779179  87.2471771  25.5599651  18.1217804  88.5244293
   2.6751413  17.0804615  27.5988960   2.2831447  17.9422588  27.7398758
   3.5996971  17.1994076  27.8163357  26.6790066  40.6866417  88.5496216
  26.5551434  41.4277229  89.1426468  26.2416000  40.9516487  87.7404938
  38.5726013   5.3504114   0.3818905  39.2839470   4.8342552   0.0026740
  38.0173492   4.7064223   0.8214408  13.1232328  38.8395309  22.6447124
  13.3281336  37.9306602  22.8642597  12.2738419  38.7942429  22.2057171
  27.7273617  31.6563892  71.4397888  28.3931122  31.9173279  72.0761261
  27.2652264  30.9312744  71.8603516   8.9515581   0.8437259  23.8607311
   9.7564077   1.3519106  23.9617100   8.4744101   1.2875955  23.1596317
  19.4141159   8.8186245  84.7705078  19.7410526   9.7170820  84.8165283
  18.4617290   8.9112749  84.7458801  37.0588379  47.1428261  68.8574905
  37.2575111  47.5825272  69.6841888  37.4541473  46.2756157  68.9464188
   5.3712568  23.1818027   2.7193167   5.7502599  23.5588741   1.9253367
   4.4396744  23.0896168   2.5195978  55.8660278  61.2799797  28.0825920
  55.2096405  61.8911362  28.4170723  55.7030144  61.2456474  27.1400013
  19.2953072   5.5166039   6.0525937  19.0953503   6.2360497   5.4537220
  20.1539516   5.2015676   5.7702599  65.2573700  28.8597641  40.9425812
  65.6422958  29.0850048  40.0956230  65.9160385  28.3094063  41.3662529
  22.0923214  22.4915733  72.4342880  22.7348423  22.7006092  71.7562714
  22.6142445  22.3554058  73.2250366  10.2889824  57.6521683  15.7433147
  11.1762323  57.2994690  15.8112974  10.1255074  57.7094955  14.8019209
  27.0856953  39.9418488  73.7707138  26.8610859  40.8163223  74.0886459
  26.5631809  39.8344269  72.9759369  31.9565506  56.0438042   4.3072510
  31.7772274  55.3455353   3.6775689  31.1921768  56.0488777   4.8833928
  65.1181335  23.4825916  19.7217770  65.8744202  22.9918785  20.0434418
  65.4963989  24.2399349  19.2750359  65.1335068  47.7589035  43.7288895
  64.6018219  47.9365234  42.9530067  64.5643768  47.2375412  44.2950249
  44.6177521  50.5827560  40.9395294  44.2911835  50.7530212  40.0560150
  44.0087204  51.0472069  41.5136337   6.8290677  47.4372482  15.9427853
   6.7622371  46.6027679  16.4069099   7.4132252  47.9669685  16.4853573
  13.8514214  54.9141006  68.5507202  14.6404638  55.2137566  68.0992203
  13.2363091  55.6427116  68.4670944  20.8438129  65.4154587  87.2892456
  20.2091599  64.7077408  87.1770706  20.4394875  66.0004272  87.9300003
  25.1014137  52.0801620  74.7711563  25.0470219  51.5615578  75.5738525
  24.2405720  52.4913216  74.6928482  82.4068527  32.8968124  10.3676767
  82.3017426  33.6327591  10.9706402  81.7628403  32.2525215  10.6615744
  13.4990597  65.3059921  88.6425171  13.7615519  65.8758926  89.3653870
  14.1656408  64.6192703  88.6247101  60.8789101  23.2795620  19.6573620
  59.9610634  23.1707230  19.4084740  61.3666611  23.1208630  18.8491879
   0.4173814  50.9859123  55.2989426   1.0175214  50.3867455  55.7428589
   0.5918882  51.8385582  55.6974144  10.7844601  56.0560150  33.1334305
  11.6015682  55.9629326  32.6436310  10.7578773  56.9801178  33.3815422
  60.2045135  17.5468788  81.3093491  60.3201065  18.3980350  80.8869705
  60.9081497  17.5032730  81.9568253  48.3491287  14.0688324  68.7598114
  48.9760971  14.1346092  69.4800949  48.8190384  14.4145155  68.0009155
  34.9478683  54.9980621   3.6637657  34.2700615  54.3280563   3.5748439
  35.0754433  55.0858154   4.6083584  51.4756126  53.1291580  81.7772980
  51.0065041  52.7480125  81.0350723  51.0976486  52.7005157  82.5451813
  11.0308208  41.0448151   4.9878340  10.4435139  40.9514389   4.2377796
  11.6659803  40.3362274   4.8843665   6.0144033  29.0950508  71.1914520
   6.1348467  28.3059177  70.6632538   6.4878588  28.9143047  72.0034866
  86.4152985   9.8048124  78.1822281  87.0843811   9.9813042  78.8435974
  86.1580963  10.6704388  77.8647919  54.9141769  17.5593281  66.3025360
  54.6037521  18.4515858  66.1484451  55.7627373  17.5213966  65.8612442
  85.7782516   3.3625908  62.7390594  85.1961212   3.4298649  61.9822044
  85.1885605   3.2689643  63.4872093  28.7611961  52.9137344  55.5576782
  29.2573662  52.6259270  54.7913780  29.3739758  52.8236084  56.2874756
  81.8865967  34.5368462  55.5774612  82.0498428  34.9100914  54.7112808
  82.5886459  34.8874969  56.1255531  86.7782516  20.0900974  80.2262650
  86.0862885  20.3062916  80.8513107  86.4059067  19.3907356  79.6891632
  18.4830818  12.3419628   6.4061146  18.5102196  13.1914053   6.8465047
  18.8329659  11.7267656   7.0505877  66.4673538  38.1950569  22.2825966
  66.5832596  38.2235870  21.3328686  67.1492233  38.7732735  22.6245766
  71.6403580  13.6971903  40.7890968  70.8057861  13.7559128  40.3240471
  71.8727493  12.7695436  40.7478981  34.2270927  18.1670361  76.0210724
  34.3153992  18.7120094  75.2391281  35.1245956  18.0452099  76.3307114
  56.4257278  44.5684280  35.7087936  57.2219353  44.1407013  35.3936157
  56.5423737  45.4904366  35.4796143   3.2232273  27.1256523   7.2470765
   2.6113567  27.5923710   7.8163047   3.0617075  26.2000103   7.4296465
  72.9442902  10.2374973  69.2848053  73.1528320  11.0398893  68.8063583
  73.4194946  10.3212051  70.1114883  25.4539127  42.8355103  26.5353546
  24.9435081  42.7450905  27.3400555  25.6383419  43.7726822  26.4727364
  44.9244118  54.4778709  47.0019035  44.4328651  54.7513046  46.2274017
  45.8410988  54.5134010  46.7286720  65.4089737  63.9599800  55.2178841
  66.3149109  63.9998741  54.9114075  65.4179535  64.4271622  56.0532837
  74.4572067  55.1722412   8.9608335  75.3965454  55.1128883   8.7866173
  74.3569641  54.8352356   9.8511209  19.5805569   5.9854579   3.1102250
  18.8608875   5.6063604   3.6147976  20.0777435   5.2297673   2.7972236
  24.9866982  64.4718552  35.2906303  25.6638298  63.8075638  35.4188614
  24.2664852  64.0017395  34.8704910  55.6836243  19.0978222  25.1095123
  55.5095596  18.8930206  24.1908245  55.1368408  19.8619156  25.2923260
  69.2458038  50.5628967  32.6487961  69.9926376  51.0737724  32.9609985
  69.4136200  49.6753082  32.9654350   8.1100512   6.6347866  64.4456177
   7.3149400   6.9790478  64.0387878   7.9275713   5.7046084  64.5786667
  83.1804657  20.8454342  20.8396626  82.2695541  21.0945320  20.6833801
  83.4566269  20.4242687  20.0256691  62.3312340  18.3253059  68.7731857
  63.2765884  18.4443531  68.6817398  62.1839256  18.2954788  69.7185135
  74.4220734  37.9462166  19.9632835  74.7761917  38.8342819  19.9167805
  75.1914444  37.3868599  20.0701256  67.5569534  69.0352936  18.6926193
  67.1813278  68.2658386  19.1204929  67.7762756  68.7355957  17.8103981
  85.3158798  44.6397934   5.0031796  84.5060120  44.3843498   4.5614862
  85.0329742  44.9417534   5.8663230  33.4917259  31.6113167   5.5932469
  33.5585594  30.9139690   6.2455282  33.5830841  31.1625977   4.7526894
  51.9475212  24.1178589  85.0810776  51.8834686  24.7877979  85.7617416
  51.7187080  24.5756264  84.2721710  11.6463680  70.6544189  76.1568146
  12.0793009  70.9359741  75.3508835  12.1910715  69.9384308  76.4837570
  57.4684029  12.7338295  86.5583191  56.5267029  12.5894623  86.6509705
  57.6560745  12.5122995  85.6462097  16.3424816  35.0650826  14.9295149
  17.1590309  35.4873428  15.1963043  16.1573353  35.4275475  14.0631599
  17.9238300  52.8256340  54.7459908  17.2772160  53.3945084  55.1637268
  17.5159569  52.5655365  53.9200249  64.2695160  54.3642159  65.6885452
  64.9720840  54.9097710  66.0420990  63.7105751  54.9750557  65.2082443
  20.0751476  22.2389393  57.5750160  20.3865128  22.5726032  58.4164162
  19.1208916  22.2643566  57.6455917  13.2470732  54.0864563  60.7208138
  12.3047352  54.2540131  60.7083206  13.3949175  53.6105995  61.5380821
  57.6381226  16.6483440  83.9711380  57.5870705  17.4216728  84.5329056
  56.7431755  16.3095741  83.9480515  70.6594238  18.7441807  53.5719757
  70.4204788  18.3298817  54.4011307  71.5318222  18.4024372  53.3761253
  81.7267227  65.1551285  23.8774967  82.2526855  64.5649185  24.4171677
  80.9256210  64.6636963  23.6959724  27.5451145  54.7733154  63.2223969
  27.1460590  53.9980850  62.8274231  26.9345779  55.4837112  63.0253716
  45.9834175  50.2055855  67.1638107  45.1554413  49.9676819  66.7465744
  46.3849640  49.3677711  67.3941650  30.1171322  64.5106812  24.0740395
  30.9585114  64.0666504  23.9684448  30.2863426  65.4124832  23.8013535
  77.1852951  57.6899147  53.0249481  78.1055069  57.5474854  52.8032494
  76.7002945  57.2019005  52.3594780  14.1755352  65.8040619  85.3413239
  14.1951113  65.0069962  84.8116608  13.2996645  65.8136826  85.7273178
  62.7319984  33.5865631  20.3070908  63.3774719  34.2346268  20.0249348
  62.1351395  33.5034790  19.5633926  38.9251213  15.8649130  88.8080215
  38.6763420  14.9451780  88.8998413  38.6769562  16.0918369  87.9118347
  40.5882072  71.8351898  29.0434608  41.4325829  71.7760544  29.4904175
  40.0503464  71.1601639  29.4573135  27.6409473   6.9873729   3.9547610
  27.2544289   6.8300858   4.8162107  28.1012688   6.1743212   3.7467167
  25.3704929  56.7559471  38.5632362  24.7947407  57.3782616  38.1188698
  25.5766144  57.1749039  39.3988304  64.4755325  20.9978390  51.0062790
  65.2292252  21.5850620  51.0640717  63.7211380  21.5575848  51.1901474
   8.7178679  63.7635841  58.2935295   7.8811688  64.1359940  58.5718765
   8.6068354  62.8188400  58.4001198  56.1429787  36.5906296  48.9541969
  55.4881287  36.1111794  49.4616737  56.9640045  36.1296539  49.1263695
  61.5907135  31.8660946  24.0084858  60.8625946  32.0340042  24.6067162
  61.1824570  31.4662247  23.2405910  54.9961967  51.7533188  18.0983963
  55.4666290  52.5742912  18.2430801  55.6822433  51.1158180  17.9005089
  35.2889671   9.4708385  68.0251694  35.5886459   8.6556473  68.4275208
  34.5019913   9.7054911  68.5169373  24.5459976   4.9123173  64.5366592
  24.8128242   5.2340717  63.6755524  24.2565918   4.0139008  64.3775330
  59.1573563  49.6991806  52.4745445  59.1638680  48.8557281  52.9270668
  59.3967285  50.3347397  53.1490784  85.1772766  10.2372704  27.7283020
  85.5112152  10.6396418  28.5300598  85.7572098   9.4913044  27.5751801
  72.1555939  41.8636742  48.0772476  71.9246140  41.6001205  48.9679871
  72.4146957  42.7815361  48.1586342  13.5774841  22.9966259  14.1430130
  13.6428528  22.8961830  15.0926809  13.2661648  23.8930893  14.0178461
  50.6057091   0.8277355  88.6480942  50.0699959   0.1192690  89.0049057
  51.3268852   0.3821406  88.2035904  59.1022110  69.9017639   0.8690138
  59.5753708  70.4128952   1.5255913  58.1903534  69.9245453   1.1592301
   5.2722321  61.0816307  23.9013577   6.1036539  61.4698219  24.1738949
   4.6118827  61.7254372  24.1576462  64.2193146  11.8401432   6.1847434
  64.0638580  12.3871355   5.4147654  65.1289444  12.0170736   6.4245391
  71.7721863  19.2192478  58.2452126  71.3594818  19.3619518  59.0970001
  72.5497818  19.7772560  58.2593307  43.6856461  63.5992546  47.9682426
  43.2809219  63.4724960  47.1101265  43.0351830  63.2734528  48.5903244
  41.0505867  44.4952545  83.0139313  41.4532585  43.7920151  83.5233765
  41.4873352  45.2911377  83.3173294   2.0423965   5.2374725  76.4289398
   1.1235018   5.3908401  76.6488113   2.1663084   4.2973952  76.5598373
   9.5191526  47.5123672  22.3993340   8.9662056  47.6611061  23.1663780
  10.2141819  48.1661911  22.4746914  32.7497711  49.0698357  74.6571426
  33.3635101  48.4894485  74.2069092  33.3064995  49.6557465  75.1699677
  63.4495773  68.9604645  27.5841866  63.0734062  68.5426865  26.8094673
  63.9935608  68.2809525  27.9824104  70.4786987   6.6275139  72.4553299
  70.1960678   5.9137793  73.0271072  71.4225845   6.6916246  72.6009674
  14.4248133  43.0106659  60.1065483  14.9546719  43.1561546  59.3227654
  14.9590588  42.4345551  60.6532784  28.2061539  21.0710831  11.1855249
  27.9577427  20.1632767  11.0111351  29.0627117  21.1691227  10.7696772
  69.3302383  38.0261307  14.6733418  69.3011017  38.1157913  15.6258869
  68.4150391  37.9172401  14.4149113  30.8232975  65.3287125  69.6990738
  30.8509769  64.8501968  68.8705292  31.4991646  66.0006866  69.6102600
  10.6856537  10.0019693  55.8811455  11.2261581  10.6693296  56.3038979
  10.2725039   9.5335655  56.6065025  19.2789116  30.7228050  14.3811378
  18.6834793  31.4461575  14.5772352  18.7901993  29.9371204  14.6262741
  22.5722218  33.3842468  80.7426147  22.1017323  34.2089386  80.6211548
  23.3103409  33.4379425  80.1355438  54.4055023  54.8249054   1.4146633
  55.3320694  54.9550934   1.6165458  54.3546753  53.9249039   1.0927244
  62.4279442  45.3216400  26.1267204  62.6410713  45.1269455  25.2140865
  61.4798393  45.4532547  26.1284389  38.9705086   1.2868276  79.6748581
  39.4115791   0.6864572  79.0738220  39.5042610   2.0811386  79.6545639
  38.0514641  36.9285088   2.2477186  37.3960991  37.3837585   2.7763696
  37.7815895  37.0868683   1.3431081  47.5467186  56.8603745  72.7052536
  47.3233833  57.3476372  73.4982986  46.7501602  56.8875237  72.1751633
  48.9846840  60.1329613  69.7107010  48.0675735  60.3238258  69.9074631
  48.9596405  59.3038139  69.2330856   5.3388848  22.8361340   7.1399589
   5.4969196  23.0657234   6.2242379   4.4864178  23.2227383   7.3401308
  14.2687511  15.9869900  72.9905090  13.5271654  16.5531025  73.2045135
  14.8477974  16.5391617  72.4651108  57.8662796  65.6982803  55.3667145
  56.9570465  65.8876877  55.1351013  57.8487320  65.5620041  56.3139992
  84.5646973  46.4691353  58.2423058  84.8941498  45.7891045  57.6547241
  85.2022705  47.1792297  58.1681557   8.1180029  13.9271154  17.8715286
   8.0718164  14.2205515  16.9615860   7.2092438  13.7453165  18.1109791
  20.5916271  71.5227890  52.7154427  20.7491970  71.3261185  53.6388741
  20.8727779  70.7342911  52.2512665  62.1477776  62.2755127   7.7787728
  61.4109879  62.8814201   7.8578181  62.5101624  62.2224312   8.6631317
  83.8755569  21.0924282  54.9979095  84.7043533  20.8795414  55.4268723
  83.5129318  20.2440319  54.7430382  12.2697449  32.3455963  17.6229191
  11.7114344  32.8583755  17.0384750  11.7668085  32.2757339  18.4343414
  72.5790100  43.1602249  40.5214005  72.8341446  42.3019524  40.8597908
  71.6273804  43.1840248  40.6217537  55.2691498   1.2232951  13.0344162
  55.3129616   0.6881748  12.2419777  55.9437599   0.8586400  13.6072693
  59.6655846  42.3840599  63.8570328  60.0387497  42.2258949  62.9898758
  58.7705650  42.6754761  63.6831055  28.2750454   0.4216162  72.4913635
  28.2482853  -0.3425926  71.9156036  29.0661697   0.8919777  72.2284698
   1.8338943  10.8792562  63.3450813   1.2257817  10.3303452  62.8499794
   2.5818987  10.9964781  62.7594376  86.2388077  52.8027916  37.7413368
  86.8861694  53.3754539  38.1526909  86.7446823  52.0495071  37.4365692
   3.0348659  24.1841564   7.8330989   2.7197332  24.6655331   8.5980825
   2.2688375  23.7025166   7.5209212  35.8924179   1.9295805   9.3712864
  36.7365341   1.4787476   9.3500795  35.7431068   2.1149294  10.2984238
   3.9341073  46.7757416   3.6568255   3.1615901  47.2713356   3.3850923
   4.2728286  47.2555580   4.4126549  34.4889717   7.1700745  83.6969757
  34.0908394   6.8924074  84.5219803  35.4312553   7.1018472  83.8508530
  56.5463333  67.7241287  36.2882881  55.6014938  67.8774567  36.2878761
  56.6422501  66.8207932  36.5899734  52.6719742  32.1528358  10.0352602
  52.4385071  31.2981606  10.3975496  53.5198746  32.0110321   9.6143208
  82.2804565  66.9797897  77.3700333  83.1362457  67.2545013  77.0408096
  82.4810944  66.3505173  78.0628510  77.6961823   6.2957921  39.0077896
  77.5239944   6.1305146  39.9347534  78.3024979   5.6016655  38.7493286
   8.2138376  43.7823029  65.5217972   8.3543253  43.6977730  64.5787430
   9.0438652  43.5097923  65.9129791  68.4583282  68.6400757  41.5093117
  68.9072342  68.1555557  42.2020950  69.1320953  68.7889252  40.8459015
  80.7528000  29.6336994  52.8047676  79.9495316  29.2580719  53.1651840
  81.1469269  28.9199963  52.3032532  21.3045197  71.5364914  87.6508408
  20.8406811  70.6994247  87.6710587  22.0424576  71.3871918  87.0597534
  65.0834427  71.3598099  74.3263397  65.9736023  71.5078125  74.0070496
  65.0715866  70.4380264  74.5840302  66.1138763  36.1728859  36.5304413
  66.7988129  35.5918579  36.1995201  66.5784149  36.7983780  37.0864944
  74.7827835   3.3616273  23.7573013  74.4681778   3.8170755  24.5382099
  75.7237701   3.2613928  23.9012814  57.2054138  23.1423264  49.6329613
  57.6797714  23.3919277  48.8399200  57.8624992  23.1827755  50.3278198
  27.5815964  66.0712891  50.5598335  27.5232277  66.1056442  49.6050339
  28.5205269  66.0287399  50.7410202  11.3703871   6.7136326  53.1533852
  11.0599985   6.8951373  54.0404854  11.1812954   7.5147743  52.6648674
  70.3380890  43.2959023  37.4041290  69.7707443  43.8701210  37.9185448
  71.1727219  43.7622986  37.3583527  50.7456169   0.6119173  15.2122030
  50.4144211   1.5099061  15.2247267  51.3877258   0.6033354  14.5023756
  41.4928284  56.9526215  35.6678658  42.0285110  57.0725937  36.4520111
  40.6545944  56.6288414  35.9976654  18.7119579  43.4692268  70.9125061
  18.3362007  44.2734642  71.2706070  19.6008911  43.4418869  71.2664490
  51.2532310  54.7431221  30.7546825  50.4161301  54.9308434  30.3301182
  51.3943329  53.8085670  30.6032581  23.9117737  69.4805374  27.6413288
  24.4206810  69.6547241  28.4331017  23.1587505  68.9748383  27.9470272
  71.8100967  28.7313976  55.7930489  72.5311890  29.2639465  55.4574203
  71.8327713  28.8671875  56.7402992  26.9620094  43.4472656   8.5495081
  27.0006905  43.7268181   9.4641590  26.4735432  42.6243629   8.5710230
  83.8020630  28.3437176  26.9435291  83.5538177  28.0805569  27.8297291
  84.7555466  28.4217987  26.9751091  25.3581352  38.2689056  89.0235672
  25.7190189  39.0559044  88.6153717  25.1891232  37.6755180  88.2917480
  30.5629253  17.9237099  86.1239700  30.7987041  18.4731483  85.3764648
  29.6162968  18.0340233  86.2131653  50.7253685  25.6688728  48.3969803
  51.3823357  26.2826672  48.0685272  50.3863640  26.0829048  49.1906319
  50.6448059  14.4987488  27.5103397  50.3835373  13.5819530  27.5966930
  51.4632149  14.4689131  27.0148144   6.2764115  18.5453434  23.5657730
   6.9343677  17.8520432  23.6173420   5.5366011  18.2116795  24.0732975
  53.7747078  46.6964493  35.5066948  54.1418648  47.5678024  35.3578110
  53.8387222  46.2611198  34.6566238  58.9305000  70.7679596  41.3488884
  58.3008499  71.3431168  41.7835999  58.9478683  69.9789581  41.8905563
  71.2198944  63.3671227  11.4028254  70.7376785  63.8173103  12.0963907
  71.7011871  62.6749687  11.8561668  24.4839954  49.1897850  25.8213634
  23.8968220  49.7027321  25.2660751  25.3602066  49.3883171  25.4911003
  52.1091270   9.4148884  53.8734589  52.9659882   9.2740288  54.2761688
  51.5862846   9.8274746  54.5609474  13.2034588  44.0530396  17.7488918
  14.0348864  43.5793648  17.7245712  13.4399080  44.9616508  17.5624752
  72.9156952  26.1853466  41.5436172  72.5553513  25.7985191  40.7456474
  73.7455215  26.5744629  41.2675667  48.7646904  26.0525227  60.8872986
  48.8048744  25.1549358  60.5572205  47.8642273  26.1542568  61.1955986
  52.1091576  21.4119778  54.5551186  51.9771156  21.9122849  55.3604088
  52.4967537  20.5867519  54.8466721  34.7027359  56.0682030  26.6115818
  35.4806671  56.2492638  27.1390972  34.5505714  55.1298218  26.7234631
  60.2618065  46.6768265  27.2114105  60.8662872  46.5709991  27.9460106
  59.4000931  46.4833641  27.5805302  70.0217972  28.3763046  29.4145412
  69.6801529  27.6702805  29.9632092  69.8660660  29.1718922  29.9234810
  21.1608639  20.4589958  86.2601242  20.3984623  21.0184994  86.4082184
  20.8945789  19.8741703  85.5506821   5.8808274  52.2501564  81.8083725
   6.0857272  52.9593315  82.4177322   4.9421763  52.3396683  81.6435928
  74.3464661  10.0041761  71.5560684  73.7120361   9.8168535  72.2479019
  75.1804962  10.1009369  72.0157166  23.0338440  48.0318947  11.0322638
  23.1751842  47.2914352  10.4423723  22.1069126  47.9790459  11.2651558
  61.3813362  16.0372009  76.6378784  60.7137489  15.7528343  76.0136261
  62.2125130  15.8466902  76.2030487  18.2960052   4.4389238  76.6875305
  17.8422470   5.2503104  76.4595184  17.6379814   3.9176009  77.1473770
  68.1653900  33.0265656  54.7068138  68.5050583  32.1355438  54.7900734
  68.6141281  33.5191460  55.3940048  85.7556000  13.7189665  83.6346893
  86.0788879  14.5640993  83.9468842  85.3395004  13.9168005  82.7956696
  17.9131565  30.7328796  64.9062805  18.7813320  30.8486462  64.5201416
  17.4353848  31.5260201  64.6635971  63.1564369   9.7026138  37.6308632
  62.3686409   9.8660431  37.1123085  62.8474045   9.6840734  38.5366173
  85.6487961  29.2949467  73.8436737  86.1540985  29.6734200  73.1241837
  84.8164215  29.0417805  73.4445572  24.5085602  41.0402222  64.9564667
  23.8784142  41.6672173  64.6014709  24.8553600  41.4667702  65.7400589
  17.3305206  59.5263252   5.8797379  18.0072765  59.2228928   6.4848509
  17.0493164  60.3683929   6.2376161  67.7027130  36.9748573  18.0300903
  67.7902374  36.2022476  17.4718342  68.5416107  37.4279327  17.9452343
  72.9087982  36.3559380  11.7889242  72.6594391  36.2465324  10.8712730
  72.3742599  37.0878830  12.0967474  28.0538387  31.5851707  14.5238457
  27.1923046  31.1924629  14.6644526  27.8684196  32.4260788  14.1058445
   0.4786843  36.3993950  88.3849258   0.3017243  35.5956573  87.8961258
  -0.0414344  36.3132782  89.1838531  45.4306831  56.3841476   8.7845860
  46.0241203  57.0325508   9.1635828  45.4174652  55.6701241   9.4219456
   3.6407568  65.8734894  80.1516266   4.1150956  66.2360001  79.4034195
   4.3220096  65.4908371  80.7045364  73.3878937  51.9391937  35.6792297
  74.0139465  52.5703392  35.3243446  73.1403503  52.3001556  36.5305023
  32.8065414  70.2472382  58.9401665  33.1026421  69.4088135  59.2945709
  31.8768024  70.1142349  58.7554207  83.5933838  55.0762520   0.3284208
  84.1668854  55.8286819   0.1829229  82.8177032  55.2603416  -0.2013588
  33.5387764  70.2936935  78.2327042  32.6531563  70.0091400  78.0070038
  34.0287476  70.2243195  77.4133453  33.2999039  24.5577679  65.0566711
  33.9866638  24.7244778  65.7022781  33.6660080  23.8814602  64.4867554
  42.8410110  65.1222229  59.9803696  43.2627792  65.9642105  59.8089180
  42.5102539  64.8418579  59.1270103  16.6039944  59.5270615  26.5060902
  16.3064442  58.7169075  26.9200287  17.5586853  59.4578629  26.5030613
  77.3178940  32.8413811  46.8546371  77.4355240  33.5585098  47.4776268
  76.3796692  32.6534805  46.8800850  45.5439529  55.9306793  29.7990932
  46.0139313  56.0474091  28.9734249  46.0864525  55.3210487  30.2993679
   8.0322628  18.1802387  17.4552937   8.0066910  17.9440212  16.5280514
   8.4037733  17.4115562  17.8881207   1.5236452  41.8642044  48.4379158
   2.2741747  42.1756020  47.9319801   0.8487151  41.6891975  47.7821121
  42.2594223   0.7117640  65.0831757  41.6639900   1.4611999  65.0767822
  42.0864372   0.2755299  65.9174423   3.7787750  50.8373871  67.4093933
   3.9744351  51.7012939  67.0466080   2.9109631  50.6244316  67.0661926
  72.9752884   9.6713848  53.1142464  72.0715942   9.4814043  52.8623047
  73.4638748   9.6450510  52.2915535  21.7777195  62.6464691  47.2958260
  22.1360321  61.7713699  47.4443130  21.1647339  62.7801285  48.0187492
  40.5552444   3.3770328  78.9873734  41.4708862   3.4521055  78.7186813
  40.1058693   4.0694175  78.5027161  30.6205349  60.5795135  64.7873611
  30.1049366  60.1864128  65.4915390  31.4968853  60.2105789  64.8974991
  67.4022064  14.2862635  21.4718475  67.6250000  13.3554506  21.4854507
  68.1818924  14.7140083  21.1177921   7.3650584  13.4840488  80.4671860
   7.2527084  14.1301413  81.1644516   7.7230000  12.7142525  80.9093628
  15.7281637  46.6508942   4.6392617  16.1575127  47.5060387   4.6641865
  15.7590542  46.3941498   3.7176545  23.0095272  36.7344093  19.8083763
  22.3786774  37.4515419  19.7452812  23.1705036  36.4764748  18.9007492
  60.3807449  53.5205193  80.7495804  60.8090744  53.0765915  81.4814911
  60.9905281  53.4201546  80.0186081  69.6205063  37.7043495  59.3190498
  68.8124924  37.9289284  59.7804756  70.2937775  37.7079315  59.9994316
  69.7114334  18.9394588  50.9835930  69.3496246  18.0996628  50.7006264
  69.8239059  18.8452835  51.9294853  74.4349442  68.8965988  10.5581770
  73.9151077  69.1136703   9.7842989  74.4710617  69.7116547  11.0587893
  30.0141430   7.3234181  67.8815231  29.3176594   6.6936283  67.6957550
  29.7831440   8.0953274  67.3647766  86.5693588  22.8371677  84.0880814
  86.3789215  23.2789803  84.9155884  87.3315506  22.2902927  84.2784119
  80.6185532  26.8784180  11.4567566  80.0085220  26.7918491  12.1892881
  81.1933899  27.6014023  11.7079325  74.3553696   3.6356165  37.3771172
  75.2753525   3.3769810  37.4315147  73.8838806   2.9419274  37.8383408
  15.9551134  67.4102478  53.1826019  16.2689114  66.5336304  53.4046593
  16.6778851  67.8074188  52.6967163   8.1029654  48.9923630  68.1760559
   7.7084966  49.7375793  67.7229767   7.7061925  48.2245522  67.7646332
  86.2144699  64.2736511  37.9975548  86.7691879  64.7944260  38.5783501
  85.5303802  63.9247894  38.5690002  86.0502930  55.6754036  61.7258224
  86.2548065  56.4904938  62.1841240  85.1037750  55.5748100  61.8268585
  70.0347366  13.4295454  79.1819000  69.3790207  12.8281889  79.5349503
  70.3449860  13.9195528  79.9433899  71.2736893  59.7101250  79.7033920
  72.0049362  60.3209648  79.6118164  71.6838760  58.8453331  79.7138824
  50.3582191   5.0092463  47.6965561  50.7663918   5.5840397  47.0490685
  50.2835083   5.5495286  48.4831581  54.0785904  67.6875229  34.6734276
  53.8649635  68.5826263  34.9368286  53.9448051  67.6783600  33.7256699
  17.9175892  65.5239868  53.3483124  18.0705299  64.6324463  53.0352783
  18.2974262  65.5378418  54.2268143  76.2839813  22.0274334  41.4958115
  76.3563614  22.8803806  41.9241486  76.7702255  21.4313297  42.0654259
  33.4097099  63.6621895  61.5391998  33.0306473  62.7903671  61.4275246
  32.8647156  64.2316742  60.9961548  43.5115051  50.9226189  85.1815033
  42.7384796  51.0758629  84.6381989  44.0576172  51.6967697  85.0448151
  73.2648239  68.5093079  43.2369804  73.8799667  68.7978745  43.9111900
  73.0715637  67.5994034  43.4627075  70.4917984   7.1953373  38.6886559
  69.7694855   6.5822363  38.8250198  71.2440338   6.6384277  38.4880753
  74.0544891   9.7680244  83.2792816  73.2592087   9.5935135  83.7825775
  74.3720093   8.9015484  83.0250549  13.0020657  63.4172058  29.0743999
  12.2886591  64.0487823  29.1660423  13.7103405  63.9137344  28.6644764
  66.4148788  21.2078991  17.9879246  66.6782150  20.5785313  17.3165188
  65.6071396  21.5946827  17.6500168  28.2573757  13.1963272  56.5928154
  27.7162018  12.4417896  56.8252754  27.6997890  13.9542389  56.7685928
  58.0013809  47.7971764   2.8718324  57.9309158  48.0424843   1.9492865
  57.1202393  47.9275284   3.2223024  25.2817535  63.0061722  19.4091320
  26.1284122  62.9796944  18.9633751  25.0298958  62.0871468  19.4996643
  67.0655823   1.2875309  56.7037010  67.2938232   1.9710964  56.0737228
  66.6361313   0.6119210  56.1789551  79.9205322  72.0054398  53.9082069
  80.5434570  71.6397476  54.5362740  79.8445587  71.3356934  53.2285728
  58.4365692  29.9253578   9.5576162  58.2026215  29.2419910  10.1857166
  59.3052673  29.6746407   9.2433949  78.6495285  49.1571655  50.2204971
  78.4716568  49.3321495  49.2963905  78.3593063  48.2547798  50.3535728
  45.7864380  67.8945236  23.5568428  45.8136406  68.2952652  24.4256897
  45.3820496  68.5590897  22.9991150   1.3774971  10.9247417  16.4359303
   1.8041462  11.6927834  16.0560436   0.4428833  11.1286526  16.4020271
  55.8740883  26.2324524   8.8807564  55.6534843  25.3011322   8.8662405
  55.6350136  26.5488281   8.0095615  60.0617943  56.0042572  81.6933212
  60.3445320  55.3500214  81.0543671  60.0956345  55.5481071  82.5341644
  45.2369308  29.3972816  85.1104050  45.4580956  29.8022804  85.9490280
  46.0367622  29.4721642  84.5899277  21.9291153  60.5512352  28.2417259
  22.6555309  59.9941597  28.5214062  22.2215691  61.4417038  28.4360733
  35.2882690  52.9958649  52.2263222  34.7831192  52.9569778  53.0384445
  36.0425301  53.5453033  52.4394951  49.4842911  58.5537109  64.4456940
  49.7243500  57.7467155  64.9010620  49.9853783  59.2375984  64.8900375
  10.4136868  49.1443558  38.7330132   9.9639778  48.7150154  38.0052376
   9.9172602  49.9494896  38.8798065   5.8121128  49.0326996  21.0090122
   6.0414839  48.8703613  21.9240341   5.2384043  48.3037529  20.7729473
  66.8803406  17.1313534  47.8575745  67.2010269  16.4364262  48.4324341
  67.0386429  17.9388390  48.3465919  11.6458426   8.4173651  67.8306274
  10.7711897   8.3954840  68.2188721  11.5713720   9.0400190  67.1074448
  64.8851471  52.8867188  13.2008104  65.2651672  53.1808472  12.3729782
  63.9655190  52.7181091  12.9956827  81.2139130  36.3051033  69.2092285
  81.3522873  37.0314445  69.8171082  81.8975754  35.6731262  69.4315948
  77.4276047  30.3095703  39.2136726  77.8629150  31.1561642  39.3137398
  78.1408768  29.6903095  39.0588074  83.1629410  68.4043198  18.4560738
  83.1220551  69.2311783  17.9755878  83.1139526  67.7305603  17.7779274
  50.0292244  29.8331203  87.2951202  49.2791595  30.0295162  87.8564301
  49.7357292  30.0638981  86.4137421  42.9192162   0.8011686  30.1758881
  42.2836494   1.3974637  29.7800083  42.7512970   0.8620363  31.1162758
  79.2692947  60.4412117  71.4117355  79.8483505  59.9517822  71.9960251
  79.3431091  61.3488922  71.7065277  52.1747589  54.7984657  86.9940872
  52.2529182  54.7712822  87.9477005  51.9501305  55.7080383  86.7980118
  51.2964478  51.9241486  59.3804893  51.7207527  51.4127007  60.0694122
  50.7168312  51.3011284  58.9421730  65.8182831  63.0493317  60.0811920
  65.0652161  62.6966820  59.6071091  65.4368057  63.6355057  60.7347260
   9.4350443  70.1098328   3.0152051   8.7120180  69.5073929   3.1899424
  10.1849356  69.5404282   2.8429468  20.7757683  28.5078297  88.0317764
  20.7597446  29.4118099  88.3460922  19.8983746  28.1737804  88.2183838
  48.8214188  41.7309608  17.2547035  48.7859650  41.5403175  16.3173504
  49.7370529  41.5872688  17.4938793  83.0765991  51.1393051  25.1376724
  82.2073288  51.1996689  25.5338497  83.6382675  51.6597099  25.7120762
  56.7490463  45.5555115  70.1434555  56.0447426  45.5796127  69.4956818
  57.1106262  44.6721687  70.0713806  41.4000320  23.9819984  12.6347418
  41.0605202  23.3565159  11.9946375  42.3504181  23.9418831  12.5280132
  73.7709274  71.5821075  11.7703047  73.0123978  70.9984283  11.7836666
  74.1543350  71.4966125  12.6431856  76.3033905  30.2042732  70.1758041
  75.5140152  30.4728870  69.7057419  75.9814148  29.8685131  71.0123596
  27.3102875  12.2359390  86.5317307  27.8800926  12.3678322  85.7740021
  27.2033386  13.1103878  86.9060745  60.9989853  53.9509201  21.3048954
  61.5815887  53.2135544  21.1229763  60.5310898  53.6959686  22.1000729
  33.4345093  24.2480087  16.0719986  34.2730064  24.4993420  15.6847162
  32.7777290  24.6364174  15.4940577   9.4667559  25.0969200  76.0087204
   9.8240604  25.3560143  76.8580933   9.5761681  24.1463490  75.9827423
  67.3197250  31.0751610  11.3567009  68.0487289  30.7842464  11.9045668
  66.8963776  31.7649174  11.8678198  14.8567762  60.7737045  22.6598721
  15.5260735  60.8425636  21.9790382  14.0601454  60.5294266  22.1887684
  85.8771820  12.3775187  36.7152405  85.2756119  11.9355087  37.3143806
  86.5280533  11.7112522  36.4945717  67.9646835  68.0711060  64.0611572
  67.2247086  68.5291061  64.4597931  68.4484787  67.7069473  64.8024750
  45.0661201  42.0792122  85.1643753  44.9807243  41.7371979  84.2744522
  44.5794258  42.9033546  85.1519623  85.4987793  36.7828827  34.1846466
  86.0332794  37.3043213  33.5857735  84.7433548  37.3383904  34.3769188
  36.4960785  51.2128372  33.0050240  37.2593651  50.7612152  33.3651123
  35.9229164  50.5091743  32.7007637  62.1366577  22.5743465  87.6113968
  62.3507042  23.4258633  87.9926224  62.3659821  22.6616859  86.6861877
  30.9372959  13.0097666  84.8866272  29.9879208  13.0521517  85.0011826
  31.0726547  13.1608591  83.9511719  60.7118149   7.8939862  33.3120079
  61.5190659   7.5726080  32.9103889  60.5952911   7.3453445  34.0876656
  60.0362358  42.3818398   5.8243465  60.5137672  43.1416969   6.1572309
  59.8325157  41.8662910   6.6046929  11.3869066  68.7744751  25.8418427
  10.6176538  69.2355576  25.5073509  11.8684464  68.5116043  25.0574627
  61.2087631  42.5869026  33.7186775  61.2206268  42.4392967  32.7730026
  61.4019775  43.5191193  33.8180275   2.5283432  28.1390781  65.1671906
   2.4601996  27.6261005  65.9724503   3.2928574  27.7788906  64.7177353
  75.0663834   5.5807734  15.2919970  75.9086685   5.7990189  15.6909389
  75.2945633   5.0727057  14.5135155  10.4809637  68.5675964  29.6466694
  11.4040470  68.6812363  29.4203205  10.0058422  69.0157242  28.9469032
  20.3965931  39.6934738  67.4799194  20.7050552  39.7488441  68.3843613
  21.1236267  40.0325356  66.9577179  69.3502655  52.1865692  11.6193275
  69.0128098  52.1477203  12.5142269  69.2999496  51.2838593  11.3049812
  68.1612320  14.8913851  56.3109627  67.7564468  14.1696053  56.7920151
  67.5222473  15.6021614  56.3631592  65.1627808  49.2378120  13.3296757
  64.6382675  49.4267082  12.5515785  66.0373917  49.0498886  12.9891233
  81.4160919  27.6929455  78.6293640  81.8951416  28.4509773  78.9642334
  82.0682220  26.9930401  78.5961990  68.5769119   2.0919797  88.9200745
  68.2069931   1.7665626  88.0994034  69.5227203   2.0926359  88.7728424
  38.6914177  63.2396011  78.6489182  38.7723846  62.6303406  77.9151077
  38.1914635  62.7567711  79.3070602  83.0474625  71.5880966  84.8531876
  82.1313553  71.8017273  85.0302277  83.0817184  70.6321793  84.8890228
  31.0386791  61.2199783  48.3512611  30.0982094  61.0770149  48.4576073
  31.4396667  60.3998680  48.6391182  45.4317970  50.5556488  43.9536438
  46.1940231  50.7919083  44.4822540  45.7409821  50.6108551  43.0494385
  22.2650051  43.7456322  49.8109894  22.4442558  44.1356850  50.6665344
  22.5231018  42.8288879  49.9068947  49.8860931  29.3418255  56.5848198
  50.7744293  28.9860992  56.5613480  49.6719780  29.3901329  57.5165138
  22.5238342  16.7888470  73.1439743  23.0851879  16.1191483  72.7533112
  22.2217236  17.3113346  72.4010315  28.8217373  42.7722702  12.1100082
  29.7665062  42.8921890  12.2062464  28.7333260  41.9701500  11.5952063
  62.0307655  17.8147831  87.5232010  62.4945869  17.6482849  86.7026062
  61.1042213  17.7472706  87.2925720  12.6127148  36.2594643  25.5130806
  13.0727186  36.2004776  24.6757336  12.0423450  37.0224876  25.4197884
  25.3980961  54.8360672  55.2215271  26.1138363  55.1909752  54.6942825
  25.2700176  55.4813309  55.9168396  73.5378799  20.0070152  29.0497742
  73.6106033  19.0770664  28.8349686  73.0908356  20.3926220  28.2963219
  81.8500595  12.0751963  33.2073326  82.3821716  12.7986183  33.5386124
  81.3828278  11.7496386  33.9767036  32.9306068  54.7550964   1.5616785
  32.8335381  54.1478767   2.2952273  32.1169739  54.6636887   1.0658115
  86.9421387  51.3630676  81.7205734  86.6888962  51.8817787  82.4841385
  86.4972610  51.7854958  80.9858093  82.0453110   5.5382314   9.5099049
  82.4786530   5.1010714  10.2429361  82.6235657   5.3834286   8.7629833
  74.3124313  48.5762863  60.2628021  74.8783493  47.8508301  59.9988289
  73.8385391  48.8127632  59.4654694  83.3636322  10.5923948   6.4160604
  83.9282684   9.8630333   6.6718855  83.9700165  11.3032255   6.2081075
  76.1620102  36.6973953  34.7306213  76.1403580  35.7572517  34.5520248
  76.9836121  36.9963493  34.3409691  30.1978474  60.6403046  58.6740570
  30.3002834  59.7827530  59.0867844  30.0078831  60.4434814  57.7567749
  77.5005875  45.0088768  19.1411438  77.2130661  45.1760864  20.0386982
  78.1682281  44.3282776  19.2263794   6.3654628  25.5579605  10.3135920
   5.7213507  25.8385963  10.9636650   6.0777254  25.9689426   9.4984035
  53.8817978  67.9245758  57.5757637  52.9287186  67.8382645  57.5963326
  54.0345764  68.8564682  57.4193192  34.8486862  58.5575790  79.5089645
  34.8523216  58.3388023  80.4408188  34.2514763  59.3024559  79.4401474
  43.0833702  27.5840225  77.5283051  42.8007050  28.3959064  77.1073761
  42.2802277  27.2097588  77.8904114  39.7347717  50.1082611  66.9185562
  40.2199936  49.3633614  66.5637131  40.3995247  50.6412926  67.3546829
  34.9396858  57.0812302  43.5633049  34.7156029  57.7066803  44.2523842
  35.8927994  57.0056839  43.6091156  47.8403625  66.1002579  37.0802002
  47.9477310  65.2918549  37.5813828  48.6780777  66.5536423  37.1746063
  63.1140594  38.1549301  54.2696991  63.7819481  37.4698753  54.2990570
  63.2929726  38.6292191  53.4577446  18.9977684  48.3565331  84.2385178
  18.2438622  47.8542519  83.9293747  18.6799507  49.2579269  84.2906342
  74.1101227  36.2388763  79.3632889  74.8815613  36.1280365  78.8075638
  73.6768112  35.3855743  79.3445129  75.4996567  56.8534317  75.5212631
  76.2284470  57.0454826  74.9311600  75.9113770  56.7212677  76.3752289
  80.3465271  52.0046387   5.6397562  80.5454102  52.7371979   6.2228789
  80.4682388  52.3595848   4.7591715  47.1445122  16.1404076  84.0890579
  47.8607140  16.0291405  84.7142868  47.4909401  15.7987576  83.2647476
  68.6704178   8.6442642  82.1450958  68.9316711   8.0534916  81.4387207
  69.2845306   9.3760157  82.0847855  13.4175177   2.9904120  26.2379932
  13.8996725   3.7071710  25.8256626  12.9498177   3.4029160  26.9641666
  16.0776024  28.8872223  65.2518463  16.8942146  29.3227673  65.0075531
  16.3386211  27.9915218  65.4659042  24.9724922  16.7739906  74.8891373
  24.1915340  17.2071533  74.5446014  24.7728081  16.6190357  75.8123627
  32.5171471  24.6819191   8.7197065  32.5292244  24.7689743   7.7665496
  33.4383125  24.7266693   8.9759941  74.3890686  71.4261169  40.7130089
  74.2176056  70.4912415  40.5997162  75.2593689  71.4636459  41.1097488
  52.3904533  41.5194855  61.3580666  52.7311707  40.9136848  62.0162086
  51.9604759  42.2076645  61.8657684   2.1988835  46.3748894  77.2124329
   1.5273606  46.9730072  76.8844910   2.1707022  46.4812889  78.1632843
  59.2903938  58.5939636  28.3291988  59.3018646  59.1323357  27.5378380
  59.6727600  59.1535454  29.0051384   4.6646142  33.0539246  53.6417236
   4.0009594  33.0831299  54.3308830   4.1683221  32.9012260  52.8376045
  86.5360184  12.0911484  41.0806427  87.1326447  11.7079334  40.4376755
  86.8439636  12.9912586  41.1864853  24.9006004  46.6265907  31.8249454
  25.0516129  46.1788750  30.9924946  25.0803452  45.9622841  32.4902420
  60.2363625  53.2402611  72.1973724  60.5101318  53.5029526  71.3185806
  60.6415215  53.8851166  72.7772369   6.7921391  53.0310440  70.0844345
   7.4562707  53.0056114  70.7732849   6.0964518  52.4548531  70.4010696
  76.3597183  33.2358894   4.0432096  76.6685867  34.1397400   3.9808898
  76.0872116  33.1382751   4.9555922  21.8596630  40.1003952  69.7007065
  21.6365452  39.8199234  70.5882797  22.7920914  40.3124123  69.7437973
  43.4914207  37.0121346  18.5041561  43.9484138  36.1812363  18.3738022
  43.7584229  37.2978439  19.3778324  60.0783386   0.4293764  39.2167740
  59.8272743  -0.2484399  38.5892677  59.8281097   0.0716657  40.0686302
  24.2213612  59.2862473  29.6038246  25.1762314  59.2572861  29.6639614
  23.9554024  59.8841095  30.3024368   7.3700929   0.7545269  34.1391830
   6.6640315   0.7229736  34.7847176   8.1303730   0.3973717  34.5981445
   3.9142506  54.0179214   1.0302258   3.3861210  54.6138229   1.5614625
   3.4504852  53.9672890   0.1944090  53.3667068  34.8346329  68.1540375
  52.4774094  35.1468658  67.9870224  53.6115913  34.3698540  67.3538895
  66.4988480  22.6243820  67.7662506  66.9649658  22.8048801  68.5825806
  67.1768799  22.3114491  67.1674423  68.1100388  39.9921608  69.6478348
  67.3890076  40.4679146  69.2355270  68.7831650  40.6568756  69.7937164
  61.8353271  11.3943110  52.8905373  62.0733795  10.4680595  52.8502808
  60.8784904  11.3947678  52.9168663  47.1013412  10.7516050  60.3683205
  47.7207718  11.1540270  60.9770813  46.2406044  10.9445601  60.7399864
  13.0749750   0.9725791  80.7769012  13.4409895   1.1416261  79.9087524
  13.8366852   0.7863672  81.3258591  38.7977295  39.8944092  11.9416170
  39.5939217  40.3104591  12.2720928  38.1065407  40.5360374  12.1053410
  24.0585670  13.4406776  76.4973831  23.7219791  12.9487925  75.7483978
  23.4175072  14.1383762  76.6333618  35.4966774   9.7468824  65.3626709
  36.2881699   9.2668924  65.1189804  35.5883865   9.8981438  66.3033829
  14.6460867  21.1364250  54.1312561  15.5038090  21.3087749  53.7428741
  14.8351402  20.9260445  55.0457115  81.9799652   7.5390239  37.9902573
  82.0197678   7.4604716  38.9433975  81.1361313   7.9573593  37.8194427
  51.1508980  12.9801455  30.7036991  51.6201782  13.8050137  30.8285923
  51.8401947  12.3320103  30.5587025  74.4759674  67.8042526  31.5109158
  74.1360397  68.4306335  30.8719082  74.3929672  66.9535828  31.0799789
  28.4638615  41.8708801  44.9895515  27.9493732  42.1803055  45.7350655
  28.4122200  42.5822258  44.3511505   8.8291950  62.2100945  48.5988503
   9.2321806  62.5084343  49.4142189   7.9390726  62.5607910  48.6292915
  61.1861191  57.5813370   4.9863629  61.8573837  58.2397194   4.8069940
  61.4749641  57.1590195   5.7953424  19.1753006  28.3205070  81.3600082
  18.6234169  27.6536598  80.9513931  18.6431255  29.1159248  81.3417511
   7.2783136  48.3386078  70.8204651   8.0226374  47.7837448  71.0535736
   7.4679289  48.6317101  69.9291916  85.3653259  26.0629730  40.1926842
  85.4134521  26.3688564  39.2869530  86.2737961  25.8798637  40.4322395
   5.0228572  55.6446991  54.7882805   4.6517673  54.9380989  54.2598495
   5.9006243  55.7762108  54.4298668  72.2620392  54.8449135  82.7546005
  72.0288162  53.9729691  83.0732803  72.1253891  54.7985573  81.8083420
  49.0434151  49.6423645  64.2215576  49.8082504  50.2172775  64.1943207
  49.0405960  49.2894897  65.1113281   0.3637615  35.9031639  63.8218689
   0.6823560  36.3970833  64.5773621  -0.0380948  35.1207275  64.1994095
   2.1983073  19.0864162  72.3760681   1.7448635  19.5483513  71.6709213
   2.8855910  18.5886936  71.9331894  63.0304489  61.7723846  56.3852081
  62.3457146  62.0813408  55.7919807  63.7523499  62.3881683  56.2591209
  69.1339951  43.9452515  74.8702393  69.5832443  44.6716347  74.4380798
  69.1890106  43.2231865  74.2442780  52.4734268  35.8661880  62.7216988
  53.2316132  35.8876839  62.1378098  51.7490807  35.5836525  62.1633720
  62.6786804  24.1996651  71.5349503  63.3730850  24.2167187  72.1935425
  63.1397629  24.0880947  70.7035751  43.9565048  18.3192616  87.5161285
  44.4126167  18.6933918  88.2699356  43.1877480  17.8891468  87.8906250
  16.6036568  67.1721954  57.2771072  16.7043610  67.6547089  58.0976410
  16.0305481  67.7231979  56.7440300  67.8244705  61.4979324  31.6858997
  66.9513474  61.5536613  31.2976036  67.8396378  60.6448555  32.1197891
  71.7614059  19.7769852  19.7662773  70.9127274  19.8015804  20.2082882
  71.5643692  19.4532375  18.8873024   2.5973372  56.9079971  28.4727669
   1.9611107  57.5419540  28.8037434   2.2301888  56.0556068  28.7070065
  57.1830101  35.9566994  40.9678078  56.5923615  35.7567139  40.2416039
  57.0479164  35.2421074  41.5901718  14.8775787  58.0317993  50.0252800
  15.6163712  58.4678955  50.4498253  14.4015388  57.6139221  50.7429123
  82.0187607   7.5809431  81.9520798  82.9443588   7.3801436  81.8135605
  81.7983932   7.1406465  82.7729340   4.7769070  33.5669327  48.3831406
   4.9615817  32.6534538  48.1647720   4.0551133  33.5220795  49.0102234
  23.1818504   2.6994596  60.7276917  23.6604977   2.1431501  61.3422241
  23.3991680   3.5927970  60.9940643   5.3838129   1.5688335  75.0706635
   5.5346479   1.0751573  74.2645874   4.8738785   2.3299990  74.7934875
  23.7324104  10.8667269  57.4596252  23.3533192  11.5705891  57.9860268
  23.9921455  11.2920761  56.6424065  71.8364029  40.5704994  59.0796890
  72.5857239  41.0549469  59.4261894  72.0047226  39.6609116  59.3257446
  15.8082285   4.4717593  70.7330627  16.0843983   4.0804539  69.9043045
  14.9228773   4.7933283  70.5628357  39.1531258  48.2085457   1.7896460
  38.4562531  48.5290222   2.3622694  38.8239098  47.3741074   1.4556370
  64.9425583  46.2334480  13.6647406  64.7743988  47.1207504  13.3474970
  64.2136917  45.7150383  13.3238029  66.3791275  16.1897011  23.6053391
  66.9640198  15.6285067  23.0962276  66.9626617  16.6847401  24.1803646
  37.3204575  50.2830391  87.0391159  37.2961235  50.9305840  87.7436218
  38.1682777  49.8504448  87.1406021  18.9507713  70.2286606  19.5128517
  18.7503128  69.3754425  19.1280613  18.2289848  70.7924271  19.2346039
  23.2711945  42.1139107  12.1356325  22.4381275  42.5717392  12.2479734
  23.8126278  42.7218781  11.6321878  10.2989197   5.2543154  17.5085678
  10.0544558   6.1769309  17.4361172  10.5405865   4.9999242  16.6179981
  59.3606911  22.3860741  55.0781517  58.7350311  22.0193119  54.4534378
  58.9042435  23.1342373  55.4630394  54.5499687  30.2666321  25.5044384
  54.4984245  29.6567974  26.2404251  55.0633698  31.0022354  25.8384094
  57.9846649  65.2572708  58.1345139  58.1337318  64.4879684  58.6842270
  57.2841034  65.7360535  58.5774689  14.4713097  31.2570782   6.9456038
  14.9022589  31.6572742   6.1903830  13.9677658  30.5311756   6.5771766
  42.1448326  43.8897133  48.3524895  41.6437683  43.1345940  48.6606522
  43.0573196  43.6588936  48.5266190  37.5517120  55.7855148  77.4645538
  37.2928047  55.0675964  76.8868027  37.0904617  55.6110001  78.2849350
   1.5161374  36.8929405   3.0164011   1.5604886  37.8420143   3.1327004
   2.3774352  36.6530151   2.6745927  80.4191818  25.7596626  47.1559486
  81.2455826  26.0250835  47.5594902  79.9239502  25.3550014  47.8681450
   7.0863266  67.0030823  64.8101578   7.9776301  67.2011490  64.5227890
   6.8494396  66.2111893  64.3274384  68.4327011   8.4679670  68.1020355
  69.0810165   8.8537674  68.6911697  68.9296112   7.8406496  67.5768738
  37.6106796  56.4318199  46.0273819  37.7668762  57.0429916  45.3074455
  36.6620331  56.4482880  46.1539879  53.9191933   0.8197948  86.4787445
  54.7783279   0.4050860  86.4003906  54.0191536   1.4438809  87.1976089
  30.8153801  48.4045525  53.6163788  30.9448681  47.8383636  52.8555260
  29.8735867  48.5750046  53.6305771  46.1637764  32.7423286  48.6415596
  46.6330872  33.5220833  48.9381409  46.4346161  32.6319656  47.7301331
  18.0344868  44.1311531  33.3467979  17.6440601  43.4234085  32.8340683
  17.3046074  44.4943275  33.8484116  59.0552711  64.0307693  25.8960629
  58.1478271  64.3352966  25.9025440  59.1617432  63.6133842  25.0412617
  61.5802193  49.2968369   8.9811831  61.5646019  48.6929169   9.7236586
  62.4151955  49.7573738   9.0645657  80.7150116  52.0574684  25.8150520
  80.5628738  52.9945946  25.6930828  79.8765945  51.6487274  25.6000576
  36.7229424  70.1715088  70.1109390  36.0238419  70.3733139  69.4890366
  36.2658539  69.8626785  70.8931961  36.2285347  22.5179043  67.6673431
  36.9847641  22.4608440  67.0833130  36.0313263  21.6089134  67.8933411
  72.0249405   6.5296907  56.1648445  71.4116745   6.0367379  56.7099419
  72.3499298   7.2241211  56.7378922  34.8973732  23.5664902   0.0559151
  34.5423317  23.3417892   0.9159654  34.3125343  24.2487354  -0.2738352
  25.3722801  56.8465157  43.0939789  24.8443890  57.5484200  43.4746284
  26.2655201  57.0359383  43.3811646  25.5840855  60.5459747  51.9210663
  25.8066635  61.4761391  51.8825989  25.9759521  60.2395554  52.7388573
  26.5080986  25.6724968   6.2891450  27.4411545  25.5437527   6.1186695
  26.2065639  24.8271942   6.6219711  39.5093498  61.3497314  68.3703308
  39.1821938  60.9587669  67.5601807  39.6845932  62.2626305  68.1420059
  34.4846420  19.1299839   5.8662610  33.7500229  18.7569790   5.3789859
  34.7290306  19.9112988   5.3702240   5.4848127  66.9849319  57.4011726
   5.5204239  67.9149780  57.6247215   6.0160418  66.9085922  56.6085815
  83.3648071   4.4737935  16.1399879  84.1788940   4.0068383  16.3282452
  82.6818542   3.9352779  16.5397549  14.5245724  23.2764111  19.3629799
  14.3111696  23.0510807  20.2684727  15.0047846  24.1018524  19.4283752
  16.0608635  63.4147491  39.5390320  15.5624781  62.7224846  39.9733238
  16.4880142  63.8868256  40.2538185  55.0489922  40.0785065  10.4587421
  55.3653717  39.2110062  10.2065859  54.4063454  39.9082375  11.1473961
  42.2451820  42.6683159  87.0301819  42.6157684  42.4290543  87.8796844
  41.9902344  41.8339005  86.6365128  41.4954758  34.8783913  67.7256546
  41.4917221  35.8278580  67.8470078  41.9154892  34.7472382  66.8755798
  60.8560715  49.0460510  15.6708927  61.6854820  49.5238571  15.6740179
  60.2344360  49.6425819  16.0879707  60.8441658  20.6712074  21.4243908
  60.9112663  21.6259708  21.4369183  60.4179993  20.4719734  20.5907726
   7.7072806   3.9949780  21.3122959   8.4207897   4.3649292  20.7924175
   7.8120208   4.3897696  22.1779747  19.9016113  35.3807449   3.8288305
  20.2112999  36.2814560   3.7337182  19.6363525  35.1241531   2.9456372
  24.9848042  12.7509584   3.7559085  24.1405563  13.1381359   3.9873662
  24.7853298  12.1559458   3.0331352  16.9745121  71.3380890  18.0528297
  16.0581093  71.2939606  18.3257580  16.9403324  71.3272095  17.0963020
   6.6871247  29.6413422  15.7705002   7.4994307  29.8571491  16.2285614
   6.1988945  30.4643612  15.7480564  72.0248108  42.7636375  74.7775955
  71.3299866  43.0823441  75.3536835  71.9237900  41.8118057  74.7843704
  12.7389212  59.0153275  30.1102505  12.9860287  59.4435501  29.2906189
  12.8440742  59.6945038  30.7765045  52.2358551  44.5088310  73.1876984
  52.1532898  45.4623528  73.2022781  52.8102264  44.3068390  73.9263000
  29.0882931  68.4398499  31.2672348  28.4412384  68.6352158  31.9450130
  29.5748081  69.2569046  31.1579266  37.5825005  59.3220940  73.0991287
  38.3674126  59.0718994  72.6117401  37.4006462  58.5700531  73.6626892
  44.1426620  19.5534058  68.0549164  44.1258888  20.0778332  68.8554993
  44.9814987  19.7669201  67.6462631  12.4320831  61.1411858  43.3498688
  12.8108177  62.0193253  43.3906784  12.7699766  60.6982040  44.1282158
  44.9837952  59.0919342  39.8477631  45.8928070  58.8098335  39.9494896
  44.5548515  58.8143158  40.6571846  55.8801041  12.6226244   0.7850914
  55.7835464  11.6870174   0.6074734  56.8102455  12.7985907   0.6432868
   9.1496830  35.2042274  70.3891678   9.1170816  34.2669640  70.1975784
   9.3652773  35.2509422  71.3206024  55.9466019  61.6879387  88.9192810
  56.8571167  61.4330368  88.7702179  55.4605026  61.2648849  88.2114944
  72.8874741  36.8005142  36.7911453  72.3684845  37.5289421  37.1321335
  72.3723526  36.0211563  36.9996796  51.3597221  62.8130226  28.9571915
  50.8458633  62.0631523  28.6574001  51.0616417  62.9644394  29.8541050
  32.8296661  43.5020752  71.8292694  32.9220924  43.0293922  71.0020676
  33.1540642  44.3824310  71.6396179  42.3156166  36.7910423  57.4765472
  41.8187752  36.5865860  56.6843529  42.3964157  37.7447968  57.4691200
  76.6660690  21.1437931  57.9052582  77.5822525  20.8874397  57.7997780
  76.6984329  21.9288063  58.4520149  56.2377510  53.5615425   8.6226187
  55.6711922  54.0597343   9.2117233  55.9485703  53.8105316   7.7447739
  64.3953781   3.3871636  25.3397007  63.4864082   3.5918469  25.1203632
  64.3775558   2.4659679  25.5991478  58.9290848  39.8398018  31.0670967
  58.7113800  40.3214188  31.8651447  58.1280899  39.3633499  30.8488464
  49.1552277   5.3646765  81.6442490  49.3303871   4.6830196  82.2930145
  49.7369080   5.1550293  80.9135437  85.0188599  21.5666008   8.6411886
  84.4815063  21.9446602   7.9450927  84.8975906  20.6214237   8.5508204
  16.3065052  65.5910339  81.1150742  16.2711620  64.6359253  81.1675110
  17.2390842  65.7995834  81.1701736  29.4440136  63.1549644  71.2549973
  30.0029278  62.5958328  71.7946472  30.0496635  63.7673683  70.8374100
  12.1040363   1.2722492   8.1717234  12.2008305   2.1981118   8.3945265
  11.2528057   1.2181604   7.7373133  74.0327454   6.5363092  64.7359390
  74.5416107   7.2851801  65.0465546  73.3486176   6.9220095  64.1887283
  45.0356674  44.1830711   5.1148696  45.3914757  44.5229149   4.2938099
  44.0981674  44.0861816   4.9477215  64.8795624  28.5691242  69.3733368
  65.6499176  29.1330090  69.4427414  64.2798386  28.8995361  70.0422134
   1.9421321  45.3139114  16.4399929   1.8883086  45.8086624  17.2576447
   2.8265378  44.9477692  16.4393692  41.7907524  49.1451721   5.9977517
  42.6391258  48.8625679   5.6562448  41.2183380  49.1648178   5.2308178
   5.2243958  21.2132378  84.0080490   5.3456407  20.2715702  84.1296844
   4.4275136  21.4173164  84.4975052  51.7105789  61.5162849  34.6363869
  51.8856125  61.0065079  33.8453598  52.3717117  62.2084122  34.6264648
  48.9387894   5.6301761  51.7927666  48.3147392   4.9885602  52.1320610
  49.7501297   5.4493480  52.2673836  65.0543976  37.0674629  75.7662811
  64.2633133  36.5974884  76.0299835  65.3453369  37.5122375  76.5623703
  54.7068405  25.8270073  12.4708099  55.4270859  26.3614292  12.8052816
  55.1365128  25.0826244  12.0494957  55.5625496  66.0981750  88.9440308
  55.4928055  65.5385666  89.7174606  54.7122040  66.0168991  88.5121231
  10.0282001  19.4690895  12.2945070   9.6113749  20.0993195  11.7068844
   9.6789980  19.6814117  13.1600761  59.0833893  23.0540123  47.0017204
  58.7048988  23.8616791  46.6543694  60.0035782  23.0890198  46.7404594
  18.5749569  48.1494179  44.0478401  19.4721355  47.8674049  43.8695984
  18.6049938  49.1034317  43.9758301  47.8660965  54.9815788  33.3407211
  47.2214622  54.4367828  32.8891983  48.5008850  55.2131729  32.6627502
   6.9966626  47.2701759  31.8198414   6.1003289  47.2308960  31.4862633
   7.3836160  48.0261993  31.3783417  30.4653244  70.9753113  31.2715950
  30.9234791  70.7364120  32.0773582  30.8003788  71.8452682  31.0544872
  75.1820450  17.5428104   1.9564381  75.6351929  16.8435020   2.4274552
  74.3849030  17.1301765   1.6239712   7.3710651  33.0494957  68.1326523
   6.6859889  33.3028946  68.7512741   7.7875118  32.2875061  68.5353546
  66.8800964  56.0672112  29.6260338  66.7971878  55.1203079  29.7388725
  67.6956635  56.1797333  29.1377506  74.7481308  35.3647308   8.8542700
  73.9799042  35.8857040   9.0880451  75.1614685  35.1580276   9.6925173
  49.7514572  19.7877998   2.1597779  50.6342239  19.8399487   1.7933978
  49.8882217  19.5994053   3.0882361  63.1838875  56.3644905  68.5178909
  63.4604301  57.2773476  68.5981750  63.7637291  55.8856049  69.1100769
  25.0153160   9.6237345  88.2237091  25.5676422   9.8004646  88.9852448
  24.2926273   9.0992765  88.5685196  49.7931328  49.3491058  29.4581070
  48.8439598  49.3903542  29.3414803  49.9108620  49.0324364  30.3537025
  35.7569580  16.9542274  72.0606537  36.0344810  16.9386158  71.1447067
  34.8479919  16.6548672  72.0406494  78.1207581  22.6857262  77.0822830
  78.3660736  23.5879230  76.8771210  78.4383698  22.5481911  77.9747162
  37.3530502  34.0959396  13.9018936  37.7979240  34.2181396  14.7405739
  38.0385475  34.2241478  13.2462349  14.0057030  37.0232773  63.2265587
  14.6837702  36.7409554  62.6127586  14.4611998  37.1083565  64.0641251
   4.9254141  13.7577753  71.9444656   5.6992984  14.3210964  71.9425964
   4.2066746  14.3373528  71.6920013  51.6633530  34.8775864  39.5234604
  50.8364906  35.3361359  39.3742561  51.5976982  34.0856056  38.9898987
  63.7601662  20.6739559  43.3016663  64.0837555  20.4676971  42.4247513
  63.3820610  19.8529606  43.6166878   1.4080862  35.8725853  47.6873741
   0.5941248  36.0952187  48.1391830   2.0807478  36.3796997  48.1418953
  40.0375633  44.7388420  86.9671173  40.8195572  45.2907448  86.9779663
  39.3667450  45.2653809  87.4018478  47.7373924  27.3906803  75.6627960
  47.2264214  28.1974888  75.7276154  48.4734421  27.6183128  75.0947800
  32.2776299   5.2556467  57.4240417  31.6492939   5.0887718  56.7214890
  33.0062866   4.6630106  57.2394562  59.5934982  58.0982933  67.4241409
  59.1362000  57.4360962  67.9424133  59.4709396  58.9119301  67.9132309
  44.0314217  58.5349922  17.1447411  43.0819054  58.5217552  17.2650604
  44.1532326  58.7804489  16.2276001  41.4076080  59.5923538  14.2701654
  41.5928535  60.5296364  14.3286676  40.4543495  59.5322495  14.3327475
   7.0514822  63.9778099  54.6838989   7.0442958  64.6062012  55.4059105
   7.9637308  63.6946259  54.6219139  29.3006344  71.1200562  59.9728127
  28.7345428  71.3662033  60.7043762  29.2395420  71.8564682  59.3643761
  72.0994720  65.6136322   9.8913708  71.6763077  64.8144760  10.2052336
  72.1594696  65.4963837   8.9432745  48.8202438  49.3130302  85.0243301
  48.9742622  49.8675575  84.2594757  48.9778061  48.4226532  84.7102661
  47.7414131  46.2963409  80.3290100  47.7872772  47.1860695  80.6790314
  47.0580559  46.3370934  79.6599808  12.2054005  53.5192871  47.6515274
  11.5466661  54.2037201  47.7692146  12.2530909  53.3931694  46.7038727
  39.8749237  31.1477222  40.6544952  39.6851959  30.4737225  41.3071518
  40.8050919  31.0359631  40.4582100  50.8119583   0.4521429  31.1899891
  51.5872574   0.8383442  31.5974083  51.1166954   0.1489998  30.3347282
  50.3287277  20.9568119  88.4129105  51.0908508  20.5072823  88.7780533
  50.6673622  21.4172268  87.6450729  27.1659164  68.0802612  34.1769295
  26.4949970  68.3115540  34.8192749  27.7250290  68.8554459  34.1248779
  62.4163513  69.0201187   0.4525052  61.7698898  69.3668823  -0.1623726
  61.8981781  68.5454788   1.1024665   2.6492465  18.4439316  75.0900955
   2.0629745  17.6873131  75.0833359   2.5763273  18.8113098  74.2092209
  12.2354650  36.3730965  69.4082031  11.4545107  36.7506180  69.8129501
  11.9102879  35.6168938  68.9196854  57.4892502  58.9267502  12.9068155
  57.2079391  59.6649437  12.3662872  58.3344383  59.1996384  13.2637711
   6.4035926  18.8750877  11.7864943   5.7667851  19.4521160  12.2080956
   7.1209993  19.4554348  11.5320206  65.6705780  43.7962074  80.6223221
  66.5788269  43.7524109  80.9213104  65.7299881  44.1152267  79.7218094
  34.8015366  15.3422489   7.6279655  35.1098099  14.5326996   7.2207441
  34.1306572  15.6709852   7.0295644  43.6740913  38.3496857  63.8320045
  44.2457733  38.7801743  64.4676819  44.2508316  38.1329422  63.0994568
   5.0147505   6.7238979  56.0797462   5.2442126   6.7714448  55.1516762
   4.4158335   5.9796996  56.1405716  74.2679138  12.4201498  67.7863770
  74.1737289  12.9121647  66.9707336  74.7043762  13.0277014  68.3835449
  11.3787136  41.1112404  31.6572380  11.9982777  40.5897865  32.1675835
  10.6188755  40.5397377  31.5465145  64.5582199   8.8695726   4.9609947
  64.8908997   7.9954638   5.1646748  63.8283806   8.9953814   5.5674133
  60.5217438  61.1736526  57.9055290  60.4850044  62.0477715  57.5172005
  59.6416397  60.8187485  57.7802963  53.0913467  66.2530136  69.2311325
  52.4493484  66.8557434  69.6063461  53.0310593  65.4688110  69.7766876
  27.3875008  46.2454872   8.1149950  27.2089005  46.7166595   8.9288330
  27.1555462  45.3371506   8.3082676  51.6612778  70.8516693  86.6996918
  51.8154068  69.9426880  86.9570236  52.5330734  71.2464600  86.6811371
  31.0428696  58.9073029  67.9047394  30.6373978  59.5161591  68.5220871
  31.2808628  58.1487389  68.4378204  35.9035416   1.9565772  71.7891235
  35.1679840   2.1439970  72.3722763  36.2135773   1.0938089  72.0643387
  76.1822205  20.3793774  82.2234116  77.0045929  20.0337505  82.5704956
  76.0028305  21.1527939  82.7580795  75.5523834  69.2568436  56.8898773
  74.6828918  69.6538086  56.8385391  75.5361481  68.7486191  57.7008514
  41.1022301  53.3468285  47.9077682  40.2388039  53.5850182  47.5701485
  41.4184380  52.6747360  47.3040009  36.9585304  46.1618538  44.6170044
  36.0083084  46.0908089  44.5261078  37.1484261  45.7627258  45.4660454
   4.4357128  34.1043129  41.2280350   4.3289251  33.3822250  40.6088295
   4.6183815  34.8662682  40.6782265  14.3313236  13.7736177  89.0471191
  13.6176395  13.5395145  88.4537506  13.9444227  13.7178154  89.9208603
  56.4216995  33.7600021  56.8321190  57.1384392  33.8569946  57.4591026
  55.7778969  33.2165909  57.2864914  24.4479599  63.7092590  68.5221405
  24.9484863  62.9168663  68.3276672  23.6184502  63.5879974  68.0601425
  44.5972710  57.7378654  80.0042648  44.9187660  56.8844261  80.2949829
  44.9066734  58.3503723  80.6715927  28.3857365  46.5853539  43.6489792
  28.4056568  46.9479446  44.5346222  28.5239677  47.3408432  43.0777016
  45.9209404  58.6407967  25.7764072  46.6602097  58.8047791  25.1909008
  45.4823151  59.4882622  25.8515034  76.0211411  50.7705841  75.7042007
  75.3447647  50.9129066  75.0420151  76.2577515  51.6503716  75.9978333
   7.6296549  49.7229271  40.4793053   7.2838893  48.8758736  40.1979218
   6.8652468  50.1967430  40.8070450   7.5309253  17.4621105  63.7294998
   8.1909714  17.8123245  64.3277664   6.7064481  17.5419273  64.2091904
  76.5929718  26.3731785  32.0864830  77.4584045  25.9719391  32.0073357
  76.2496262  26.0404301  32.9157143  71.3678970   1.7778869  19.1469460
  71.9195786   2.4746878  18.7914925  70.4725418   2.0754275  18.9855633
  85.5180359   1.4036547   8.3908396  85.2720108   1.8611802   9.1948137
  85.8252869   0.5469337   8.6872454  80.6543427  12.4271631  27.6397514
  80.5525513  12.7716122  28.5270100  80.1812592  11.5951099  27.6501026
  36.5615768  33.6986160  84.4875870  35.6668396  33.7420731  84.8249130
  36.4697723  33.3201828  83.6131821  55.0982895  41.1111794  14.6566906
  55.0181541  42.0635757  14.7091084  55.9870529  40.9284592  14.9615517
  61.9912910  37.8593140  88.6710510  62.1485825  37.7543907  87.7327118
  62.7750397  37.5001106  89.0869141  52.3840446  66.3211823  14.2025127
  52.3458176  66.9214554  13.4579048  51.8360405  65.5809479  13.9417973
  55.9919510  32.9943848  63.3072128  56.4193573  32.7174225  64.1176758
  55.6939011  33.8862000  63.4862785  84.9037704  58.5561295  83.7710800
  84.0440674  58.6814690  83.3692932  84.9446259  59.2184715  84.4609070
  87.0887299  47.9100380  17.1577129  86.7224045  48.5941505  16.5973263
  86.3684158  47.2923584  17.2836399  17.8250656  54.7860489   1.3811094
  17.2144566  54.9956436   2.0878336  18.6831684  54.7639351   1.8046685
  32.8153152  51.9841957   7.8178620  32.3112335  52.1815453   7.0284395
  33.5990295  51.5384521   7.4964080  21.9603291  29.5393734  10.5048227
  22.1686440  29.2665310  11.3983517  21.1467152  30.0364246  10.5897036
  30.7480469  37.1628647  85.0054703  30.2863331  37.9867363  85.1613159
  30.9311581  37.1649361  84.0659485  80.6992264  18.7067852  85.8778839
  81.3586960  19.3470440  86.1450806  79.8706207  19.1840191  85.9214172
   8.9221725  69.1166763  57.8668327   9.4080935  69.9033051  57.6191940
   9.3654041  68.7990952  58.6535492  53.7285957  59.5856400  44.3018494
  53.3669357  59.9180450  45.1233978  53.4771576  58.6621971  44.2857361
  67.7835693  23.9011803  27.9971294  67.4019394  24.6503754  28.4546185
  67.6349106  24.0857525  27.0697327  60.5525703  67.8532257  40.9717216
  61.4043007  67.6936417  40.5651283  60.6007347  68.7576370  41.2815018
  82.3457489  58.4776802  82.7323532  82.0314255  58.1954308  81.8734207
  82.0183563  59.3723564  82.8250809  37.8733940  32.6442719  65.9721069
  36.9464874  32.8113937  65.8013763  38.2559891  32.5088387  65.1052094
  27.2880306  58.7690582  60.4627075  26.5056267  58.7332306  59.9124413
  27.9900665  58.4377213  59.9027176  60.5512962  62.8630600  12.5461264
  59.7971001  63.0289497  13.1117229  60.4186668  61.9709320  12.2255831
  38.0929451  36.6408806  76.5438156  37.6259346  36.2901649  77.3021851
  37.4015121  36.8838730  75.9280930  61.9004898   3.5051382  33.4649734
  62.0413895   3.1891289  34.3574524  62.0999718   2.7513959  32.9097137
   3.5774040  53.4051704  34.1487503   3.2548752  53.0615005  33.3156281
   3.1823053  52.8379555  34.8108673  13.8252954  35.2268486   1.6957114
  14.5738649  35.7122154   2.0425429  13.1272163  35.8784142   1.6295402
  85.1323547  37.1885834  41.7288780  85.4875259  36.4082756  42.1545563
  84.1905594  37.0255394  41.6772118  86.8198242   2.1693506  55.1203423
  86.6425171   1.5038961  54.4555359  86.2342834   1.9468131  55.8441162
  15.4275646  49.2797890  57.3858070  15.6877022  49.0886726  56.4846764
  14.4966488  49.0593872  57.4182281  76.2309494   5.6240306  67.2840271
  75.7797089   6.4608064  67.3954926  75.9413834   5.0948949  68.0272598
  61.6722183  25.3878822  12.5870295  62.4524841  24.8338890  12.6096849
  62.0123711  26.2820644  12.6180983  66.3031158   9.6636124  37.5298691
  65.3638000   9.6210051  37.7090454  66.4880981   8.8679752  37.0308990
  23.8881416  69.3417740  43.3452606  24.5135651  68.7145844  43.7081795
  24.4010162  70.1377716  43.2053375  11.9841537  14.9307632  18.7203693
  12.1929655  14.0022936  18.6175442  12.8216553  15.3424606  18.9332771
  73.7324524  33.7187347  20.4939861  72.7898865  33.8810120  20.4556332
  74.0667038  34.3884277  21.0906639  23.4856091  46.5857010  17.5474091
  24.4070339  46.3361168  17.6175327  23.2215290  46.2850266  16.6778774
  34.3059845  70.0572815  44.0719261  34.6725960  70.9213715  43.8843460
  34.3949738  69.9600220  45.0200043  68.7421494   6.0131903  36.0634918
  69.1408768   5.5501900  35.3266869  69.4809494   6.4094048  36.5254707
  70.3051376   3.9739289  34.3363647  70.6449356   3.2098010  33.8706627
  71.0864334   4.4399295  34.6341095  50.9532661  10.1147804  29.1461105
  51.3264809  10.3651419  29.9912510  50.3391724   9.4107494  29.3545856
  60.7347870  39.1566429  52.2500343  60.7488785  39.0272751  51.3017235
  60.1073608  39.8667068  52.3856010  54.8520470  31.4241982  76.6223831
  54.3825226  31.6270771  75.8132935  55.4158058  30.6853237  76.3933029
  53.9303551  46.9716530   2.5084994  54.4425583  46.8396187   3.3062742
  54.0595093  47.8948212   2.2909877   0.8695309  47.6193695  89.4214096
   1.6753010  47.1031075  89.4004593   0.5206835  47.5550461  88.5323639
   2.3150909  18.3160934  49.0817070   1.5421548  18.8063946  48.8016968
   2.2373180  18.2701130  50.0346336  24.8073254  66.9143753  26.2906132
  24.2958393  67.6994858  26.0951118  25.6944981  67.2388306  26.4451675
  58.8119888  12.4746323  66.7035370  59.0411224  11.9536095  65.9339523
  57.9009933  12.2444115  66.8860703  82.7687149  55.6912384  45.5661659
  82.1080627  56.0892525  46.1330490  82.3621902  54.8820038  45.2561493
   5.3287997  46.9241447  80.4441299   4.7604685  47.6398964  80.7286148
   4.8789353  46.1309509  80.7351608   1.2114292  66.4000092  82.9488144
   1.5210520  66.4706039  83.8517990   0.5043132  67.0422058  82.8871841
  85.9006577  29.1187801  66.1884155  86.6330795  29.6264515  65.8390503
  85.9911118  29.1906013  67.1386261  44.9886131  40.5327187  39.3468246
  45.8250732  40.9190178  39.0873222  44.3295059  41.1370621  39.0053940
  36.0026550  40.7366486  69.9681931  36.2534714  40.5858269  70.8795471
  36.4276199  40.0296097  69.4826660  27.4709320  25.9208031   9.8166666
  26.9607239  25.1817112   9.4855127  28.0946789  25.5270786  10.4267111
  54.7241974  27.2975273  48.9807358  54.1530037  26.9915638  48.2762108
  55.0497398  28.1440105  48.6745987  57.5377960  21.9053707  26.0836658
  58.2708626  22.4746113  25.8495579  56.8928452  22.4942913  26.4753876
  47.3020020  38.1557007  16.7187805  47.0773392  38.2507858  17.6443710
  48.2586517  38.1825104  16.7005348  19.2565727  30.4291992  17.2997684
  18.7168770  31.0574417  16.8199005  18.8761520  30.4081917  18.1778736
  51.7873154  32.0342827  83.5873718  51.8446693  32.9698219  83.7815628
  50.9129448  31.7813492  83.8835678  45.7771721  37.1289330  51.0708084
  45.7951469  36.6841354  51.9181938  45.6525230  36.4255371  50.4336815
  53.8459740   0.8514588  83.7485352  53.9026718   0.8788576  84.7036667
  54.4572411   0.1609593  83.4920273  78.0494385  68.4541779   9.0899200
  78.1717529  68.8771210   8.2399883  77.1036224  68.3240814   9.1588049
  81.6341171  37.1470146  89.2206726  81.4943161  36.4333954  88.5982285
  82.5846939  37.2551117  89.2515564  59.0675621  15.1939344  35.3317528
  59.2095299  14.2475147  35.3125992  58.1652832  15.2946882  35.6350250
  73.7583694  28.4115124  24.7585430  74.2399826  28.1514988  23.9732571
  74.2181778  27.9764442  25.4765415  40.0138588  19.0674076  76.4231262
  39.6351891  18.9875164  77.2985992  40.9292564  19.3001270  76.5784302
  14.7770758  12.2696171  80.1769333  15.5104837  12.8673811  80.0319366
  14.4219389  12.5281019  81.0273972  69.0812759   9.4853163   6.6350965
  70.0119324   9.6944904   6.7148671  69.0181351   8.9791231   5.8251505
   7.3896332  51.2779312  49.2279167   7.6410174  50.7320366  48.4829102
   6.5971189  51.7293587  48.9374542  49.2581787  43.0908546  51.2146149
  48.9167519  42.7805099  50.3759575  48.6544113  42.7337799  51.8659172
  28.5696373  59.0830574  48.1150322  27.7011433  59.4726067  48.2160416
  28.4316387  58.1478729  48.2654190  27.5217190  16.5528011  84.6726074
  26.9061890  16.3734131  83.9618530  27.5513096  17.5079098  84.7284775
  26.6195126  14.4673910  76.5944672  25.8477859  13.9923515  76.2862396
  26.4635086  14.5964146  77.5300140  25.2974243  35.4841080  10.4070549
  26.1980953  35.1610413  10.4326000  24.9740734  35.2240791   9.5444660
  74.1426544  67.3176727  77.1170654  73.4166183  67.0318375  76.5626297
  73.7219238  67.7692413  77.8487167   8.8099012  34.7943764  21.5884056
   9.3541727  34.2509918  21.0185490   8.0438013  35.0076523  21.0556450
  85.0442123  47.0141411  37.3310814  84.9857712  46.1239624  37.6780739
  85.9106216  47.3195915  37.5998993  74.1029510  71.5314713  75.7170792
  73.2727585  71.0640411  75.8094101  74.7532654  70.9425278  76.0997925
  65.1615295  39.7590714  71.1333008  65.3910980  39.0247688  70.5638123
  65.0577240  39.3665619  72.0001297  36.2090530  57.1996803  84.7890625
  35.2539787  57.1928596  84.7256927  36.4130135  58.0162239  85.2450104
  13.8800201  63.3247604  83.5520782  13.0728731  63.1884117  83.0559387
  13.9085140  62.5932999  84.1688309   2.5726829  51.4363403  10.9956636
   3.0873146  50.7072144  10.6495924   3.0401530  52.2190971  10.7041283
   4.0132642  27.1972446  11.0548725   4.3349552  27.1686554  11.9559441
   3.3405373  26.5172539  11.0190372  73.8850937  11.8647594  54.2905884
  73.4449997  11.0693626  53.9907684  74.2687073  12.2395926  53.4977608
  69.6112823  70.9452744  75.6466904  69.2589569  70.8465729  76.5311966
  69.0242004  71.5718002  75.2235565  83.0832672  10.4215193  70.3113785
  82.2253418   9.9972267  70.2982025  83.3942642  10.3051205  71.2091370
  64.3011093  34.3936195   2.1529198  63.9394264  33.7675056   1.5257034
  65.2469025  34.3561478   2.0104606  11.6306057  47.8764648  65.5838623
  12.3012886  47.2830658  65.9219360  11.6574640  47.7526321  64.6350861
  19.2111111  27.8850937  84.1300049  20.0123272  27.4107609  83.9079819
  19.0273323  28.4195881  83.3574905   5.2540450  41.4945831  55.1223564
   4.9349961  41.3464775  54.2321281   4.8689499  40.7845917  55.6360207
  79.1269379  43.8227577  58.9519348  79.1754990  43.6456451  59.8913498
  79.2253265  42.9639282  58.5408821  79.0037994  13.9128056  67.6729660
  78.7473907  13.1347523  68.1680603  79.4883118  13.5699453  66.9220123
  24.2884064  42.7480316  87.5423737  24.0323849  42.5643768  86.6385117
  23.8784065  43.5898361  87.7411041  60.9932442  56.6455116  40.3022575
  60.4093781  57.1181564  39.7090149  61.8152733  56.5681000  39.8180008
  24.2150612  28.7399158  78.1976929  24.1044483  29.1099224  79.0735321
  25.0974522  28.3689995  78.2040710  13.3130875   8.5331535  57.5910339
  13.1881866   7.6228738  57.8594093  13.1215849   8.5347872  56.6531906
  86.5948181  23.5653439   9.4966898  86.0147247  22.8763866   9.1725588
  86.3139343  23.7094746  10.4003296  22.2608643  33.3047256  64.2299576
  22.6235008  32.5872803  63.7103386  21.3851013  33.4429245  63.8691597
   5.8626399  13.7133760  22.7355289   6.4056177  14.4370451  22.4229431
   6.4593043  13.1722565  23.2526493  60.5892029  12.4262638  20.3943386
  61.0558281  11.5931482  20.3279228  61.1816711  12.9939966  20.8871841
  65.6094055  66.5742340  22.6596146  65.1916962  66.6771240  23.5146923
  64.8976822  66.3131256  22.0752316  10.1801825  70.8150330  44.0354042
   9.4724569  71.4224930  43.8201180  10.2393723  70.2369995  43.2747421
  11.5592384  58.4931488  18.7954865  11.2783480  58.3932152  19.7050724
  10.7642269  58.7449074  18.3255882  45.5239639  63.4403458  36.6109161
  46.4055824  63.4967651  36.9794159  45.6408005  63.6306038  35.6801186
  50.5332336  10.5977049  56.0428886  49.6701202  10.3164387  56.3464546
  50.4934006  11.5539150  56.0603714  10.8607397   2.0299366  28.1210899
  10.0463810   2.2692804  27.6786346  10.5781393   1.6381618  28.9474564
  38.4776764  44.1725502  84.8450546  39.0507050  44.4680901  84.1375732
  38.9632988  44.3715172  85.6455612  83.0163193   4.9114962  86.0353928
  83.1910477   4.3273807  85.2974777  83.7833710   4.8194871  86.6005402
  49.4640465  21.8443012  32.8042221  49.6192513  22.1791553  33.6874084
  48.6160011  21.4039898  32.8606071   5.3318391  43.2655640  37.1487350
   5.9200449  42.8180351  36.5404854   5.6559229  43.0243835  38.0165100
  77.0583267  22.2365913  23.2749748  76.6235046  22.4744015  22.4560699
  76.4576569  21.6210384  23.6951218  21.4307251  59.5190544  36.4713860
  20.6119480  59.4283333  36.9588356  21.8149338  60.3327065  36.7978592
   3.3413312  61.0356026  29.2445621   2.7309008  61.6516953  29.6495743
   2.7881176  60.4685020  28.7073593  18.7688332  42.1065178  13.3101807
  19.6692905  42.3123398  13.5612698  18.2596970  42.8621063  13.6036053
  20.0093460   9.8303957  62.5419350  19.2541428   9.2685680  62.7158585
  20.7206669   9.4393415  63.0492134  23.1477146   9.6436472   5.2651243
  22.6844711  10.4759493   5.3595119  22.6839523   9.0438137   5.8493805
  79.9128418  53.0394402   2.7073755  79.3022919  53.5686569   2.1941633
  79.4249268  52.2417526   2.9119856  85.5216141  52.9676247  48.6057167
  84.9872513  53.3968620  49.2738800  85.5131760  53.5747986  47.8657837
  49.9624443  67.3257675  88.7535553  50.5737572  66.7189484  89.1710510
  49.3465500  67.5606461  89.4476242  67.6733093  54.0124664  53.0618057
  68.5615463  53.9168739  52.7181091  67.1061859  53.8557739  52.3067856
  26.6611462  61.8862076  45.6232796  26.6069965  61.8534355  44.6681747
  26.2003365  62.6905556  45.8618393  68.0693130  44.4917679  17.1832943
  67.5300064  43.7033234  17.1221581  67.9518051  44.9283409  16.3395939
  69.9405289  64.5897903  13.4261618  70.6793442  65.0072327  13.8690233
  69.5688324  64.0013275  14.0832644   5.3186927  24.9190540  77.1268234
   5.7017779  24.9500008  76.2501755   5.2221246  23.9851475  77.3131790
  70.1057129  41.6564522   6.9534545  70.8283463  41.3940735   6.3832059
  69.7622452  42.4550400   6.5528054   6.8775649  33.7660103  62.9999466
   6.8810339  33.7994919  63.9565544   6.1865025  33.1396408  62.7847176
   8.9182472  22.3454266  19.5683594   9.7137270  21.8602715  19.7876053
   9.2152815  23.0386143  18.9788723  50.7642784  22.7881794  17.6239510
  50.8046989  23.3549137  18.3942833  51.1288757  23.3196182  16.9162273
  56.8357506  32.7956200  74.0216599  57.7495613  32.9718361  73.7977600
  56.3699875  32.8496361  73.1871643   3.5796816  47.1664009  22.8800602
   2.9332929  47.7703972  23.2455788   4.4248881  47.5569649  23.1021347
   8.4867706   7.1953044  86.6543121   9.2233295   7.0575342  86.0587158
   7.7106080   7.0752082  86.1071548  57.0919151  27.3893623  71.4196548
  56.8061485  27.0583935  72.2711411  56.9872360  26.6456604  70.8262024
  13.0481300   6.2671185  61.1629028  12.1729050   6.5219488  60.8708839
  13.0672274   6.4974728  62.0917740  55.8924980  55.6197929  35.6460800
  55.3455696  56.2512398  35.1787720  55.4330292  55.4702568  36.4723740
  45.5416222  34.3450661  84.2441940  44.6326332  34.4727325  83.9727707
  46.0344963  34.3151855  83.4241867  75.5467224  65.4196548  19.9639015
  75.5678253  65.0337143  19.0882072  75.3737030  66.3487549  19.8120575
  73.3885956  67.0188904  50.0021248  72.7863541  67.5560379  50.5169220
  73.2780075  67.3293762  49.1034546  41.6728249  42.8118744  23.2692909
  42.1757622  42.9219131  22.4623356  41.2206612  41.9756355  23.1575489
  54.0292244  29.9766216  70.7850266  54.7985992  29.9398155  71.3533096
  54.2960091  30.5375557  70.0567398  68.8108673  52.8822289  77.4164734
  68.5093918  53.7293243  77.7447586  68.5307465  52.2539406  78.0820694
  27.0275822  45.5311508  70.0808945  26.9897652  44.6468620  70.4453583
  27.7112274  45.4856758  69.4124680  29.7068424  59.8740501  43.0183792
  29.8333569  59.5884933  43.9231911  30.5643730  59.7592697  42.6088715
  26.2780762   7.4647884  75.4222641  26.0028763   7.8253798  76.2651596
  25.8939705   6.5883236  75.3998184   5.1814704  44.4750900  52.9421959
   5.4975686  43.6435013  52.5889549   5.9078054  44.8011589  53.4735603
  81.0846558   2.8929334  86.8124466  81.8546829   3.4467642  86.6837616
  81.3405685   2.2841573  87.5053558  36.5209122  70.8237534  38.4037247
  36.0839539  70.0056076  38.1672363  37.4363251  70.6853409  38.1606293
  72.8477402  30.2032413  26.6822701  73.0511246  29.7731514  25.8516731
  73.4161301  30.9732361  26.6987572  40.9738503   3.2786014  67.5340500
  40.3820190   3.1643324  66.7904739  41.0289078   2.4098160  67.9320602
  25.9529705  40.7944107   8.4546041  25.3882923  40.0274315   8.5500746
  26.7890472  40.5251274   8.8349876  15.2617693  24.7249775  76.5922318
  15.5734434  25.5975418  76.3519821  14.3238459  24.8394051  76.7453232
  59.7470131  26.7909851  62.9848289  58.9441681  26.8964119  62.4743881
  59.4680710  26.8961487  63.8944244  44.9432945  26.7509174  58.5877190
  45.6820984  26.3830986  58.1028366  44.1812897  26.2706547  58.2637978
  43.4985847  71.7744675   5.0636873  44.1717529  71.3808975   4.5085506
  43.8471298  71.7000656   5.9520645  54.5763702  40.3015289  87.2456284
  55.5310822  40.2790604  87.1804047  54.3576698  39.5629234  87.8138351
  29.9082680  24.4218140  10.0315676  30.7042294  24.2628021   9.5242262
  30.1498280  24.2020035  10.9313259  41.7553215  68.2631073  17.1720123
  42.2360649  68.7248917  16.4850769  41.5053940  67.4305801  16.7711926
  23.0625401  33.7336082  87.3793564  23.5091343  33.4512253  88.1775055
  23.0682068  32.9602547  86.8153305  42.7044754  41.4716568  73.8335037
  41.8759766  41.0531807  74.0673828  42.6369743  42.3553009  74.1952286
  60.2827759  35.0928421   2.9601638  60.9800148  35.7385635   2.8455622
  59.4770432  35.5746651   2.7734201  77.2477264  29.4710369  41.8621368
  77.4173203  29.6157990  40.9312668  77.3674240  30.3314877  42.2640419
  85.8167114  36.1989784  78.3002853  85.1278458  36.8604393  78.2357254
  86.5142975  36.5232658  77.7306900   9.3464813  49.2557793  42.4832840
  10.1966047  48.8385811  42.3437614   9.0127430  49.4201889  41.6013412
  65.6450653   3.4119713  69.2906494  65.7021561   2.8801792  68.4968185
  66.1165314   4.2164583  69.0744324  77.3147736  31.6012859  15.4136362
  76.7313004  32.3598022  15.4347029  78.0918961  31.9097710  14.9476509
  19.8066826  45.5031929  17.7245178  20.5422039  45.6309242  18.3236198
  20.1951599  45.0912933  16.9527283  54.2381287  52.8223228  79.3680344
  54.7924194  52.0531769  79.2360840  54.5972061  53.4811249  78.7736664
  31.6855659  14.3284426   4.2293262  31.8591118  14.8478518   5.0143919
  32.0950813  14.8230944   3.5195038   2.7416141  34.2534485  63.9762039
   3.0436406  34.0983887  64.8711700   2.7049718  35.2067070  63.8975601
  51.8860512   1.0372844  69.3180237  52.2480125   1.9002477  69.1167526
  52.6172218   0.5549577  69.7040100  41.1462669  23.5470467   8.4789028
  40.5994797  24.0691357   9.0660000  40.5224304  23.0606213   7.9399676
  28.7159462  24.2249165  73.8259659  29.5334358  24.5219784  74.2255936
  28.9851303  23.8245182  72.9992599   1.8284738  32.9437866  80.4358444
   1.8923544  32.5658569  79.5587311   1.4868227  33.8263054  80.2920837
  80.9622192  30.7608891  11.1127052  80.3981018  31.0327854  11.8366346
  81.3787308  29.9567127  11.4226198  51.9664192   9.8125248   6.4549069
  52.5913582   9.7456894   5.7329526  52.4175491  10.3398943   7.1141462
  37.3923912  57.5362206   8.1045713  37.8985291  56.9761162   8.6930809
  36.8299904  56.9303284   7.6220465  59.1676674  51.1401825  73.4179611
  59.3675003  51.5402718  72.5716629  60.0184898  50.8656921  73.7599945
   9.7401857  59.5213737  85.5312881   9.4529839  59.8779640  86.3718796
   9.0046196  58.9855461  85.2345352  16.0178604  53.9909477  52.8503494
  15.1898737  54.4427185  53.0133667  15.7878036  53.2759438  52.2569923
  53.9484978  62.9237480  29.6119785  53.1250610  62.7103806  29.1730480
  53.7872353  62.7237320  30.5340519  46.4074020  30.9444065   7.4271717
  46.9111404  30.2275047   7.0417762  46.9055405  31.7319107   7.2082443
   6.1365037  23.7993908  74.2692566   6.5754251  22.9618435  74.4178925
   6.8135419  24.3609257  73.8917236  21.2768459  53.5188560  50.1729355
  20.6243191  54.0889740  49.7662315  20.9852314  53.4302597  51.0803185
  77.3919067  13.8079796  26.9919205  77.1618118  14.0670986  27.8841896
  76.6220245  13.3368530  26.6732578   7.2891884  29.7354832  37.3167038
   6.4757323  29.2312584  37.3000221   7.0043311  30.6491604  37.3335342
  37.0881310  56.4563751  38.3861618  36.2563934  56.5331345  37.9186668
  37.4544182  57.3405724  38.3700676  19.0330009   1.1442579  56.7330170
  18.1290836   1.3628267  56.5063171  19.0347385   0.1908549  56.8181763
  83.6381607  22.4914207  23.0952187  84.3048935  23.0845203  22.7489128
  83.1873703  22.1585236  22.3192043  22.3668385  40.3761253  77.8184052
  22.7396908  41.1205063  77.3460617  23.0394497  39.6971931  77.7647629
  50.3157005  38.6133881  23.5152206  50.4179268  38.6616058  24.4657230
  51.0454979  38.0671463  23.2232418  71.8593445  16.9661808  49.4530869
  71.5285187  17.4050541  48.6693916  71.5463028  16.0651512  49.3731918
  38.0552292  10.9416609  67.7382126  37.2077026  10.7123041  68.1194382
  37.8402481  11.5222607  67.0082016  43.3795624   0.9630659  26.0039310
  44.2733841   0.6372487  25.8982964  42.9087906   0.6217449  25.2435989
  69.4260254  58.3378067  35.0310516  69.7318649  58.9138374  35.7316818
  69.8645706  57.5035706  35.1982765  39.5372849  10.3575926  33.1037254
  38.7532310  10.5088282  32.5758820  39.4011841   9.4936371  33.4926834
  54.4429245  27.0334435  17.5944538  54.3832703  27.2960854  18.5129814
  54.4609528  26.0767441  17.6195869  27.8391342  61.3380966   8.6593208
  27.3835220  61.3383904   9.5011339  27.8902283  60.4140282   8.4149532
  85.2411652  56.2656441  52.0289536  84.9601746  56.8714561  52.7147179
  86.1419678  56.5247192  51.8348770  71.4597549  44.5783272  45.6262817
  71.5764313  43.6422234  45.7885513  71.6899338  44.6920776  44.7041588
  12.2162533  58.4948997   1.9788451  12.6402645  58.7401047   1.1564569
  11.4282646  58.0223808   1.7104585  51.8257294  68.4472504  54.7552528
  52.5774002  68.9567947  54.4526062  51.8969803  68.4591141  55.7097206
  33.6075821  41.5000191  79.8205185  33.2423058  42.3439674  80.0861435
  33.3778915  41.4203453  78.8947067  48.0200310  46.5369530  71.1316681
  47.4704361  47.2777100  70.8758240  48.7375717  46.5410156  70.4981461
   5.5336976  41.7215996  12.2060871   6.2064605  41.2751923  11.6919441
   5.1967707  41.0475769  12.7963457   6.3681688   3.8330476  77.1976776
   7.1706715   4.1129155  76.7573471   6.0977039   3.0458243  76.7250748
  51.5488663  48.8027039  78.6015625  51.0559502  48.0072708  78.8029404
  51.5392609  49.3033981  79.4173126  25.0595913  28.0388050  70.8584290
  25.8842468  27.5604305  70.9440536  24.7094765  28.0738335  71.7486115
  31.3174095  56.4600639  74.5163345  31.2162704  55.5416565  74.2662735
  32.1070938  56.7475052  74.0580673  46.8492813  47.2831345  16.7009716
  47.0345192  47.1259766  15.7751093  47.6812744  47.1153145  17.1435318
  19.4306774   8.1161585  75.4928589  20.1411037   8.7570877  75.4657288
  19.5428391   7.6003380  74.6943741  57.4065018   4.6761079  27.3928661
  56.8024368   4.6891961  26.6504612  56.8717422   4.9404764  28.1414471
  65.6208038  58.6641960  16.6751690  64.9300537  58.3065109  16.1173573
  65.2104416  58.7567596  17.5349751  75.6810684  16.5998631  69.5928650
  75.3162537  15.7832069  69.9337692  74.9833221  16.9652138  69.0488968
  24.9399109  63.5649490  46.3287811  24.6413612  63.7477112  47.2196770
  24.2792225  62.9714165  45.9717979  85.1866226   6.3787661  23.3764210
  86.1000824   6.2237215  23.6168251  85.2298584   7.0377002  22.6834793
  35.3352318  68.1253128  23.2203693  35.8056641  68.9032364  23.5199757
  34.4498291  68.4377518  23.0341492   7.1251564  62.1389236  25.7763138
   7.9842153  61.8917923  26.1186237   6.5023413  61.6650085  26.3274384
  15.9206457  58.9221344  12.7777805  16.3025970  59.0790596  13.6413307
  15.8320875  57.9705353  12.7243919  17.3488636  46.7423058  35.7474556
  17.9985161  46.8115463  35.0478935  16.5082340  46.7070045  35.2910271
  36.0830879  70.1114502  88.4294510  35.9733353  70.2661896  87.4912415
  36.6930962  70.7917328  88.7146530  69.3305817  40.4609871  44.4312439
  68.3997803  40.5850792  44.2456436  69.3521805  39.7778549  45.1013908
  56.8819008  18.9770145  77.0539474  56.9615517  18.6280098  76.1662064
  57.0931969  18.2363873  77.6223297  65.6401596  15.3057728   7.8505831
  65.1319733  14.7707176   8.4602470  64.9820251  15.7726841   7.3357177
  61.5407867  67.7624893  37.7129402  61.1560097  66.9434662  38.0249901
  60.8145714  68.2236633  37.2932243  57.4593124  11.7528429   8.7288980
  58.1042404  11.2228107   8.2605333  57.8364143  11.8742399   9.6002703
  63.6567612  25.2682285  22.3804626  63.4003067  25.7033825  21.5673790
  63.9687157  24.4068623  22.1030407   4.4958038  54.0960503  52.1272774
   4.8126154  53.2102737  51.9504776   3.5538781  53.9911919  52.2614899
  60.3459053  41.3700714  86.9586258  60.3439331  42.3019600  86.7399750
  59.5290375  41.0354767  86.5884781   7.1513453  17.0853081  61.2433929
   7.2869973  17.4629345  62.1124344   7.5995116  16.2401714  61.2768669
  28.0515957  69.4793396  86.8948593  28.4319973  69.8390503  86.0935287
  28.7350616  69.5911865  87.5556183  59.8536835  45.1485443  57.5390816
  59.8059731  45.8257904  58.2138367  58.9693146  44.7841454  57.5025291
   4.5351300  51.2510948  70.2512360   3.6825843  51.6852646  70.2811203
   4.5681171  50.8475304  69.3838959  44.5602989   5.9497023  53.2252312
  43.7616081   5.5878954  53.6091805  44.6650314   5.4763203  52.3998985
  68.9870377  30.3751297   8.9654255  68.4582672  30.7974796   9.6423674
  68.8365936  29.4385548   9.0935755  82.5625381  10.9274683  15.8240862
  83.1838760  10.9656067  16.5512199  81.8336334  11.4818840  16.1025639
  34.2545052  54.6812401  14.1321402  34.4296074  55.4417992  14.6863232
  34.4273529  53.9282417  14.6972485  63.9117432  57.0058174  41.0553360
  63.2392349  57.6826820  41.1316109  64.6228180  57.4279327  40.5732346
   5.3863654  58.1867294  23.4271736   5.4613562  59.1207237  23.6227913
   4.4755826  58.0711136  23.1563606  41.7627678  57.2079697  20.6531067
  41.1569138  56.9138756  19.9728985  41.2065544  57.3719635  21.4146595
  23.1137352  65.5814819   2.3837121  23.3665924  64.8478394   1.8232952
  22.8324337  65.1720200   3.2019064  78.8107529  30.4058590  26.2077656
  78.7603683  31.1906109  25.6620007  78.9487915  29.6906719  25.5867310
  14.7272720  46.6538887  46.5200195  15.2622614  46.9298820  47.2642288
  14.2659893  47.4476776  46.2491837  41.2016563  31.6699333  81.2899780
  41.8057365  31.6362572  82.0317154  40.9278717  32.5860634  81.2454605
  23.2143822  27.7287216  67.0838394  22.6013985  28.1750774  66.4996796
  24.0460663  28.1836205  66.9511719  41.5021133  60.8678284  23.0712242
  41.3616371  60.0864563  23.6059742  40.7103462  60.9386597  22.5380077
  47.3397064  28.4933033  58.0552864  47.7418518  27.8720303  57.4482193
  46.6264191  28.0021896  58.4630356  84.8666000  34.0306969  40.9431419
  85.1774597  33.1284447  40.8686752  84.1663666  33.9897842  41.5944672
  37.3877411  68.6057816  49.9536514  38.2758255  68.9166260  49.7778397
  37.2126083  67.9740829  49.2561455  19.4202824  38.2687225  56.9361877
  19.1227093  38.1054001  57.8311806  19.2530632  37.4470787  56.4744911
  53.5521889  19.9154644  66.5353470  52.7540169  20.3183975  66.8770981
  54.1534348  20.6486492  66.4042892  32.9429512  39.7926636  31.9825821
  33.8805161  39.9515457  31.8732224  32.7580795  40.0602722  32.8828239
  67.1657181   5.0693283  68.0529404  67.3363113   4.3291578  67.4704666
  67.9801788   5.5721626  68.0461044  32.7046700  16.3093624   6.0286188
  32.0021057  16.6268501   6.5959229  32.7536507  16.9551220   5.3237591
  18.8499413  24.4985695  10.1284714  18.3497372  25.3086147  10.0291986
  18.3016090  23.8271961   9.7224884  41.7867546  51.4552574   7.8694291
  41.2892227  50.9353294   8.5005913  41.5320129  51.1041603   7.0161605
  79.4482498  14.6347303  63.0761528  79.2550125  15.5414333  63.3144455
  80.2354584  14.6919670  62.5346184  80.5392151   8.2642698  55.8242950
  80.9639511   8.3754835  56.6748581  81.2602692   8.2637243  55.1947594
  70.0810394  27.0905437  49.7273979  69.4345932  27.7461624  49.9891281
  70.2222137  26.5655441  50.5152283  48.3181038   1.6383977  57.9824982
  47.6283684   1.0697021  57.6403313  48.3663597   1.4226552  58.9138222
  20.4136162  59.8911552  66.8881683  20.7770615  60.4409790  66.1940231
  20.4274330  59.0058594  66.5244446  45.9137077  52.8193779   5.4862561
  45.0099983  53.0917130   5.3269787  45.8965111  51.8667526   5.3943915
  35.3275452  57.4911156  47.3214760  35.1360588  56.7383041  47.8807945
  35.8295708  58.0836754  47.8810043  23.8871841  71.9429321  71.1919785
  23.1713505  71.9516830  71.8273773  24.3702030  71.1397324  71.3863831
  33.5757713  52.3726807  72.3387146  33.7919312  51.5258484  72.7290802
  34.4135971  52.8324432  72.2848740  13.7316504  16.7927265   9.1299868
  13.7175617  17.7368641   9.2869463  13.1990194  16.6726570   8.3437805
  79.5391617  45.0995865  49.4558716  80.2955780  45.4007149  49.9592552
  79.8727798  44.9884796  48.5655975  15.1084957   6.9809093   5.7714777
  16.0541630   7.0890760   5.8726902  15.0088100   6.1273003   5.3499966
  36.4079361  18.0149956   8.8230104  35.4691353  17.8336544   8.7782869
  36.4634819  18.9074306   9.1646338   0.8149014  66.3388367  57.7823029
   1.3774214  66.7567520  58.4343338   0.2281093  67.0362701  57.4899101
  76.8374176  58.9893990   8.7192545  77.3336868  59.5186577   9.3436251
  75.9643326  58.9194298   9.1053314   7.2442880   1.3034333  16.0418701
   8.0146656   1.7099798  16.4386959   7.5603609   0.9537553  15.2087698
  59.8359528  37.5644684  60.2903824  60.7582703  37.6575851  60.0518646
  59.3615074  38.0194283  59.5945778  31.9993572  61.4990883  60.5177841
  31.2657795  61.7257957  61.0893631  31.5911217  61.2758598  59.6812782
  21.1340733  58.4918480   0.8978720  21.9122086  59.0316544   1.0369669
  21.2485962  57.7492447   1.4908816  86.1188660  45.3554611  60.4506226
  85.9263611  44.4461784  60.2217712  85.5319290  45.8710594  59.8975410
  62.6978493  -0.0960341  72.0378647  63.6020203  -0.2146121  72.3288116
  62.7555046   0.5501980  71.3340988  76.6357803   3.6692336  27.6488285
  76.1996536   4.3281670  28.1890411  77.4539108   4.0853863  27.3773308
  23.8693600   4.1235890  67.5130081  23.8276386   4.0329294  66.5610275
  23.8617668   3.2239475  67.8398438  41.2052193  33.4119377  72.7755356
  40.4469528  33.9827843  72.8996277  41.4094810  33.4843254  71.8431931
  11.0065937  40.9739952  39.8633881  10.6738100  40.7811661  40.7399178
  10.8060751  40.1893768  39.3530922  81.2874374  48.4049911  38.7645531
  81.5831985  47.5375671  39.0408440  81.4572754  48.4272308  37.8228035
  17.3878498  28.0335541  86.4414062  17.9896240  27.9488125  85.7018661
  17.8737316  28.5452995  87.0881424  62.9292908  58.8550186  69.9095840
  62.0977211  59.2246971  70.2063293  63.4036484  58.6542664  70.7163773
  72.9155807  32.4638786  62.9821167  73.2794418  31.6594639  63.3519211
  73.4345627  33.1648941  63.3764076   0.1596047  45.1160431  67.6097488
   0.1150731  45.3437881  66.6811066   0.3078208  45.9507332  68.0542221
  40.6787567  41.6095200  69.2269745  41.1360512  42.0577774  68.5155106
  41.2949677  40.9396210  69.5232086  33.8900337   9.8687239   8.8386869
  34.2425842   9.8717508   7.9487829  32.9403572   9.8857985   8.7201376
  45.6257820  25.8185291  61.2508926  45.5472488  26.4858189  60.5691376
  45.4226532  24.9959850  60.8054810   2.6820426  27.4406586  23.3906155
   2.4142687  26.5243015  23.4600296   3.0065687  27.6621323  24.2634621
  43.3128014  40.7604332   8.4408808  43.7622223  39.9199486   8.5294151
  43.9430504  41.3227768   7.9905639  32.8058319  13.1833754  74.9392090
  32.9442711  14.1046238  75.1591415  33.6622658  12.8769875  74.6410904
  17.2630196  69.2813416  24.0021477  17.5443382  70.0322723  24.5248280
  18.0290356  68.7080078  23.9749336  43.1351280  36.7306404  15.5060415
  42.2033272  36.7654152  15.2897749  43.1996307  37.1628036  16.3576908
  51.1224403  30.8833294  78.5362701  51.3211708  29.9542942  78.4195251
  51.7839088  31.1939030  79.1545258  34.9293823   6.1406856  64.6178665
  34.0708466   5.8542252  64.9294586  34.7699394   6.4482770  63.7255630
  84.1081467  53.1876068  41.2184105  83.4522629  53.0386543  41.8994789
  84.8636856  53.5423470  41.6869774  31.7277069  27.1159401   1.3259029
  32.2930450  26.7117043   0.6677098  31.4353428  27.9327488   0.9214523
  77.7268982  57.3940201  74.2164383  77.5877228  58.3120689  74.4489288
  78.6755905  57.2760010  74.2642822  56.6203690  15.0255604  36.4742432
  56.7162590  14.5832386  37.3176804  56.3032951  15.9007082  36.6974220
  57.5742569  10.1694031  14.4548893  57.8536072  10.9502916  14.9328089
  56.9657135   9.7299814  15.0488720  41.2108650  44.4330788  80.5079269
  41.3810463  45.2976532  80.1340561  41.1717949  44.5840034  81.4523468
  74.7672043  67.3508530  35.6570587  73.9150848  67.4960480  36.0682144
  74.7848358  66.4128189  35.4672775   7.4906325  11.5145016   9.0726318
   7.7462244  11.0533419   9.8715286   7.9079556  12.3726768   9.1475229
  61.1348190  57.2236557  32.8585587  61.6150551  57.0482674  32.0493355
  60.8381653  58.1293602  32.7695198   2.4152114   8.3745279  48.6364594
   2.3100486   7.7127414  47.9529305   1.5331007   8.7202129  48.7728920
  30.9719524  42.6360664   0.5789305  30.0345211  42.4961205   0.7126043
  31.3122902  41.7722168   0.3461989  73.8523178  38.4799271  14.1784077
  73.7674561  39.0643692  14.9317045  72.9830704  38.4780426  13.7776003
  70.0997543  35.4138832  89.4513550  70.8725433  34.9234314  89.7315140
  70.1499557  35.4144173  88.4954758  10.8071547  36.6522408  55.5457344
  11.4939251  36.5946846  56.2100105   9.9960794  36.4808769  56.0242958
   9.6825457  45.5371132  88.2008972   8.7298937  45.4668007  88.1397247
   9.8639336  46.4657974  88.0564270  27.1635780  44.9419670  83.7802811
  27.9856071  44.7399521  83.3334122  26.9542332  44.1455498  84.2682571
  46.7575569  38.3586044  54.3922844  46.5157166  39.1593246  54.8576775
  47.5111656  38.0192528  54.8751411   9.2867537  60.0229187  53.9524803
  10.0090494  59.6207504  53.4700089   8.9460411  60.6925545  53.3594093
  16.9954338  62.0767365  20.0085163  17.4764824  62.3085594  20.8029251
  17.0332775  61.1208382  19.9759560  45.8688431  42.6820641  89.2420731
  46.3345871  42.3041420  88.4960938  44.9893608  42.8613129  88.9095001
   3.3456030  48.2461510  68.6826859   3.7540843  47.6770210  68.0304108
   3.3469360  49.1136398  68.2780914  54.0192795  21.6750107  62.2543144
  54.9324036  21.7445412  61.9757462  53.9298286  20.7719135  62.5586929
  81.4657516   2.7457559  43.6874886  81.3451843   2.0717168  44.3563423
  81.8672714   3.4781003  44.1551247  70.5412292   1.4770120  48.0534782
  70.2593613   2.3914311  48.0783958  71.4409714   1.4947516  48.3796196
  71.2482605  57.1065140  54.6088943  71.2715912  57.8362198  55.2279396
  70.9956360  57.5063858  53.7767181  74.4286652  15.0850410  75.9342728
  75.3318787  14.9948187  76.2380753  73.8996506  15.0015850  76.7276230
  17.3354492  33.6825943  64.9856949  17.8267059  34.5024261  65.0383987
  17.1719151  33.4423180  65.8977051  79.3320312  47.0611115   0.7531332
  79.1002121  46.5388336   1.5210624  79.7461319  46.4381485   0.1559099
   3.9697518  49.5511513  36.9834023   4.1676245  48.6499672  37.2382393
   4.5778108  49.7367058  36.2678146  45.9369621  49.7497978  51.7407227
  46.2761459  50.5510826  51.3418159  46.5045090  49.5998344  52.4967880
  50.5602303  19.9720078  46.0555305  50.2322693  19.1650066  45.6587639
  50.0812607  20.6702366  45.6091042  50.4017220  41.2255287  69.5313568
  51.1927376  41.0434990  69.0240173  50.6657143  41.0941277  70.4420013
   8.7871666  31.9217052  45.9878349   9.1114550  31.0227337  46.0418625
   8.6167221  32.0592422  45.0560265  35.0926170  70.1843796  50.4284401
  35.8711357  69.6325684  50.3533020  34.4582024  69.7859116  49.8326416
  38.8434334  36.6476402   6.1763158  38.9112244  37.5575562   5.8870273
  38.8687973  36.1365967   5.3673501  51.8579178  -0.1093033  61.7783699
  52.7322350  -0.0683411  61.3909073  51.3624725   0.5721947  61.3241386
  32.7110481  62.9990730  47.9354362  32.3007927  63.8479309  47.7700310
  31.9829941  62.3776550  47.9381638  32.4616966  41.2310066  77.3283691
  32.6594620  41.1805420  76.3931808  31.6069660  40.8090248  77.4155426
  80.6542511  47.8949623  29.1855793  80.7916489  48.7134247  29.6625271
  79.8689728  47.5163498  29.5808334  83.4113235  36.4676933  66.1420288
  83.4164124  37.1255264  66.8373489  82.5290451  36.0974388  66.1690674
  72.0830460  54.4741745   7.9918089  72.1384277  53.9091911   7.2211227
  72.9596329  54.4431381   8.3750343  70.8981171   9.1800718  49.1847420
  70.2047348   9.0161066  48.5455475  71.0808716   8.3210926  49.5655136
  38.8270340  44.0921021  16.1128139  38.4452591  43.3278732  16.5445995
  39.7039604  43.8081856  15.8547068  73.6176529   1.6017381  55.2230225
  73.5193405   2.0740187  56.0497742  73.7039261   0.6838181  55.4803391
  80.6409760  31.2542381  42.9150505  80.9434128  30.3607807  43.0778313
  81.0822906  31.7815475  43.5809441  55.1317482  47.7167854  85.2849274
  55.0510406  48.1167107  84.4190292  54.4389763  47.0567131  85.3094101
  28.1612797  42.6353226  25.5050812  27.3286381  42.4367218  25.9334469
  28.7906075  42.0450134  25.9194641  10.0007496  22.6774292  51.5320511
   9.4606857  22.9654160  52.2680054  10.8320522  22.4206142  51.9310684
  48.0267563  68.6417236  40.4455681  48.8510818  69.1091843  40.3106804
  47.3494377  69.2925568  40.2614670  36.8403244  51.9057350  36.7164383
  37.6195145  51.7997475  37.2622108  36.6261711  51.0179520  36.4297142
   5.1681376  54.6734238  68.7712402   4.8489065  55.3012466  69.4194489
   5.8031898  54.1389503  69.2479782  53.2826805  27.0398693  72.2450485
  52.7846375  27.5585823  72.8768082  53.7972488  27.6841183  71.7588425
  70.0227814  46.0282135  87.7769394  70.3885803  45.2782402  87.3079376
  70.6881714  46.2514038  88.4278412   8.1823053  58.8579292  21.7186089
   7.4590240  58.5388184  22.2582970   7.7588964  59.2183533  20.9394741
  85.1708755  48.8935814  84.0331421  84.9258423  49.7841492  83.7819824
  84.9540176  48.3607292  83.2681122  33.1149559  38.8408623  57.4541245
  33.4586868  37.9833145  57.2037392  33.1011009  38.8232498  58.4110641
  15.2050467  55.0789642  49.5109711  15.9751062  55.4897194  49.9040642
  14.7433414  55.7984581  49.0804024  54.0870171  15.9462194  76.5286484
  53.6901665  16.3892632  75.7786789  53.5431099  15.1702347  76.6637344
  72.8178711  31.9759598  57.9131889  73.1759262  31.1250381  57.6602821
  73.1500854  32.1219139  58.7989464  21.4039879  64.4872208  54.7853050
  20.6572208  64.7084656  55.3417397  21.9552078  65.2695923  54.8019676
  76.7990875   6.0129452   5.8551059  76.6068344   6.0825200   4.9199953
  77.7495422   5.9075809   5.8970313  75.2982864  48.9606400  12.9942465
  76.1959076  48.8656044  12.6756830  75.3246994  48.6223068  13.8892698
  73.5631180  33.8791389  24.2116928  74.0060501  33.0425453  24.3536358
  73.0311737  34.0048676  24.9974804  31.6469593   1.7501612  31.1772137
  31.9843884   1.9409046  30.3020058  31.9532871   2.4794612  31.7162094
  27.1843433  24.0355415  70.9650803  26.9145947  24.9175396  71.2210999
  27.4524231  23.6197376  71.7845154  42.8604317  35.0961342  54.0168152
  43.2794685  35.8970985  53.7020111  43.2078476  34.9754791  54.9005432
  57.0966148  30.1339302   7.2418866  57.4132690  29.4721584   6.6270533
  57.6217422  29.9987812   8.0306883   7.8633418  54.6696014  51.8151550
   6.9263425  54.5762939  51.6432304   8.2271795  53.8024940  51.6363144
  30.3060551  43.9957504  70.7519836  30.3325863  44.8713264  70.3661118
  30.7055302  44.1022682  71.6152878  26.0490780   1.7961124  69.3969803
  25.1425571   1.9220661  69.6773071  26.0384445   1.9869096  68.4590454
  30.1432590  37.4306374  53.6814728  30.6173687  38.2219849  53.9368515
  30.4530907  36.7591743  54.2892342  48.0183144   9.3545084  20.2507114
  48.5807190   9.9815912  20.7053528  48.4999657   8.5282621  20.2902660
  46.5457535   0.8188216   6.7655492  46.5124397   1.2886403   5.9322472
  47.1222496   0.0734351   6.5973716  79.9079361  44.7676239  88.4068375
  79.5900574  43.9457207  88.0331268  80.8477554  44.7656326  88.2252655
  13.3664637  70.4734344  55.9117393  12.7205534  70.0626297  55.3370438
  12.9535122  70.4727478  56.7752800  25.3894043  22.3067131  86.4306335
  24.6799660  21.9640179  86.9742203  25.5349922  23.1941910  86.7583771
  33.6266098   1.1102589  67.8747787  34.2991447   0.4493527  68.0394821
  34.0020638   1.9233868  68.2125473   1.0619329  48.4670906  59.9692268
   0.8830551  49.4056931  60.0263290   1.9955704  48.3888397  60.1652603
  59.0978508  23.0668221  74.6771164  59.7608147  23.3921204  74.0681076
  58.3126678  22.9578381  74.1406097  21.0589294  57.1907539  52.1466217
  21.0896358  58.0354195  52.5958824  20.1255360  56.9904747  52.0766640
  27.8898449  54.2307816  17.3355656  28.3715153  53.5171700  17.7538776
  26.9795380  54.0902863  17.5960159   7.9265375  18.2802715  56.4685020
   7.8684711  18.7687168  57.2896461   8.2117081  17.4048195  56.7302170
  67.0297699   3.6026835  75.2431870  67.7476349   4.0659823  74.8116074
  66.3411331   3.5569968  74.5799255  20.9717541  40.5351295   3.1367493
  20.9220581  41.3035927   3.7052794  20.1545963  40.5525169   2.6385684
  64.1923752  49.9756012  82.8076477  64.4349365  49.2720642  82.2056274
  64.9333191  50.5809441  82.7795868  82.5082932  42.4327545  41.0455399
  83.3857422  42.1130333  40.8355560  82.0032730  42.2895203  40.2451210
  52.6312714  23.7189617  24.6163387  52.2721062  24.5574303  24.3261642
  51.9688988  23.3677502  25.2114391  51.0586052  28.9774933   3.9260931
  51.4490204  29.1779346   3.0754275  50.8922615  28.0352993   3.8972490
  15.3032198  64.3068237   6.6302514  15.7642870  63.6970291   7.2062664
  15.9862146  64.8951874   6.3084073  72.2352829  70.7107010  72.0358200
  71.3884735  71.1050339  71.8269119  72.0156326  69.8672180  72.4314575
   5.4307442  71.1615601  67.3304367   4.6035995  70.7584763  67.5942230
   5.2649536  71.4929657  66.4478683  49.1627197  61.8882103  61.7356834
  49.3818665  60.9564629  61.7283936  49.0365028  62.0973358  62.6611938
  57.7636986  32.5351257  61.0459404  58.6330872  32.2239914  61.2981224
  57.3640709  32.8211098  61.8673668   6.9885325  32.8245659  78.3924026
   7.2221813  33.1936226  79.2441254   7.0201926  31.8771343  78.5250702
  54.2043571  14.5109425  71.8422852  53.9847260  13.7389603  72.3638535
  53.3682327  14.7975855  71.4749069  82.8461990  21.2200928  61.4374504
  83.6195450  21.3020172  60.8793602  83.0959015  20.5755920  62.0996437
  83.8893127   3.3672607  60.6615677  83.9532700   4.0543985  59.9982567
  83.0814362   3.5658212  61.1349945  28.8516083  49.9928017  23.1657944
  29.7392254  49.6361198  23.1319523  28.9661026  50.9333725  23.0299721
  50.2326050  11.6447439  71.6586609  50.4673882  10.7990589  71.2766571
  50.4210548  11.5465727  72.5919724  52.3609276  43.1640816  21.7563019
  53.2206612  43.4988480  21.5013103  52.4541168  42.2121277  21.7198124
  46.9025917  48.2199173   1.8569694  47.2335129  49.0170860   1.4431597
  46.5578423  47.6989594   1.1317201  68.4270859  51.5580826  26.4584255
  67.7501450  51.9990959  26.9717484  68.5445404  52.1146240  25.6885586
  65.1369858  49.7449646  53.6027908  66.0776978  49.7241287  53.4271011
  65.0724030  49.7873306  54.5568695  46.6619415  68.1853104  73.7888794
  47.3438416  67.6922073  74.2450562  46.9506264  69.0965195  73.8397522
  24.0426922   2.1369541   1.2791539  24.7713566   1.5221820   1.3647981
  24.4242039   2.9021077   0.8487802  67.8825073  45.9987831  56.6827850
  68.5114975  45.8643074  55.9739037  67.3411942  46.7307281  56.3870392
  71.4157028  29.2731667  13.1425228  70.5100937  29.5817146  13.1124868
  71.6099319  29.1911125  14.0762110  79.2191925   4.4993138   7.4953132
  80.0375900   4.2532549   7.0641356  78.9515991   5.3075690   7.0578761
  14.8637810  38.6501923  73.7410812  14.3512688  38.9932556  74.4731140
  15.2942476  39.4197426  73.3686295  66.6366425  18.6966991  76.1671448
  66.6479721  18.5734043  77.1163025  67.4312592  18.2606354  75.8594742
  81.6295395  43.5579834  24.1078396  81.9446793  42.6634254  23.9786530
  81.0826263  43.5083771  24.8918419  84.2756042  12.6664677   1.4414085
  85.0589523  12.7575626   1.9839047  84.6095200  12.6101017   0.5461114
  73.3327026  52.9705620  75.2867355  73.1496658  53.8288841  74.9046249
  73.7732773  53.1656227  76.1138306  45.3142738  60.2183952  63.0903549
  45.8378487  60.9064026  62.6795692  44.7524071  59.8928604  62.3871002
  74.1608353  58.3443489  43.2950363  74.8411560  57.7238960  43.0334473
  74.6299362  59.1652412  43.4444122  27.1046104  48.9591331  34.4729309
  27.8922729  48.4201317  34.5457230  27.4246521  49.8595772  34.5277557
  61.1967087  68.3591690  55.6136513  60.9009438  67.6511154  55.0414505
  61.1581841  69.1425095  55.0649071  37.1606522  42.1276741  82.3295822
  36.4812355  41.7968559  82.9171066  37.9219589  42.2603035  82.8944321
  77.5696716  26.4387360  21.8141785  78.4871750  26.6969013  21.7259750
  77.3060760  26.1852951  20.9295807  59.5486794  38.8154030  27.7440529
  59.6634216  38.8314781  26.7938919  58.8511963  38.1763725  27.8902988
  14.8454323  45.3879204  32.1687927  15.3266296  45.0943298  32.9424095
  14.3518887  44.6176605  31.8871136  79.0898056  63.9609909  21.5055656
  79.3501740  63.7181015  22.3940735  78.3360443  64.5384827  21.6262894
  77.2348022   4.4161205  12.0101185  76.4523087   4.2948942  12.5479250
  77.9175949   4.6645327  12.6332693  18.3170166  25.6082573  56.6805763
  18.7306004  25.2018986  57.4421883  18.7132187  26.4780521  56.6284828
  55.8804665  65.8661270  78.4903183  55.4747047  66.2710571  77.7237549
  55.6420479  66.4397202  79.2185898  84.7707214   1.9557670  51.2892570
  84.8062973   2.8856945  51.0652008  85.6288834   1.6154579  51.0363083
  56.2236252  62.6984978  67.6760254  56.7254410  63.3608360  68.1511230
  55.3655701  63.1002312  67.5397186   4.9013925   4.7582502   3.7919886
   5.3828812   3.9345834   3.8692794   5.3330579   5.3470211   4.4110570
  64.1093369  50.0798759  65.1766739  63.4455605  50.6978188  65.4829102
  63.6500473  49.2417336  65.1237717  69.4774933  30.6162567  40.0956154
  70.3164520  30.1786728  40.2401962  68.8462296  30.0931149  40.5896378
  85.1760406  62.1742668  16.7394485  85.1305695  62.1654472  17.6955261
  84.5369949  61.5173454  16.4632053  63.6493149  16.1520901  44.1409607
  63.7377052  15.7908144  43.2589760  64.5354767  16.1229134  44.5016556
  40.6041527   6.8596587   6.4356771  39.7522163   6.6117845   6.0765209
  41.2148323   6.7393513   5.7084723  71.3305664  66.1725540  67.1932526
  70.4391098  65.8267059  67.2371521  71.3502350  66.6819077  66.3830643
  50.5625610  47.3671188  44.3332214  50.8121529  46.7246323  44.9974098
  50.5645599  46.8756104  43.5118523   0.8352417  39.3500404  88.0591125
   0.9173481  39.0749207  87.1459885   0.8762323  38.5350304  88.5594330
   3.3584819  52.7009163  45.1959114   2.8640621  52.3068123  44.4772568
   2.7063107  53.1950722  45.6926155  13.4654522  14.7328892  10.8079863
  13.5456295  15.5447807  10.3073521  12.7311954  14.8892069  11.4018402
   1.6713541  63.6708527  62.3472824   0.9657300  64.1951599  61.9685631
   2.3402808  63.6398010  61.6633186  83.3832092  58.7394218   3.5034206
  83.1425018  57.8889084   3.8707428  83.4795914  58.5764656   2.5651309
   7.1740441  59.4021683  36.5094528   7.2536669  59.7571526  35.6240845
   6.6649914  58.5989037  36.4005547   7.9811096  11.8702984  20.3902798
   8.3762245  12.6920195  20.6816387   8.5120029  11.6019201  19.6403751
  44.9385071  44.6161766  78.9045792  44.8425369  44.4416199  77.9683304
  44.3809586  43.9636040  79.3282700  54.2987900  29.4245377  78.7473755
  55.1783562  29.5242310  79.1115952  54.2320328  30.1167660  78.0896530
  50.5270615   9.6550961  18.2049084  50.3118019  10.3762169  17.6134014
  50.4198685  10.0242376  19.0815353  77.0697174   1.4580131  26.3797951
  76.5362473   2.1176403  26.8231201  77.6262360   1.9604498  25.7847538
   1.8790860  58.4461403  44.3340340   2.8232465  58.3144073  44.2477837
   1.6918484  58.2442741  45.2507782  21.3209190   7.3046136  86.0221481
  21.1085377   7.4492688  86.9442062  20.6781769   7.8279510  85.5433578
  10.1195688   8.9523468  51.8854828   9.4853086   9.2452164  52.5398331
  10.5829344   9.7492275  51.6275978  54.4705696  43.5497551  87.0045471
  55.3132820  43.9962997  87.0862274  54.6799889  42.6217651  87.1104050
  63.5433388  42.8053665  19.5257797  62.7411919  42.3180084  19.3379669
  63.6606903  43.3754654  18.7658806  48.9938240   7.8153982  16.5755939
  49.4409676   8.6334476  16.7925987  48.3742867   8.0564718  15.8869085
  81.9135666  14.1155272  18.5472527  81.3842926  13.5564966  17.9784126
  82.8070374  14.0133295  18.2193890  49.5773926  66.0902100  19.7523499
  49.7159233  66.9060669  20.2334061  48.6311378  66.0519409  19.6131744
  79.2732925  37.9298286  55.7959900  79.5546799  38.6615334  55.2467499
  78.4180527  38.1977463  56.1321678  35.0384445   9.6577244  59.1697083
  35.5976219   8.8814392  59.2003136  35.2474365  10.1352491  59.9725304
  60.0957336  59.4968224  52.6298103  60.3106880  58.6006966  52.3709984
  60.7236824  59.7033424  53.3221016  64.3178787  20.7201958  78.8738708
  63.9547768  21.1398335  79.6538010  64.7017593  19.9051247  79.1971817
   8.5162926  68.1711960  46.2045784   9.2227840  68.8170166  46.1996536
   8.7361021  67.5703125  45.4926414  26.0396957  55.9250946  51.4718399
  26.4319210  55.0746727  51.6697617  25.1035271  55.7435989  51.3888855
  13.9014416  28.8819618  63.1970367  14.1320610  29.3237400  62.3797989
  14.5604038  29.1794453  63.8243370  53.2404060  69.8959045  10.3409061
  52.6026688  70.5124130   9.9811249  52.8056526  69.5214233  11.1070557
   3.6909347  31.2153206  47.5005913   3.1500666  31.2252636  48.2902718
   4.4545522  30.6901054  47.7399025  46.5898972   8.3250008  61.3946724
  46.9843788   8.7729025  62.1430054  46.6812401   8.9435711  60.6699257
  45.5305328  37.5572777  38.2616920  45.1024361  37.1213799  37.5248337
  44.8142929  37.9680557  38.7459373  55.2996712  21.3962593  83.5853653
  54.8876266  20.5859814  83.8852005  55.0486679  22.0487728  84.2391663
  57.6948891   7.3216949  41.6180916  56.8075523   7.6232433  41.8128510
  58.2644081   7.9776449  42.0200996  33.4629288  19.1984234   1.1280438
  33.2994652  18.4734173   0.5248211  34.2899590  19.5766582   0.8293920
  63.9377098  63.7664261  76.0744705  64.8279648  63.4547806  76.2374344
  63.5815239  63.9401855  76.9457779  43.2469559  34.6127243  65.3176956
  42.3645782  34.6879120  64.9543991  43.6484756  33.8967476  64.8253632
  36.2652321   3.2245574  31.1492481  36.1671066   3.7776029  30.3741722
  37.2062187   3.0592642  31.2079659  43.0690613   7.0069456  82.8609390
  43.1710625   6.4187374  83.6091614  43.9051018   6.9527745  82.3979721
  23.3644581  71.3595352  67.2086258  24.2371864  71.7358856  67.3223724
  22.9645786  71.4153442  68.0764999  85.1537704  62.2149353  36.3298073
  85.4742432  63.0971756  36.1422386  85.4873810  62.0200806  37.2055740
  64.2656326  35.6254387  25.9846458  63.4326668  35.1619377  26.0716667
  64.2484589  35.9843597  25.0974522  43.2302475  37.5186729   5.4466600
  43.3867340  38.4578400   5.3481455  42.5625000  37.4574776   6.1297417
  73.8762970  60.8911972  25.6570435  74.3453140  61.2396011  26.4152470
  73.8046494  61.6340446  25.0576458  46.1262169  23.6828022  11.1444845
  45.6776962  23.6221504  11.9879208  46.7169456  22.9297218  11.1326475
  36.9989204  17.1080341   5.8884392  36.7089691  16.2999001   6.3116164
  36.3011017  17.7374287   6.0704904  47.9581451   9.1491108  64.5524445
  48.5925102   9.7694464  64.9116135  47.9427605   8.4297590  65.1837387
  28.4260712   9.0903215   5.5842094  28.4503784   8.2500410   5.1264219
  27.6812172   9.5516367   5.1987066   0.6891709   4.7908559  15.4477921
   0.0004868   4.3561072  14.9448605   1.4948517   4.5953951  14.9693508
  32.3046150  25.2853317  13.9266176  32.4839058  26.1099014  13.4747620
  31.5112286  24.9507008  13.5085392  58.5975838  64.1882706  14.0166597
  58.4731064  64.0572052  14.9566374  59.1334801  64.9789200  13.9539757
  30.2556801  61.3718796  17.0226212  29.5571308  61.1544456  16.4053802
  29.7969685  61.6662712  17.8094807  50.3639450  37.6788864   1.9949750
  51.2750130  37.3853226   1.9927524  50.2586327  38.1266556   2.8344061
  54.3300476  28.8656387  10.3272362  54.5147591  28.9672413  11.2609329
  54.7270393  28.0263176  10.0944910  15.2535477   5.9490957  50.7119637
  15.1004276   6.8764606  50.5309105  14.8545990   5.8034844  51.5697937
  35.7284546  68.2776566  37.6730080  36.1656876  67.9640808  36.8813477
  35.0613174  67.6161346  37.8561745  86.5305786   1.3247256  80.3183212
  87.4207535   1.6736757  80.2731018  86.4323349   0.8141910  79.5146179
  68.4904099  43.8066864  84.1446609  69.1453629  44.3274918  84.6094589
  68.8100967  42.9067688  84.2092972  25.3665981   0.3218960   7.2328095
  24.4375629   0.4615724   7.0494595  25.5590630  -0.5360185   6.8544288
  85.5160599  54.2881508  13.8892488  85.9636002  55.1016502  13.6565161
  85.8283691  53.6507835  13.2470236  83.4813309  62.0836296   1.7515754
  83.9305954  62.1429596   2.5947089  82.8469849  62.8002777   1.7672428
  26.7512913  35.9551353  59.2384911  27.4759998  36.2761459  59.7751312
  26.3001118  35.3233986  59.7984695  29.5492859   2.9108119  58.0206871
  29.7673149   3.6703103  58.5609245  28.5975895   2.8339374  58.0884781
  50.7381363  17.5135708  13.0556087  49.9766808  17.7025547  12.5072412
  50.7581367  18.2281437  13.6921749  40.9364395  70.8034286   9.2794561
  40.5802612  71.2018814  10.0735626  41.7445564  71.2877197   9.1102171
  49.1558723  58.7482147  84.5383682  49.3471107  59.1260757  83.6799469
  49.3802757  59.4404945  85.1601562  45.4952087  12.5786638  79.4444580
  45.9917679  12.9579191  78.7193222  44.6339455  12.9924049  79.3872375
  69.5962982  11.3993464  52.4587708  69.2238617  11.2213717  51.5951462
  70.5168152  11.5972939  52.2864685  63.4530182  39.1104813  33.0105324
  63.1472664  38.7163010  33.8274612  62.6933746  39.0764160  32.4291458
  51.9938889  52.3582840  44.4546585  52.8823814  52.1232033  44.1871605
  51.6838188  51.5993652  44.9487534  55.5419121  37.5775032   5.5824084
  54.9611359  36.8589554   5.3321595  56.3713188  37.1510887   5.7980204
  19.7147388  41.0583801  78.3624954  20.6478786  41.1448631  78.1675568
  19.6165905  40.1568298  78.6687775  75.2451477  36.2770424  67.7613831
  75.7339249  37.0511055  68.0409622  74.9669724  35.8616867  68.5776672
  85.8840332  62.6924858  86.4644928  86.1566620  63.5869980  86.2601547
  84.9354248  62.6960831  86.3365936  27.9441910  69.5573883  70.7128677
  27.6971054  69.9984741  69.9000778  28.3292656  68.7286148  70.4281082
  57.7298584  18.8763027   9.1219044  58.2301407  18.1990013   8.6666965
  57.7173843  18.5914555  10.0356541  78.7482300  30.1209736  73.6022339
  79.3192062  29.7794724  74.2904205  79.1690369  30.9343014  73.3235703
  52.9065628   8.7364283   3.0553923  53.8061752   8.4602222   2.8803477
  52.5811958   9.0431004   2.2090361  49.5067406  45.5909805  61.4486847
  49.5466881  44.6839409  61.7518654  49.2312813  45.5259666  60.5342865
  82.3596039  52.2091064  79.0468674  81.9443359  52.4751358  78.2264938
  83.2971344  52.3169365  78.8867264  47.6954765  30.7450504  59.7069206
  48.6245613  30.9617710  59.7847900  47.6568184  30.1098232  58.9919205
  60.2187538   8.5010786  70.2527542  60.7076797   8.9704514  69.5768280
  60.4252434   7.5788379  70.1008759  12.5416517  51.0429993  41.9064140
  12.1490173  50.2915230  41.4621696  12.6725979  51.6896362  41.2129135
  44.2827377  15.7861118  73.7940903  44.2316971  15.2480936  73.0040512
  45.2185783  15.8382702  73.9882965  20.4692230  54.6971893  85.7016754
  19.6051769  54.9768982  85.3993149  21.0815659  55.1132011  85.0948792
  55.0322227  21.2330494  53.1291504  54.9954834  21.2990971  52.1749382
  54.3556252  21.8360023  53.4371986  10.2832689  61.8880577  19.6504440
   9.6909895  61.2585297  20.0616989   9.7035389  62.5341301  19.2470398
  24.9854012  66.5648193  48.0408440  25.0295277  67.2812653  47.4076042
  25.8556938  66.1672211  48.0136948  25.7541332  45.1362000  13.5567284
  25.8604717  46.0270157  13.8904581  26.5768108  44.6986046  13.7756853
  35.5959015  52.5325089  60.1646690  36.0262451  53.2811775  60.5776215
  35.7512131  51.8048515  60.7668571  14.1381435   6.9196577   1.5561032
  14.8812943   7.4520640   1.8398333  13.3759489   7.3416228   1.9526343
  35.3784218  11.3796787  84.4782486  34.6051903  10.8380098  84.6361847
  35.0699844  12.2779570  84.5973969  59.4460335  38.1677666  19.4739475
  59.3850746  38.9541779  18.9316635  59.7878304  37.4959259  18.8840008
  73.4578018  38.6039963  44.7634964  73.1154251  39.0501938  45.5380325
  73.1496582  39.1321144  44.0270424  33.1160431  22.7816353  67.1862183
  33.7962494  23.2303371  67.6884308  33.2419739  23.0857849  66.2874069
  10.1037893  59.9449463  50.5687904  10.1593666  60.0340614  49.6173706
   9.1689262  60.0157776  50.7617836  72.2023010  22.8305817  66.4147644
  71.7829437  23.4214802  67.0402298  72.8343887  23.3808002  65.9522095
  68.7944717  25.5426483  21.0661125  68.7868729  26.1766796  21.7831764
  68.4678726  26.0314598  20.3107166  30.4578819  51.2391510  47.7273979
  29.9541168  51.7984123  48.3187332  30.7697697  50.5239182  48.2818375
  86.0374603  51.4265823  63.2454224  86.9369965  51.4804077  62.9226685
  85.8626633  52.2929039  63.6130676  70.6850052  25.7290821  38.9126892
  71.1188736  24.9149857  39.1680946  70.4043427  26.1206131  39.7398300
  61.3903847  62.8051491  31.0545788  62.0485306  63.4650993  30.8365574
  60.6399422  63.3097839  31.3682861   8.4378796  63.7715073  34.9055862
   8.0328274  63.6280251  35.7609062   7.8570619  63.3271904  34.2879562
  25.5087013  46.0991211  76.8390656  25.0535393  46.8677216  77.1830292
  25.3140144  46.1049500  75.9018936  23.0588322  38.4287491  83.9285889
  22.5046902  38.9676323  83.3639984  22.8624935  37.5287704  83.6683502
  65.7095108   6.1786613  10.2657728  66.5503998   5.9814582   9.8531599
  65.2295914   5.3508968  10.2389736  19.0438938  11.0084286  16.4377556
  18.2490234  10.4838104  16.3419056  18.7670860  11.9019413  16.2346687
   2.0062234  42.4346886  41.5732689   2.3012474  43.2003593  42.0661621
   2.0578959  42.7054443  40.6566124   3.3614566  24.6439800  38.0155869
   3.9767134  24.7028828  38.7464905   2.5273359  24.4103565  38.4228897
  66.9471283  47.9340858  47.9637032  67.3962936  48.4666290  48.6201172
  66.1263199  47.6776695  48.3841286  64.8869553  61.8783798  37.5635567
  64.9552307  61.3882790  36.7441864  64.8210220  62.7934418  37.2905235
  77.0021896  12.6387348  65.2878952  77.4807510  11.9053011  65.6742630
  77.2050781  13.3825483  65.8551788  55.6611824  44.9152260  55.4180031
  56.3868752  44.3217659  55.2245941  54.8752975  44.3931198  55.2566872
  85.7913589  51.8015327  16.7665310  86.2409744  51.4245872  17.5228329
  85.8537598  51.1270943  16.0901623  80.8088303  67.7202072  26.7891808
  81.6551361  67.5025940  26.3984814  80.9244690  67.5463028  27.7233200
  42.9773674   1.1840063   0.4398690  43.2629471   0.6988224  -0.3342575
  42.1926689   0.7225576   0.7357562  53.0430565   4.1541643  35.8786697
  53.3744278   4.8776555  36.4106331  53.7180824   4.0167704  35.2140732
  59.2996521   6.8538818  28.5901299  59.9677238   7.4095926  28.9914970
  58.7642288   7.4572058  28.0748081  48.0740509  66.5662460  42.2937851
  48.8468170  66.0362167  42.0985146  48.0675087  67.2397995  41.6137009
  18.4431095  62.5402794  16.9681797  19.1300812  63.0954590  16.5992966
  18.9053707  61.9521179  17.5653534  40.8655014  12.2447023  87.2671204
  41.0313683  11.3996639  86.8492355  41.4649658  12.8497047  86.8302612
  22.5818920   6.4186664  79.0355453  22.6154881   6.9499130  79.8310852
  21.6517029   6.2287135  78.9134903  28.9482899  61.6174660  83.2620621
  29.3046417  60.8118210  82.8876495  29.0060997  62.2573509  82.5525360
  65.2872467   5.4471121  57.9589348  65.2274933   4.5378475  58.2520218
  66.2210693   5.6524477  58.0041237  33.3723412   5.5195894  85.9990921
  33.3041725   4.9186344  85.2571793  33.9029617   5.0481029  86.6412582
  64.4229279  30.7821980  45.7330055  63.5264740  31.1066551  45.8186226
  64.3236618  29.8864422  45.4105148  12.3398895  50.1656418  54.2667198
  11.8261909  50.8957825  53.9214058  11.6995249  49.6130333  54.7148132
  82.2201920  67.6440964  23.2432404  82.0032883  66.8102722  23.6602936
  82.7845230  67.4045639  22.5081329   5.5336423  61.9638176  69.9403534
   6.0171638  62.2713890  70.7070541   5.7195630  62.6142502  69.2631531
  62.5027428  48.2757874  45.0995674  61.8491135  47.7614021  44.6258507
  62.4309158  47.9776917  46.0063248  27.4296589  24.2709656  84.4485474
  28.0554562  23.8515606  85.0390625  26.6395893  24.3830490  84.9771881
  20.7060471  18.8376064  83.7665253  20.9720154  17.9926186  84.1291351
  21.4973373  19.1793423  83.3502197  85.9944611  15.6229191   1.1474755
  85.8623734  15.6990023   0.2024908  85.2722931  16.1204643   1.5310842
  33.0418701  52.7571945  55.2923508  33.4528389  51.8940353  55.3402481
  33.4247627  53.2455444  56.0211411   9.4981756  64.6197357  73.0494919
   9.5004930  64.1741943  73.8966751   9.7731276  65.5146790  73.2487793
  56.5158806  29.9460411  72.1787186  56.7452774  29.0488262  71.9366150
  57.3325081  30.4361534  72.0831146  73.3113022  63.2150993  33.8195114
  73.5953369  62.5279808  33.2166634  72.3611755  63.1109467  33.8708649
   3.1699727  47.6898499  26.4683228   3.1849711  48.4156685  27.0921783
   2.6917486  48.0327606  25.7133751   7.0123219  30.7199669   0.0431370
   7.8421440  30.2464981  -0.0156427   6.6271071  30.4265327   0.8688110
  84.5531921   5.1644526  37.2188911  83.6987228   5.5834694  37.1162415
  84.3664780   4.3516765  37.6887512  86.6285477  68.2372665  36.2676010
  86.3243713  68.9665527  35.7273788  86.0393219  67.5152588  36.0490608
  64.8335876  64.8248215  16.4524803  65.5737686  64.8376007  15.8456907
  64.0668259  64.9693985  15.8980341  77.1287460  13.3600235  16.3913956
  77.9805450  13.1336470  16.0179920  77.2248611  13.1890459  17.3282833
  50.2202644  31.3496437  26.3438148  49.9655609  31.1692772  25.4389248
  50.7804451  32.1235924  26.2852287  72.2488708  25.6760807  78.8134613
  72.1473618  24.8158627  78.4060898  71.6644211  25.6527386  79.5711594
   4.2450314  11.7481632  13.1932096   4.4604034  12.1118727  12.3343954
   4.5871592  12.3884220  13.8171082  82.5709763  49.7535591  87.1112061
  82.5239334  48.9345741  86.6179733  81.9730072  49.6244583  87.8474121
  55.8667946  10.6460886  18.4904900  55.5291748  11.5415716  18.4716454
  56.8113327  10.7486362  18.6069527  18.6215210   0.9116812  34.4062462
  18.4468727   1.8382535  34.2413406  19.0527725   0.8976050  35.2606812
  83.7255020  47.7757378  45.8338089  83.6499329  47.4330711  44.9432449
  84.6482849  48.0147018  45.9209900  64.5458374  51.9877129   1.6327444
  65.4163818  52.1790543   1.9817109  64.7117386  51.6099854   0.7690143
  16.6696129  59.4464912  64.5364304  16.4430809  60.3735542  64.6103592
  15.9076195  58.9850655  64.8866882  75.0401535  15.7314959  12.9838543
  75.3432465  15.3694553  12.1512117  74.4048157  15.0920906  13.3059454
  18.4019032  55.4007874  29.8430691  18.5135612  54.4789238  30.0752983
  18.0901184  55.8144836  30.6479778  72.3636551   7.8004074  81.5614548
  72.9836121   7.8577785  80.8344116  72.8797760   7.4544945  82.2895966
  72.1587219  59.3191833  24.2665520  72.8530502  59.6312599  24.8468571
  72.0067062  60.0459938  23.6625080  33.0114441   8.9627142  11.9412804
  32.9633408   9.9160786  11.8704672  33.9392166   8.7800961  12.0900002
  25.0127010  53.4327049  40.3469772  25.3653564  54.2405167  39.9737434
  24.3195877  53.7249794  40.9389229  10.9514894  42.6781425  37.3871613
  11.0004854  42.1140594  38.1589394  10.2553158  43.3027267  37.5907974
  31.9618969  33.4182129  69.1412430  31.2757683  32.8375473  69.4703140
  32.4599533  32.8772430  68.5284424  11.9337130   1.9778739  69.7325821
  11.7605906   1.2652613  69.1174011  11.6293850   2.7643926  69.2798080
  66.5892181  12.8782835   6.4674463  66.5247345  13.7917147   6.7462239
  67.5127869  12.7602682   6.2453752  21.8771896   4.2457409  53.8235054
  21.0229797   3.8154700  53.7857971  21.8943634   4.8120847  53.0520172
  26.2506104  33.4896736  60.9638939  27.0383644  32.9898338  61.1779861
  25.6217270  32.8309784  60.6691780   3.7788112  49.2004242  80.4034424
   3.9116695  48.9885063  79.4794998   3.4253902  50.0899620  80.3967285
  46.8877182  60.8628731  35.7642822  46.8697701  60.7726746  36.7170525
  46.3297958  60.1532059  35.4459610  13.5951138  45.8341217  58.3539047
  13.3215704  46.7158165  58.1008835  13.1258001  45.6627998  59.1703758
  62.5596046  71.4137039  84.1818771  61.9822960  72.1560211  84.0032349
  61.9673615  70.6684799  84.2825012  41.2292480  68.5022888  68.2944183
  40.5354729  69.0965881  68.5802765  41.9961929  68.7677231  68.8019257
  48.1267090  64.5109100  71.2785263  47.2465096  64.4692612  71.6523514
  48.6718216  64.0209579  71.8941803   5.8112097  16.0802631  15.6754646
   5.8253603  15.6994171  16.5535240   5.1960473  16.8106747  15.7410851
  67.9062500  62.1284065  13.0028887  68.5749893  62.4829216  13.5888319
  67.5809402  61.3494720  13.4541836  22.4898453  58.8754082  25.7860203
  22.6139145  59.8192863  25.8856964  22.8051453  58.5040588  26.6099834
   6.2311554   9.5624104  26.9633598   7.1621594   9.5858374  27.1845264
   5.7999043   9.2847223  27.7715340  79.6887817  53.4555664  19.8766289
  80.2411041  53.8161850  20.5702610  79.9160690  52.5261726  19.8483105
  23.5119991  61.0955086  31.3540802  24.0371571  61.8955040  31.3751259
  22.6057911  61.4034386  31.3681812  55.1428032  63.7023010  56.3624840
  54.9920387  63.0641441  57.0598068  54.3043900  64.1538849  56.2657089
  48.9313927  66.7892303   7.5275965  48.8457298  66.9986572   6.5975242
  49.6050377  67.3894653   7.8472071  72.8664932  34.1044922   0.7486598
  73.2517090  33.3100281   1.1183460  73.2722397  34.1882744  -0.1142315
  75.5255890  35.0534935  84.9679260  75.0160904  35.7644653  84.5791245
  76.4376221  35.3059502  84.8240814  47.7917747  11.3667870   3.2646170
  47.9332008  10.5215597   3.6910217  46.8634186  11.3650455   3.0314145
  34.5523109  12.6350203   3.4805961  34.3891869  11.8969040   2.8933947
  33.9346275  13.3085766   3.1959541   2.1562455  40.0051689  51.8023491
   2.4132736  39.1783867  51.3941879   1.1992377  39.9861412  51.7999382
  80.5803146  15.1718760  71.5478287  81.4827271  15.4910507  71.5504990
  80.1867218  15.5728750  70.7729034  74.9297791   9.4984207  44.0945625
  74.8497238  10.2174244  44.7213440  75.7008057   9.0116119  44.3857040
  28.0140305  13.9060898  70.0969467  27.8674335  12.9648981  70.1912842
  28.7853012  14.0835123  70.6353683  75.8800888   9.0336094   1.2940083
  75.4673157   9.3313007   2.1047051  76.2038116   8.1562624   1.4982060
  12.7187977   5.2576022  87.9220810  12.1746883   4.9566402  87.1943436
  12.1344233   5.8032780  88.4483643  72.4334030   9.6670132  34.9806099
  72.6440201   9.9628592  35.8662415  72.2578659   8.7309122  35.0761909
  84.2709961  38.2828560   0.1227292  84.4363632  39.1602974   0.4676671
  84.8850937  37.7203293   0.5946150  32.8612175  65.0693436  56.6960945
  33.0904083  65.7388535  56.0515289  33.6232910  65.0217743  57.2733421
   2.6899660  36.2644119  68.1292038   2.4108431  37.0925446  68.5197449
   3.6054161  36.4089928  67.8898773   0.0082978  45.5726852  13.9091492
   0.9085300  45.4281540  14.2005672   0.0611935  46.3402786  13.3397341
  71.4173965  54.3566017  19.0223274  70.5297623  54.7010689  19.1206913
  71.9816437  55.0438385  19.3766727  14.7573805  56.0607605  28.9149895
  14.9443846  55.1304779  28.7891445  13.8292751  56.0891838  29.1474667
  78.8849411  28.6903534   3.1670735  79.6420822  28.8465424   3.7315016
  79.2143173  28.1120777   2.4790771  80.5699005  59.4544754  24.0124550
  81.1374893  59.9277039  24.6208382  81.0514221  59.4560204  23.1851883
   0.1175698  61.4856567  21.9338245   0.7183090  62.1639557  22.2424583
   0.0392793  60.8811836  22.6718693   1.8174882  68.5245819  88.1334305
   1.0169578  69.0439453  88.0582733   2.4628835  69.1306152  88.4973297
  68.9067307  56.4088936  81.5620880  68.6533508  55.5568657  81.9171600
  69.2907944  56.2080803  80.7086258  62.6757317  36.1502228  56.4250069
  62.3784676  36.9165916  56.9154625  62.4476814  36.3444290  55.5158806
   9.5635366   0.4520143  36.3075218   9.4228096   0.9846391  37.0902977
  10.3602438  -0.0441374  36.4954681  41.6216164  68.3123093  27.2952785
  42.3418083  68.8246536  27.6627827  40.8622055  68.8923187  27.3510551
  85.8071518  39.2556953  25.2689342  85.2492294  39.9606590  25.5975399
  86.1457443  38.8310509  26.0571384  25.7135773  42.9033012  72.1394577
  25.1422901  43.3160820  71.4917908  26.2401466  42.2838936  71.6342010
  16.7437515  60.6503716  16.0043316  17.0261917  59.8372993  15.5855541
  17.5454769  61.0206261  16.3736286  61.3791847  63.4170227  17.3039417
  60.4802055  63.4830284  16.9819012  61.3783607  62.6366119  17.8581905
  31.6244602  49.1382790  34.8380203  30.8090706  48.8011665  35.2091370
  31.3445587  49.6980629  34.1137772  66.7455368  51.5813942  87.0661774
  67.4513855  51.6256790  87.7111969  67.1405487  51.1507492  86.3080597
  66.3070450  46.9889603  23.4780788  66.6975784  47.3869209  24.2561169
  65.3872757  47.2520256  23.5105343  31.2279987  46.6797752  51.7158813
  30.7143993  46.0156136  51.2561607  31.9756680  46.2000389  52.0723572
  66.3263321  42.3008232  44.2983551  66.7095108  42.8269196  45.0002289
  66.3998032  42.8514748  43.5188560  60.3412590  19.7676029  11.9279585
  60.5505028  20.4500179  12.5657368  60.2554092  18.9699707  12.4501123
  69.0888290  12.7030840  24.8942680  68.8750839  12.1863279  24.1174107
  69.6441269  13.4103355  24.5661373  51.0328712  57.3867264  21.9017315
  50.8683357  56.9286575  21.0775127  51.4449234  56.7297058  22.4627762
   8.6840248  57.8400993  10.4762125   8.2294912  58.2107697  11.2326736
   8.3422556  58.3295326   9.7279596   3.0613451   7.6193972  77.4432373
   2.9056430   6.8892779  76.8441467   2.5666063   7.3927584  78.2307053
  17.5195408  56.3155022  55.3430557  17.1290035  56.6127396  54.5212517
  16.8765507  55.7073135  55.7076111  69.7012939  26.7898273  25.3766460
  70.3231812  27.3785400  25.8043175  69.8093033  26.9653530  24.4418964
  79.1774826   8.4309025  67.3515015  79.0739746   8.9397459  66.5473938
  78.8909531   7.5486841  67.1152267  37.7805099  28.6058044  80.9745941
  36.9727821  28.7360973  80.4777756  37.5049400  28.6318436  81.8908997
  29.5705261  71.0010529  25.8400040  28.7180672  70.9271469  25.4109554
  29.4292717  70.6434784  26.7165985  38.5352592  67.0764465  67.2338715
  38.9090195  67.2868881  68.0895844  39.1862297  66.5088348  66.8212128
  13.0074224  12.7280703   8.8799810  13.8734789  12.8043137   8.4795237
  12.9968147  13.4035158   9.5581350  86.3706741  14.2016869  21.7880249
  87.3262329  14.1549187  21.8189163  86.0887909  13.9189844  22.6579971
  50.5332642  23.0351753  71.0303192  50.9306030  22.3130589  71.5170441
  51.2019310  23.7200966  71.0295868   3.2054222  59.0706291  10.3061275
   3.8666904  59.7134972  10.5624075   2.8069377  59.4383583   9.5173197
  54.1191216  66.6231766  24.1632957  53.7805443  65.7290192  24.2087822
  54.4730835  66.7899857  25.0368614  22.4813347  59.2488022  39.4737549
  22.8987312  59.9473267  38.9696960  23.2101841  58.7242584  39.8052101
  63.0683899  46.0164795  78.3258591  62.7378654  45.5967445  77.5316238
  63.9502411  45.6607513  78.4355240  53.3929901  11.9560699  21.1233387
  53.4256401  11.5771341  22.0017319  53.8039703  12.8153782  21.2177658
  77.5030823  45.9811020  10.1961832  76.9645920  45.7196922  10.9431248
  77.9825287  45.1878242   9.9572716  52.1729584  30.1836472  23.8473892
  51.2799683  30.5279961  23.8324318  52.5997124  30.6556091  24.5624866
  57.4051056  40.4790268  86.1113434  57.7040329  39.6896858  85.6598816
  57.0323830  41.0244904  85.4186783  74.1332397  24.9065800  37.8682785
  74.3265915  23.9916649  37.6638870  74.9375000  25.2378712  38.2678261
  75.7070999  66.6713181  71.0134277  76.6191864  66.8341751  71.2538605
  75.3282013  67.5437775  70.9063034  63.0149536  43.2329597  77.1508484
  62.1705742  43.2795639  77.5992737  63.4830627  42.5256844  77.5945435
  73.6541519  23.7880783  17.2186413  74.1820526  23.7148895  18.0137463
  72.7591782  23.6108379  17.5081978  29.5823326  51.3507080  30.4936771
  29.6497440  51.0770378  29.5789146  29.1519203  50.6167374  30.9321632
   3.6101274  66.9932327  41.7264061   3.3631694  66.1082153  41.4581032
   4.1063905  67.3387451  40.9843979  73.4221420  53.2621803  23.4734306
  73.8066635  53.6097908  24.2781315  74.1390610  52.7900848  23.0498905
  30.9328556  57.5529060   8.3686247  31.0307293  56.9321938   7.6465669
  31.8302517  57.7673264   8.6234493   8.7988195  52.4911346  72.0029221
   9.2279310  53.0779572  72.6256027   7.9348812  52.3298035  72.3821487
  68.4510803  52.7756729  69.8549805  68.4732132  53.6559143  70.2303772
  68.5583191  52.9138641  68.9139023  64.7283783  21.1897316   1.2221205
  64.1414490  21.4853973   1.9180567  64.1535187  21.0396938   0.4716175
  77.2252121  43.9862404  72.4162521  77.7825470  44.4813385  71.8158493
  77.3817978  44.3849754  73.2722473  26.2269554   1.4561352  66.6421432
  27.0806217   1.2894146  66.2425308  25.7052135   1.8438714  65.9395218
  84.1133728  44.7680244   2.1688535  83.7212143  44.1404228   2.7759426
  84.9756546  44.4027710   1.9706248  50.9904938  70.8211975  79.6423035
  51.8980522  71.1133041  79.5572052  51.0412178  69.8662949  79.5995789
  55.7020340  71.8387604  77.5559235  56.4646492  71.3763733  77.2082825
  54.9846230  71.2098770  77.4780731  85.8650055  21.3500614  34.5369415
  85.7794266  21.7346611  33.6645927  85.9726562  20.4126663  34.3759155
  21.6849842  56.6128578   5.4134502  21.2904568  56.1769905   6.1688318
  21.8069248  57.5190735   5.6965327  46.4076462  58.4373131  88.6647415
  45.5131950  58.7594147  88.7762909  46.6782227  58.7728958  87.8101044
  74.4939270  71.1481552  18.3339424  73.5590515  71.2184219  18.1408234
  74.8882065  71.8956070  17.8843937  51.5110588  59.2505608   7.4171610
  52.2203865  59.7653236   7.0323215  51.0393829  58.8928146   6.6649828
  48.7983322  31.3090515  12.3137817  48.7020721  32.2506485  12.4564638
  49.7412834  31.1537380  12.3680944  29.7551212  70.9338684  28.6357002
  30.6091137  71.0973816  28.2354603  29.9526634  70.7460403  29.5532665
  75.5970306  44.6644516   2.5626092  75.2921295  44.9358063   3.4284244
  76.1786804  45.3706932   2.2813046  71.1349869  68.3396835  33.8452034
  71.3973541  68.5128174  32.9410896  70.3365707  67.8175125  33.7670898
  42.9884262  38.6742363  39.3747559  42.2531128  39.1523857  38.9914551
  43.6281700  39.3524246  39.5916100   8.1621771  39.7262573  88.1351395
   7.9423666  38.8465080  88.4416733   7.3175325  40.1248932  87.9256287
  19.9500351   2.2225151   3.7654817  20.8955002   2.2553077   3.9112587
  19.6024609   1.7885953   4.5446720  25.2668877  68.3640289  53.1601753
  24.9856415  68.7639999  53.9830704  24.5026646  68.4311829  52.5877380
  50.4821777  16.5036983  22.5144672  50.0726128  16.0083733  21.8051434
  50.5220299  17.4023151  22.1871586  79.3981781  17.3436680  46.6291504
  79.8381882  18.1373730  46.9335442  78.7464066  17.1570034  47.3048592
  19.7445869  65.0442657  62.1457443  20.3526669  65.6687393  62.5413399
  19.9996071  64.1971970  62.5113716   4.8059993  66.6058731  88.5658188
   5.1063433  66.6876602  87.6606445   4.0425835  66.0307846  88.5138245
  45.1646461  38.6098289   8.7250147  45.7402229  38.8253708   9.4588299
  45.7418900  38.2016487   8.0797167  26.2723351  48.0863266  41.9694595
  27.0546150  48.4259224  42.4041405  25.7312450  48.8599396  41.8114281
  87.2076416  27.4433956  87.3695526  86.5157623  27.1790428  86.7632141
  86.7579269  27.5722408  88.2046509  30.5798340  39.5629425  87.2078857
  31.2468166  38.9486885  87.5145721  30.1641064  39.8842430  88.0079880
  14.2817459  22.8412437  68.0612488  15.0422735  23.4155674  67.9719086
  14.5823851  21.9931602  67.7347488  11.8819866  17.2800846  85.6006546
  11.1009188  16.7371349  85.7072830  12.1829910  17.4448013  86.4942398
  43.8553467  10.2016344  80.0198364  43.7548370   9.9411716  80.9354172
  44.3143196  11.0407295  80.0585251  55.6833038  60.5838852  25.2754288
  56.2550926  60.1091881  24.6721478  55.9606323  61.4969101  25.1998825
  13.8865671  58.3846092  85.1527634  14.7436714  58.3853073  84.7266159
  13.9986286  57.8168449  85.9151993  78.1686630  24.1380196  72.3613892
  77.6557693  23.7818737  71.6359024  78.3330612  25.0480824  72.1144257
  50.0815659  55.0230408  10.2845268  49.4632492  55.5325279   9.7607508
  50.9183502  55.1216431   9.8303232  63.9910355  37.0968933  51.1970711
  64.8093719  36.9163246  51.6596222  63.4770393  36.2957420  51.2980270
  64.2236404  26.4544144  17.0247955  63.9936295  26.2505970  17.9313183
  64.9711761  25.8877678  16.8341637  84.5595627  14.2683716  30.2640915
  85.0452728  13.7315054  30.8902626  85.0931702  15.0561152  30.1594410
  40.6421242  70.5754929   6.5254064  39.7777786  70.9042206   6.2782669
  40.6104164  70.5123749   7.4799967  42.0840797  49.8449554  10.2861309
  42.9789658  49.8293762  10.6254997  41.9460144  48.9655380   9.9342833
  21.7255268  63.7619324  64.4447403  21.3877392  64.6318512  64.6577530
  22.6763020  63.8714943  64.4287262  55.8260422  13.8115406  53.3801384
  55.8097458  13.2336226  54.1430130  56.4251747  13.3837671  52.7683563
  56.0690498  66.2291489  70.7402573  55.7736855  66.7142487  69.9697571
  56.4192314  65.4107666  70.3883209  52.5103188  26.1285610  13.8827896
  53.2377357  25.9640312  13.2827654  51.9071312  26.6784992  13.3828268
  58.4068489  58.3626747  33.9979019  57.7296829  58.3360558  34.6739006
  58.3262177  57.5232964  33.5449409  44.5501862   9.5676422  87.0991745
  44.4461517   9.6808243  88.0439529  45.3710213  10.0149508  86.8933182
  43.8206444  14.0299711  61.5364723  44.6800766  13.7208614  61.8229294
  43.8186989  14.9632616  61.7490654   0.1866629  26.4352684  20.9825993
   0.2211961  27.2841606  21.4235344   0.2977118  25.7954216  21.6858025
  12.1045113  11.3220520  67.7449799  12.8397398  11.7744656  67.3314743
  11.9491568  11.8080254  68.5548782  81.2540436  12.9068203  77.1654739
  81.4872131  13.8344517  77.2024384  80.6442947  12.8422327  76.4304504
  57.2888870   4.1172929   7.8864231  57.0203705   4.1472521   8.8047009
  58.2435112   4.0546327   7.9179487  10.5559616  20.3945198  28.4396591
   9.6362906  20.5902309  28.6189213  11.0331640  21.1487942  28.7854595
  84.1386948  17.5262241  69.6898422  84.1017990  16.6990623  69.2095490
  84.1914520  18.1965847  69.0086136  52.1046066  18.8136864  43.7290115
  52.1364746  18.7739391  44.6848564  51.1705513  18.8393593  43.5213699
  22.3260479  50.0470200  71.9335098  23.2720833  49.9355011  72.0273743
  22.0697708  49.3867874  71.2895813  37.1232109  68.1477356  45.3325577
  36.9331779  68.2245712  44.3975639  36.7154694  68.9201813  45.7241058
   0.9778276  14.7377148  12.6611147   0.5131728  14.8101349  13.4948311
   1.5279307  15.5202084  12.6247463  33.6267700  34.2741127  84.3065872
  32.8061790  34.1926804  83.8205490  33.7865181  33.3971977  84.6554947
  17.4626865  49.2759476  22.6410675  16.6937866  48.8551064  22.2564659
  18.2065525  48.8589096  22.2063541   3.8351839  50.0733833  83.6286697
   4.7734957  49.9997826  83.4543533   3.6294978  50.9908562  83.4493103
  78.3117828  11.9984989  80.7050018  78.1747055  11.4753485  79.9152145
  79.1156693  12.4882431  80.5313568  52.8594170  40.4362030  33.8970222
  53.7780228  40.5834236  33.6718178  52.8335266  40.5008469  34.8516884
  29.0494537  43.4950867   5.9319563  28.6474209  43.9368744   5.1840091
  28.3614998  43.4764290   6.5972414  27.2728844  66.7583771   4.4680643
  26.7251244  66.2815704   3.8444848  28.1555691  66.7041931   4.1017818
  20.1608105  49.6058388  27.9541492  19.2176609  49.7692261  27.9555855
  20.5358047  50.3711319  27.5183315  57.3827019  31.3262005  81.8095398
  56.5654144  31.3475990  82.3073502  58.0695229  31.3737621  82.4745560
  76.8881760  40.7792015  39.0191383  76.1633835  41.1923904  38.5499077
  76.6552811  40.8655930  39.9435463  22.7501354  67.6379395   6.7572312
  22.0493546  68.2882843   6.8040614  23.2176380  67.7293930   7.5874782
  23.4692841  49.1089859  32.0989838  24.0792942  48.3786621  31.9953136
  22.6350460  48.6947708  32.3196716  14.8437300  61.1899223  61.2257195
  14.8467093  62.1436844  61.1447296  13.9164534  60.9524536  61.2258415
  27.1183777  53.5149231  51.9629021  26.9035397  53.0195580  52.7532768
  26.5762997  53.1216431  51.2790031  73.1623688  31.8477554  78.6485748
  74.0491486  31.6657143  78.9595718  73.1104279  31.4060612  77.8009644
  61.2870636  14.8870840  69.2826004  61.2140121  15.8289833  69.1285782
  60.3866501  14.5659285  69.2341614  17.0245075  41.6110764   8.4537125
  17.0664883  42.5385895   8.2209301  16.8942890  41.6077919   9.4020071
  46.6941223  55.8162041  83.8784943  46.5479507  54.9555168  83.4859619
  46.5129280  55.6886520  84.8096924  33.8610229  55.3152580  68.8599854
  34.1405220  54.7132225  68.1702957  34.4763947  55.1607170  69.5766830
  69.8804626  11.2668800  68.4151535  70.4176178  11.5025291  69.1715698
  68.9790039  11.3678741  68.7207565  64.2695618  44.2896347  10.2493906
  64.1042175  44.4741249   9.3248053  63.8957672  43.4198303  10.3906345
  53.0758705  23.2930565  56.7887268  53.0859451  24.0363960  57.3917007
  52.6376190  22.5953579  57.2759476  19.2550716  54.1869698  44.4342957
  19.1566391  53.5314407  43.7437744  19.6143227  53.7009048  45.1765289
  42.5972595  51.0045853  71.0610962  41.9275131  51.4561958  71.5746384
  42.8005676  51.6096077  70.3477631  42.7526665  29.2030983  88.3376999
  42.2734909  29.5130329  87.5692215  42.1572456  29.3599854  89.0705719
  12.6039057  49.1392860  75.3037415  12.3036194  49.5699806  74.5033951
  12.9035654  48.2775917  75.0140610  20.4425144  35.5443344   9.1641312
  19.8154087  35.8341789   8.5015926  20.4090500  36.2227058   9.8386116
  30.7015629  47.8662224  39.6383362  31.0119228  48.5828438  40.1918373
  30.2778473  48.3012810  38.8984528  16.7130451  55.1865311  87.9652481
  17.3138771  55.1667137  88.7101212  17.2841377  55.2093468  87.1974182
  28.8381977  65.9916534  82.8852386  29.7144337  65.8074570  83.2236328
  28.2641907  65.9036560  83.6461563  26.7064552   5.3013263  55.9360237
  25.7852840   5.4899640  55.7568893  26.7422028   5.1587310  56.8818703
  75.8842926  53.5164909  68.0596619  75.3011169  52.8103714  68.3381042
  76.2112656  53.2342834  67.2054443  65.4598465  18.8918972   4.4538546
  65.6566544  19.8015862   4.6773796  64.5206223  18.8884449   4.2692242
   4.7326174  42.1243477   5.8532338   4.0737391  41.7152634   6.4142704
   5.2897043  41.3992653   5.5701375  30.8098278  48.4761238   9.7189674
  31.6125488  47.9824486   9.5511684  31.0471554  49.3864555   9.5423269
  50.2007179   0.9294180   3.8718534  50.2088089   1.3425591   3.0084410
  50.1064835   1.6582053   4.4852219  30.6400623   4.8266048  81.5690155
  31.1867428   5.4489775  81.0894089  29.8618412   4.7202334  81.0219421
  77.6908569  55.8765068  28.0185928  77.3115997  56.6042671  27.5258846
  77.7076340  55.1491280  27.3966007   4.9396749  15.2168655  75.1862335
   4.0411057  14.9085407  75.3034592   5.4669919  14.4181423  75.1717606
  49.9408264  64.5434723  41.9991379  49.2973938  63.8558235  42.1705017
  50.7688370  64.1804581  42.3135452  76.3837814  62.1778374  68.0521317
  75.4459305  61.9898949  68.0155640  76.7515640  61.4616661  68.5698776
  68.0063858  11.4626722   3.4387670  68.3430176  11.7606258   4.2838292
  67.6320953  12.2480707   3.0396571  10.3294144  37.4133644  29.7154331
  11.1113100  36.8991508  29.5142994  10.2519522  38.0271301  28.9850063
  65.5114594  14.0059223  84.0628510  64.6047745  13.7031622  84.0128784
  65.5801315  14.4151382  84.9254379  62.7416306  58.6982040  73.0716476
  62.5899925  59.6311874  72.9207153  63.6876793  58.6267815  73.1986313
  71.5597458  25.4721966  54.1395569  71.8641968  25.5853615  55.0399628
  71.9608841  26.1959057  53.6583443  19.2775078  24.2628689  79.6953735
  19.1090527  23.3694382  79.3959885  18.5340939  24.4698715  80.2616959
  82.1620255  21.1829548  51.3721085  81.4233627  20.8889885  50.8390007
  81.8687515  22.0112629  51.7517548  55.7514954  42.1365776  36.6348343
  55.1179161  42.2911491  37.3354912  55.8908119  42.9988861  36.2433701
  56.4867363  20.6643257  86.9879379  56.8763084  21.3160038  86.4050293
  55.9488678  20.1198559  86.4130630   9.1875696  45.2306519  58.9237900
   9.7102356  44.4505501  59.1095314   9.1536140  45.7002182  59.7572098
  33.8636551  44.0248528  48.0670242  33.8994179  44.9112549  47.7075272
  34.0945702  44.1311646  48.9898491  69.6852798  35.5275078  29.9003696
  69.9373093  34.6048813  29.8619137  68.8726578  35.5329323  30.4061794
  52.3241310  31.2087612  81.2093353  52.1744423  31.7379856  81.9927597
  52.9412117  30.5333481  81.4908600  13.8027964  31.6567097  74.7687759
  14.2108231  30.8025856  74.6265869  13.8303356  32.0810432  73.9112167
  10.9179554  31.9216232  78.5123215  10.1383467  31.3985767  78.6990356
  11.5197058  31.3110256  78.0865250   9.9874220  41.6410980  61.3577690
   9.4384165  41.8172798  60.5937119  10.8600550  41.4878578  60.9954720
   6.4842019  24.1032124  58.8591576   7.0067363  23.7045422  59.5550385
   7.0959363  24.2081146  58.1304550  43.4820061  58.5333481  32.5184441
  43.7928505  59.2294579  31.9396172  42.7327232  58.9172783  32.9738579
  72.5024872  63.4931908  88.6226959  72.5475464  62.5691032  88.8681870
  71.7708511  63.5421600  88.0074310  23.1685028  53.8365822  69.7367249
  23.5730228  54.2505722  70.4990921  23.8999538  53.4408989  69.2627563
  59.6001396  26.3152981  83.7785492  58.7556686  25.8821621  83.9030075
  60.0690346  26.1663418  84.5996399  72.9834976  10.5338478  73.7665634
  73.2271500  10.7202320  74.6732712  72.1940460   9.9970503  73.8361969
  82.7031860   0.3028729  49.8984528  82.9056168   0.5520115  48.9966850
  83.4068451   0.6915984  50.4180450  55.4096375  48.5099106  15.1768770
  55.0292320  49.3574982  14.9463968  55.7823296  48.6436615  16.0483379
  56.3706436  37.6146851  52.7422791  56.4147453  36.6641998  52.8465080
  55.4403381  37.8223190  52.8297806  18.2064362  65.8043976  34.0365067
  17.6325741  66.2697067  34.6451149  17.7409801  64.9906616  33.8430634
  83.5792847  19.3534451  18.5999527  83.2196045  19.6673603  17.7703056
  83.1867065  18.4886475  18.7192726  60.7285957  57.7730789  48.3140335
  61.3932571  58.4549828  48.4113159  60.4347076  57.5958519  49.2075958
  45.0844574  53.8372917  78.5026093  44.2044182  53.9241982  78.1362686
  45.5210342  54.6579819  78.2743530  17.5021801   1.4701329  12.2038155
  16.9807110   1.5725681  12.9999361  18.3971138   1.6733615  12.4758883
  78.2561722  67.0437927  71.6013565  78.9760818  67.2119217  70.9933319
  78.6800308  66.6853256  72.3811493  35.5192986  40.0657692   1.6997386
  35.4183311  39.1163597   1.6314778  36.4563141  40.2165489   1.5752438
  53.6510429  49.0187187  42.9695702  53.9019852  48.4624481  43.7070122
  53.0532303  49.6632500  43.3482971  35.8511734  53.7597656  72.9566727
  36.0109024  54.5796852  72.4892883  36.2512474  53.8921280  73.8161240
   1.8424360  25.3178444  10.1607380   1.0811734  25.8873672  10.0495834
   1.4711572  24.4542751  10.3413868  36.7939301  63.2111435  20.3402176
  36.8762169  63.8165398  19.6033630  35.9092369  63.3593102  20.6742878
  76.2163315  33.4225731  80.7223282  76.3634262  33.3970490  79.7768402
  76.5536575  34.2760963  80.9942474  13.9904985  13.0108528  18.7743607
  14.6090841  12.3173037  18.5450726  13.2937994  12.5617599  19.2530651
  66.5373230  29.2771378  47.3163147  66.6081848  28.5825157  46.6615562
  66.4504776  30.0811081  46.8041420  67.3013077  48.0699120  58.7829094
  67.5337448  48.1617012  57.8589058  67.7231064  48.8148575  59.2111320
   9.7866488  47.8240166  83.8038177   8.8595018  48.0615311  83.8185425
  10.2197018  48.5184174  84.3003082  51.2452354   5.2726488  70.1570740
  50.7554932   5.0110402  69.3773651  50.7026024   4.9811440  70.8897476
  20.2630596  46.4003105  78.6943665  21.1430607  46.5523796  79.0389023
  20.0018387  45.5585136  79.0676880  20.4142056   1.3038541  68.4681396
  19.6381512   1.7396559  68.8203506  21.0589733   2.0045955  68.3708420
  16.0550957  61.9116745  64.6999283  15.1410875  62.0706978  64.9355774
  16.3721218  62.7582932  64.3853531   5.3945093  54.8970680  57.4251671
   5.3143024  55.1808662  56.5145302   5.7321215  55.6648293  57.8864594
  23.2375336  43.4631767  64.1362762  22.6893177  43.9289284  63.5047989
  23.8005486  44.1408806  64.5103989  23.1438026  43.8983116  28.1096573
  22.2823811  43.7082405  28.4812222  22.9696331  44.5302353  27.4121151
  39.0458069  60.3408699  43.0056915  39.7870827  60.7337112  42.5448074
  39.1481590  60.6284828  43.9129028  74.8895569  68.5370255  19.1920128
  74.6167679  69.4354401  19.0058365  75.3360138  68.5924835  20.0368977
   7.2223010  10.1056681   2.3295341   8.1307459  10.2211714   2.6081352
   7.1793151  10.5280991   1.4716669   4.6038051  59.7648735  82.8881683
   4.9142604  60.6053505  83.2249908   3.9249818  59.4949684  83.5066986
  72.0694656  20.4961643  60.7903976  71.1521225  20.3892117  61.0419540
  72.2516327  21.4242210  60.9379082  45.6831322   3.6215017  16.2036991
  44.9749031   3.3852348  15.6046848  45.4614105   4.5041180  16.5004482
  50.8675156   9.0598803  81.7123718  50.3258018   9.8134346  81.4779968
  51.5099030   8.9975786  81.0054779  79.2914658  23.8375969   2.5511506
  79.8631058  24.6040192   2.5057356  79.7588425  23.1608562   2.0614402
  25.3298378  68.5672455  78.6016769  24.5432415  68.1135559  78.2989197
  25.0618401  69.4824982  78.6836624  21.1834068  44.0271835  86.1496964
  21.8166714  44.5690155  86.6204681  21.6909866  43.6215324  85.4468079
  69.0782700  19.7391109  60.5535469  68.9227905  20.0432587  59.6593704
  68.4952774  18.9867973  60.6554184  69.6360016  63.4669151  32.0795822
  68.8735962  62.8960342  31.9843960  70.1756210  63.2757568  31.3124409
  36.6673508  58.7399445  32.6364212  35.8789368  58.6236038  33.1666107
  37.1724663  57.9395599  32.7795067  77.4489975  25.6236553  44.7701874
  78.3286819  25.3131828  44.5557098  77.3696671  26.4574356  44.3067780
  23.7751713  69.0689087  24.6556892  24.4610977  69.6806107  24.3881855
  23.2863941  69.5379410  25.3319569  72.3231049  28.7077274   0.0198201
  72.9587250  27.9922314   0.0027361  72.0009689  28.7204533   0.9210944
  46.1344376  38.3394966  19.4647923  46.4075546  39.2568817  19.4578133
  45.3950844  38.3143272  20.0722103  13.5266905  70.8955460  42.8040466
  13.2568665  71.8124390  42.8563385  13.7558632  70.6616516  43.7034912
  77.4210663   7.3221741  80.6973419  76.4811096   7.3258848  80.5164871
  77.5929947   6.4505029  81.0535126  64.5892715  29.6934090  78.8813324
  65.1351013  28.9080124  78.8432541  64.4204254  29.9123974  77.9649429
  71.5685196  43.8031731  87.0006332  71.3425064  43.3754539  87.8265915
  72.5034866  43.6307297  86.8896103  67.4317093  26.6998024  81.9546051
  68.3664246  26.6438446  81.7561111  67.1751022  25.7996769  82.1550064
  60.6594048  13.3452120  73.8482132  60.4642906  14.2717867  73.7081375
  60.8275566  13.0006056  72.9711761  23.7912350  23.2770767   2.2142212
  23.0088444  22.8551579   2.5693028  23.4777203  24.1146221   1.8729607
  77.4174347  58.5497475  19.7082767  76.9978104  59.0903893  19.0390568
  78.3410263  58.5321007  19.4574776   5.2554822  15.8765402  88.0167236
   4.6298246  16.0738449  87.3196869   4.7236204  15.8358669  88.8115158
  76.4181442  40.0996361  75.4614792  76.3607788  40.6875076  74.7082520
  75.8256683  40.4815445  76.1090469  58.7631683  31.0294628  87.4417191
  59.6695747  31.1186981  87.1472855  58.4056015  30.3219910  86.9051971
  11.8375235  45.9093437  69.5967636  12.1163378  45.3213348  68.8948135
  11.2189350  46.5071106  69.1769333  49.6240540  31.4066696   8.5893621
  49.6967888  30.4960213   8.8751268  49.6812057  31.3634605   7.6348476
  31.8323441  46.2528229  20.3224888  31.1287632  46.4232101  20.9487267
  32.6252174  46.2151642  20.8574352  86.2918930  71.1180725  30.8450966
  85.8378525  70.2761002  30.8791695  86.4941330  71.2437897  29.9179897
  25.8922157  54.9966774  65.6663818  26.5846634  55.5106544  65.2509613
  26.1475277  54.0862617  65.5174179  67.5151749  11.3322134  29.3981876
  66.9650650  11.0325584  30.1219425  66.9003983  11.7167683  28.7733650
  29.5826511  -0.0339887  19.6082649  30.0256348   0.5302122  18.9744854
  28.9232159   0.5305251  20.0116234  36.5804558  50.4605598  50.7005959
  35.8868256  51.0530205  50.4105988  36.9590263  50.8918114  51.4667168
  80.4649048  67.5555191  29.5060825  80.9343185  68.0947952  30.1425228
  79.5494232  67.6019897  29.7817059   8.9913950  31.4052181  81.3706055
   9.2651949  31.1326160  82.2463684   8.6375380  32.2860603  81.4936371
  57.5467072  44.4747658  19.5759258  58.2831421  44.5983810  18.9770813
  57.8173409  44.9139290  20.3822308  79.8367538  56.7553177  84.0838699
  79.0691757  56.1972275  84.2086945  79.6581192  57.2302704  83.2722397
   8.0485754  36.5289078  68.2597656   8.3108130  35.9913368  69.0070801
   7.7924705  35.8967896  67.5881500  23.3556213  46.5424957  42.2274017
  24.0896301  46.1686707  42.7149658  23.5172825  46.2882347  41.3188591
  85.4478683  42.2108307  56.9636078  86.1147003  41.5524979  56.7682686
  84.6784973  41.9261131  56.4704094  23.9113350  27.2131386   7.4831243
  24.2084122  27.2497406   8.3923197  24.7003403  27.3770466   6.9665623
  34.2998695  49.7691574  29.5062180  34.6890182  49.4958115  30.3369274
  35.0199623  49.7219048  28.8773575  30.5047874  53.8421860  63.4973068
  29.5963936  54.0940056  63.3310547  30.6310139  54.0043335  64.4321899
  21.8567352  48.0211220  80.4862976  21.1884937  48.6882172  80.3292389
  21.9999447  48.0436707  81.4324570  75.4785233  49.8669395  57.2607956
  74.6116562  49.6029396  57.5691528  75.3069763  50.3655281  56.4619141
  57.6043053  65.9026794  29.1262035  57.9728355  65.8646622  30.0087967
  56.7252846  65.5349960  29.2176456  62.5730515  51.2147064  50.0369987
  62.4789848  52.1315498  50.2954063  62.5415382  50.7290993  50.8612709
  51.9384422  62.5358238  39.8699875  52.7922096  62.8776207  40.1354866
  52.0183525  61.5872879  39.9706230  74.9984283  28.0125332  22.2892914
  75.8084183  27.6045361  21.9832134  74.8972626  28.7878418  21.7371178
  64.1046066  29.7566795  60.7965355  63.2020836  29.5542011  61.0428963
  64.1033630  30.7005081  60.6371002  62.8271942  59.6177940  49.6209717
  63.6852074  59.7602844  49.2212944  63.0145302  59.4887352  50.5507469
  18.5707798  58.0787888  69.9174576  19.3145142  58.6761093  69.8380814
  17.9207172  58.4229813  69.3049393  44.0448380  59.4426498   0.3870924
  43.4031258  58.8669548  -0.0288520  43.5184288  60.0659714   0.8876882
  48.7138634  19.6617203  72.8390732  48.2792511  19.7126503  71.9877472
  48.8779984  20.5736752  73.0791321   3.2861323  21.9951267  68.6122360
   2.6649988  21.4831085  69.1301804   4.0703526  22.0444851  69.1588593
  46.0461655  57.5057526  18.9662323  45.6880684  57.9818573  19.7154465
  45.3874893  57.6094780  18.2794895   1.2136821  56.0608864  50.1753120
   0.4033512  56.3995857  49.7946815   1.7884045  56.8241463  50.2332687
  29.9334412  64.1871567  19.6725483  30.8297443  64.4625626  19.8649693
  29.5964928  64.8625717  19.0838966  16.6568794  65.6848221  77.8771362
  17.3098679  65.9904785  78.5067444  16.5224285  64.7636032  78.0996704
  45.6478958  66.9195633  55.3944397  45.6432114  67.8352203  55.6733246
  46.1708221  66.9160461  54.5927124  75.6800232  45.0651970  21.7139034
  75.2792587  45.3891258  20.9072475  76.3395691  45.7228813  21.9345417
  56.3831253  58.6073189  53.8047600  56.2004166  57.7853699  54.2600098
  55.6349945  59.1673126  54.0119781  67.7837753   0.7979658  74.1807556
  67.7083588   0.6594124  73.2366486  67.8048019   1.7495363  74.2822647
  61.2640343  14.8694925   3.9114938  62.2042847  14.9505110   3.7515135
  61.1969986  14.2463875   4.6350121   3.6325252  24.0822468  47.9099541
   3.2664614  24.4703865  47.1152382   3.4419174  24.7200832  48.5977516
  10.3834591  63.9242783   4.3657966  11.2968798  63.9375458   4.6516623
  10.0017433  64.7150803   4.7467914  29.8714542  37.1392593   7.1338487
  30.5596657  37.2521706   7.7894769  29.4079475  36.3475800   7.4070539
  48.8427277  54.3573074  81.4727859  48.9363861  53.8460121  80.6690216
  49.6454620  54.1812401  81.9635544  64.7467194   4.9687562  48.1905746
  63.9397163   5.3244824  47.8185005  64.5766373   4.0309525  48.2790451
  78.2970505  47.2098351  38.2111702  77.9544525  46.3270607  38.3510437
  79.1823807  47.1834526  38.5741158  54.2937164  28.9353485  15.6551857
  54.4372864  28.2394028  16.2964973  53.3600082  28.8838310  15.4508200
  82.7401505  50.3330765  60.4784470  83.5461655  49.9173470  60.7846222
  82.9924698  50.7777824  59.6692505  13.6728516  15.5544806  67.8846588
  13.9452610  14.9548607  68.5792694  13.7124863  16.4217663  68.2877426
  41.9713058  38.4114952  12.2474604  42.1710739  39.3475914  12.2545938
  42.0925751  38.1476555  11.3353672   8.3831453   6.4455733  19.6754761
   7.5874081   5.9423680  19.5027943   8.9658670   6.2295194  18.9474754
  74.9674377   5.6497436  52.2857285  74.1730423   6.0833044  52.5974846
  75.2537384   5.1137443  53.0253029  28.5689812  47.9564056  11.2894354
  29.1919460  47.8743820  10.5673428  27.7108765  47.9669228  10.8654318
  63.4205704  62.4464340  80.9115295  63.2517204  61.8013039  80.2248459
  62.6261063  62.9795914  80.9398499  14.3780994  -0.0986086  31.5264435
  14.2363510  -0.5167518  30.6771526  14.1445847   0.8186395  31.3837605
  62.1488495  56.0986710  78.4711304  61.7570114  55.4420242  77.8953552
  62.6266899  55.5889626  79.1254196  22.7356644  14.1683121   4.4033890
  21.8594971  14.2588959   4.7780304  23.0934429  15.0560760   4.4135227
  31.8074608  48.6664314  28.5105858  31.1229801  48.7456779  29.1749954
  32.6156693  48.8918190  28.9712677  36.3881798  59.8583832  60.0930367
  35.4735870  59.5815163  60.0374298  36.3449135  60.7739906  60.3687515
   7.5073714  43.7845612  49.8467102   6.7826986  44.2199364  49.3977890
   7.2487316  42.8636322  49.8817787  82.1877747  51.8494339  71.7586365
  81.9422607  51.1750069  71.1253128  82.0236511  52.6757851  71.3042755
  78.0672226   0.7531103  87.0217285  78.3679199   1.3670996  86.3517838
  78.6017914  -0.0293554  86.8867645  42.4335899  22.9446220   1.0999105
  41.6997719  23.5120049   1.3361717  43.2100220  23.4869499   1.2387038
  73.7916794  56.4805908  89.0400848  74.5081024  56.1285744  89.5683517
  74.1911392  56.6711845  88.1913605  83.2628021   0.8045574  29.9120998
  83.4640350  -0.0492722  29.5290718  82.3145828   0.8928716  29.8156033
  75.1242447  57.9879227  12.9982214  74.2782745  57.9625664  12.5510931
  75.0758972  58.7624969  13.5585127  41.3340340  18.4460335  62.2160988
  41.8495064  19.0799904  62.7147179  40.9381866  17.8830318  62.8813553
  45.4187851  22.0157948  73.9636917  45.8887749  22.2370796  74.7676620
  45.1125755  22.8574314  73.6258850   9.8110256  56.3249359  64.9094315
   9.2672844  55.9001236  65.5728455  10.1621027  57.0999947  65.3479080
  62.1521378  65.1511841  82.2170792  61.5891647  65.9035568  82.3993759
  62.8482742  65.5019531  81.6615753  68.6717987  44.8990784  39.1928253
  69.0260468  45.1883812  40.0336876  67.8981323  45.4463043  39.0578384
  40.9913063  37.5284958  78.8576965  41.4079285  38.0891418  79.5121689
  40.3738213  38.1045418  78.4070129  63.5074883  21.7547569  64.6378632
  63.8965034  22.5942860  64.3927307  62.7965927  21.6276417  64.0096130
  68.8627701  49.8189735  22.8035450  69.4116364  50.3939934  22.2703152
  68.5623398  49.1433449  22.1956787  59.1847496  12.1552954  53.2236710
  58.8395081  12.1756582  52.3311310  58.8592606  11.3320065  53.5876541
  23.8665276  38.4106560  55.4629860  24.2611904  39.2139626  55.1236153
  23.0303631  38.3414268  55.0022621  50.2680168  39.5376129  26.4065800
  49.5061722  40.1147118  26.4593258  49.9330292  38.6755676  26.6533413
  80.8730240   8.2512379   0.4808597  80.1271667   8.3220778  -0.1148836
  81.4008865   7.5388846   0.1201083  65.5776062  18.8655338  50.0590591
  65.0784988  19.6666718  50.2181320  66.2243500  18.8422470  50.7643318
  45.8228645   1.1578674  31.8863468  45.4919739   0.9900798  32.7687263
  46.6095505   1.6860425  32.0219650  75.4908752  36.3847389  25.7787495
  75.5025635  37.1366348  25.1865101  74.7770157  36.5712395  26.3885479
   3.3554544  21.8920784   9.8351326   3.5192330  22.7487679   9.4408092
   3.5679877  22.0099831  10.7609625  26.0338001  70.4551620   9.4766254
  25.5046902  69.7891846   9.0375977  25.7769642  71.2779160   9.0602903
  38.1304893  44.8750305  23.3282013  38.6038246  45.5386124  23.8300457
  38.7971535  44.2276955  23.0985336   3.3339040  64.4798737  72.6844406
   4.0695171  65.0664520  72.8606033   2.8837469  64.8774109  71.9390869
  41.6523933  18.4046059   2.4045112  42.3757744  17.7821255   2.4784622
  41.9436569  19.0328789   1.7437004  51.3622894  42.5313606  82.9783707
  52.1556587  42.4776344  82.4455414  51.5341835  41.9546394  83.7227325
   4.3616524  15.1879978  31.9878178   3.9892168  14.4461040  31.5112495
   5.2497506  15.2738428  31.6412010  60.7932701   5.8073130  11.8862028
  61.1054535   5.6947980  12.7840414  59.8766403   6.0658689  11.9819756
  18.5286579  37.8325233  67.9514618  19.2297859  38.4800606  67.8783417
  17.9282551  38.2017021  68.5991135  22.8658772  45.9076881  84.3167267
  23.7053509  45.9971962  83.8656082  22.8198910  44.9819336  84.5556717
   3.8880508  18.7649097  37.0894699   3.6014023  17.8777981  37.3064880
   3.9428773  18.7718563  36.1338654  32.0989685   5.4369750  17.6850071
  32.5437202   5.3041844  16.8478737  31.2501812   5.0081387  17.5759525
  72.7676010  49.1866417  57.6822853  71.9868011  49.7400627  57.6645851
  72.4326859  48.2964249  57.5746574  10.4540701  13.8444090   5.0208573
   9.6084099  13.4006987   5.0857668  10.2348328  14.7759371   5.0003328
  72.1164627  49.3635063  18.6192551  71.2974091  48.8842239  18.4940548
  71.8419418  50.2561760  18.8290424  20.5969353  60.9076843  14.4111547
  19.7099209  61.2263641  14.5781288  20.6259365  60.0484734  14.8320408
   6.8704047  29.5065155   6.5776410   7.2244959  29.2051525   7.4143205
   7.6397200  29.7715130   6.0734959  67.2557220  28.8627720  72.0510406
  67.4648056  29.2430515  71.1978683  67.5502548  27.9542694  71.9869995
  45.6729622  31.7489300  50.9932938  45.8041000  32.3472519  50.2577362
  45.9804115  30.9017925  50.6707039  53.8039589  67.1248398  32.0400810
  53.4408531  67.9222412  31.6546650  53.0854797  66.4933319  32.0052528
  75.5194855  66.0628586  67.5414429  75.0135574  66.4387741  68.2618256
  74.8964157  66.0020523  66.8173447  60.1320076  55.0467606  34.4342422
  60.7129898  55.6229515  33.9375610  59.2677002  55.1870270  34.0475426
  24.7731438  52.1304398  46.8057365  24.2598457  52.9164734  46.6189117
  24.3710670  51.7633286  47.5930099  72.1598434  61.3248291  59.8597336
  72.6800079  61.2182884  59.0632935  71.2716522  61.0798225  59.6002769
   1.3354665  50.8073959  46.0290260   1.4163872  50.9127274  46.9769669
   0.7750140  51.5331345  45.7543793  24.9062481  60.5261002  26.4176483
  25.3332901  59.6904640  26.6062775  25.1753769  61.0999107  27.1349640
  57.5469551  62.7092514  55.3211594  58.4328728  63.0714302  55.3355675
  56.9992104  63.4013367  55.6916008  42.6315536  13.3582554  11.5275183
  43.2727890  13.4567556  12.2313271  42.1030006  14.1550608  11.5718222
   3.8072159  68.3317108  39.3609924   4.7081404  68.6235886  39.2217941
   3.3574080  69.1011429  39.7101021  73.2024384  51.1123047  39.4530792
  72.7519455  51.1559868  40.2965126  72.4986725  51.0285492  38.8097076
  33.7530098  63.1270294  54.5885506  33.0074196  63.4058380  55.1201477
  34.4522018  63.7396889  54.8166122  33.5304794  61.4938850  33.2214966
  32.8525734  60.8232918  33.3050232  33.6893730  61.5578308  32.2797432
  83.7955399  33.0105286  19.6516514  83.0564117  33.5599823  19.9124603
  83.6938171  32.2111931  20.1683216  48.7298470  37.8345871  81.0062943
  48.0553436  37.1976547  80.7705002  49.3785439  37.7669334  80.3056870
  30.7581081  48.0664406  44.8454399  30.3384781  48.9201202  44.7387924
  30.3021851  47.6662712  45.5858650  56.3053932  43.4051971   3.9288592
  55.7272186  43.2795982   3.1764140  56.9156609  42.6689224   3.8875175
  63.5561142  16.5551434   6.3125324  63.8463593  17.2944736   5.7783256
  63.4764709  16.9147053   7.1960502  48.8300323  48.7891960  49.8862915
  49.7525444  48.7092018  50.1287842  48.6290474  49.7166557  50.0114059
  59.2695770  41.5699425   8.2982359  58.8876610  42.2239647   8.8835812
  58.5378342  40.9968376   8.0694761  77.9956589  20.4027920  43.1310501
  78.1575623  19.4594326  43.1406136  78.7453995  20.7791672  43.5919800
  84.9332504  44.6304970  70.0651855  84.8282089  44.8626366  69.1425171
  85.0498810  45.4692497  70.5114136  66.0277710   0.7283942  33.2534447
  65.6697540   1.5895194  33.0377617  65.9210587   0.2169167  32.4514275
  78.8851089  12.6514959   6.0675182  79.6449127  12.1154213   5.8404651
  78.8646622  13.3342075   5.3969078   1.3372861  58.3335915  32.1107063
   0.9782059  58.3172607  31.2235622   1.5512609  59.2536240  32.2655907
  57.6407394  24.6904469  67.4425201  57.5633850  24.4520645  68.3663330
  57.7353020  23.8541946  66.9864807  17.7626457  47.4817848  32.4955063
  17.5071583  48.2782745  32.0301399  18.6868286  47.3625259  32.2766571
  18.7772312  40.4716797  47.1381569  17.8663521  40.6346550  46.8932686
  19.2159252  40.2736320  46.3107758  10.5417881  38.5999794  64.6544189
  11.3474245  39.0078239  64.3368607  10.8353262  37.9719086  65.3144150
  66.0554886  56.4769325  66.7731323  65.8281021  57.3876686  66.5858078
  66.9595184  56.3888054  66.4711609  78.5661697  37.6452103  30.1816864
  77.7173538  37.8885880  30.5511627  78.8764267  36.9341316  30.7423458
   6.4983606   0.4205322  28.7656498   7.2020731  -0.2203092  28.6639481
   6.1502075   0.2568730  29.6421394  47.5241814  46.3496857  50.1738625
  48.1571884  46.0193748  50.8113823  47.8136482  47.2433128  49.9898376
  55.1907845   1.8063201  43.3413124  55.4859962   2.7166555  43.3605881
  54.4795799   1.7715687  43.9810143  51.5415916  57.3608742  86.8630142
  52.4369316  57.6993828  86.8659821  51.0146179  58.0742760  87.2229919
  76.5918503  55.8067169  72.1608582  77.1488037  56.0185318  71.4117432
  76.9910736  56.2727432  72.8954849  27.6292782   7.0604682  78.3428650
  26.7918644   6.6803002  78.6082687  27.4607754   8.0015211  78.2953491
  41.8952408  54.0747414  19.7512665  42.6778946  54.5446434  20.0391445
  41.1688309  54.6507225  19.9896011  40.0561066  69.1933594  43.9699974
  40.7870293  69.6657181  43.5714302  39.9158707  68.4404831  43.3957634
  60.9742241  27.9929962  25.8207378  60.7344398  28.5375996  26.5704994
  60.2892723  27.3255577  25.7807083  43.8392601   5.4330950  84.8559494
  44.7602539   5.5652461  84.6311417  43.7720795   5.7171960  85.7675400
   7.4793200  13.7985802  59.8167648   7.4611754  12.8962545  59.4978409
   6.6384683  13.9130507  60.2595940  26.3491745  38.5953293  11.9272127
  25.6655731  39.2652740  11.9368429  25.8726063  37.7677803  11.8618240
  15.6307926  63.8892097  61.3470116  16.1043301  63.8626099  62.1784477
  14.8887243  64.4707413  61.5125160   3.7028987  45.2660484  82.4628906
   3.0174301  45.9199448  82.5999527   4.2072992  45.2736855  83.2763748
  13.7776146   5.2519169  24.5964985  14.6877794   5.4029727  24.3415203
  13.6805277   5.7194815  25.4260712  34.0785675  55.5426826   6.2668748
  33.5088959  54.7795906   6.3637958  33.6627846  56.0665359   5.5820837
   4.1846876  70.4638367  61.8519440   4.1151919  70.7497635  62.7627907
   4.1258440  71.2718201  61.3421135  52.0146065  10.4836016  60.1129303
  52.2359123  10.7733307  59.2278786  51.9555435   9.5306273  60.0452347
  72.3002472  63.5318489  84.2439728  71.3992004  63.2494545  84.4008179
  72.3353882  64.4236679  84.5898819  26.8113632  44.3811760  11.0356903
  27.6377335  44.0377884  11.3754406  26.6272449  45.1456985  11.5814342
  64.7117767  59.2487907  43.3792801  64.1058578  59.9042473  43.7249298
  64.3490677  58.4113960  43.6681404  38.0106468  62.1440659  24.6431274
  37.5697899  62.9762535  24.8144054  38.6926537  62.3607140  24.0073872
  61.1084633  15.6216545  28.9832802  61.3901939  16.4325504  28.5598335
  61.6102600  15.5899248  29.7977905  64.5969162   5.7387638  72.9793472
  64.2487335   4.8506069  72.9007568  64.3272095   6.0254173  73.8518829
  31.9325905  45.0576057   1.1253240  31.9571819  45.2314186   0.1843580
  31.5314579  44.1916008   1.1985211  28.6075840  17.4562511  56.0483551
  28.3015442  18.1208973  55.4312515  28.9733391  17.9568481  56.7776413
  22.0646343   9.3748598  74.7679672  22.3307667   8.6440296  75.3259048
  22.1079502  10.1410732  75.3400421  72.2256546  69.2834778  51.1953697
  71.6247559  69.5161667  51.9031830  72.9076385  69.9542542  51.2299232
  51.0398865  63.8477821  13.5410042  50.8382072  63.1908798  12.8746424
  51.9876404  63.7853584  13.6597471  63.5718155  54.4055481  40.4482307
  63.7475739  53.9085274  41.2471733  63.7775841  55.3113136  40.6794891
  26.7564964  36.8717346   1.8379697  26.4585438  36.0983658   2.3168807
  25.9747810  37.1895561   1.3861518  80.8226547  38.4391060  63.7903938
  80.9370651  37.4923668  63.7077446  80.3592072  38.5528183  64.6201630
  34.8043785  42.0477905  40.8224220  35.2495499  42.8919411  40.7484894
  35.4823990  41.4014091  40.6256523  29.1777458   7.2530227  29.8645840
  29.9017277   6.6780190  29.6166878  29.5339413   8.1373053  29.7785606
  35.7992973  33.8993607  69.1417084  36.6155739  33.9722557  68.6471329
  35.4012527  34.7674103  69.0762482  59.1028595  65.9380341  42.5170441
  59.4559517  66.5819702  43.1309700  59.1927071  66.3513794  41.6583824
  66.7122345   6.4989157  19.4706936  66.2076416   6.9476700  20.1490974
  67.1620789   5.7926893  19.9345016  86.2086563  36.5921593  84.8643570
  86.2620926  35.9988365  85.6135864  85.9082184  36.0399780  84.1425095
  56.1665382  61.7825394  74.1384583  56.2479744  61.0500832  74.7492752
  56.0621452  61.3692245  73.2814255  17.6043739  50.1944046  31.5213013
  17.8272381  50.6680717  30.7199249  16.6526852  50.2718925  31.5885162
   7.7136030  37.0299988  71.8920746   7.7579126  36.4059906  71.1675873
   6.8713312  37.4701881  71.7778702  74.3432770   7.6159816  46.6595650
  74.4642029   6.6685772  46.7230759  73.9159470   7.7466812  45.8130798
  42.9197884  12.1536283  83.6420822  42.0983963  12.2713432  83.1649094
  42.7062492  12.3826456  84.5466156  72.6765900   7.8947306  17.8115139
  72.2492981   8.3689232  18.5248127  73.2981644   7.3130474  18.2491436
  38.9502754  53.9744949  46.1309853  38.3018303  53.2709084  46.1041298
  38.5162315  54.7164421  45.7098541  24.4197235  52.2732582  59.2785873
  23.9438496  53.0955315  59.3953781  23.9876404  51.8497314  58.5368576
  53.2648354  43.8039665  54.6444092  53.1400299  43.5966568  53.7182999
  52.9108810  43.0458374  55.1093674  42.4837990  65.1790161  70.8957443
  42.9677048  65.4521637  71.6751404  43.1461906  64.7840805  70.3287354
  38.0320816  34.6042366  16.7035160  37.3147774  34.5858688  17.3370495
  38.8166618  34.7430382  17.2339878  37.1300011  52.0425720   2.5450020
  37.7493591  51.9467735   1.8215038  37.6413727  51.8351288   3.3271129
  29.0565147  47.9214783  59.3386841  29.1800594  48.3530083  58.4932556
  28.6577988  48.5917168  59.8936996  62.5277824  47.9763489  32.0151787
  63.3292198  47.6310577  32.4085121  62.5934601  48.9242859  32.1306419
   1.8902003  11.4682894  84.2561874   2.0625870  12.0585384  84.9897537
   0.9632047  11.2452888  84.3409348  62.9319153   2.1547909  12.0897989
  63.3801384   2.0796819  12.9322271  62.1331978   1.6381835  12.1965647
  71.7035065  36.2364464   9.0643673  71.6794281  37.1932907   9.0743694
  71.7913895  36.0087318   8.1388102  55.7800140  63.0461845  38.6194458
  55.7343178  62.1749992  39.0133781  56.6330528  63.3865318  38.8891029
   6.0571680  44.4898529  77.4852295   6.7749639  45.0683327  77.7428436
   6.4368701  43.6115265  77.5096359  76.0056534  51.7251892  51.7066002
  75.7792282  52.2391205  52.4817390  76.9595032  51.6517181  51.7381744
  50.0933113  35.4045715  11.7657099  49.1705093  35.6072273  11.9193439
  50.3341599  34.8232040  12.4869833  25.7150440   6.2502284  84.0079575
  25.1941681   5.4779096  83.7878571  26.3202991   6.3483481  83.2729263
  20.4628372  69.4270477  51.1086845  20.6590958  68.6010284  51.5507278
  20.1544189  69.1668243  50.2407036  11.2876358  57.4155159  86.6614990
  10.8384838  58.2005882  86.3481979  12.0284081  57.7492599  87.1675720
  66.4689026  20.5016766  24.2651787  66.1925888  19.9718094  25.0129242
  65.6573486  20.8798580  23.9266701  79.8494186   6.2598033  11.1567440
  80.5389328   6.1840043  10.4971590  79.2725525   6.9465737  10.8223648
  69.7568207  14.4316044   2.7736478  68.9122009  14.5969372   2.3547060
  70.1079941  15.3030214   2.9567902  60.1346588  57.1720657   1.1962702
  59.5374870  57.5526810   0.5522602  61.0074463  57.3304825   0.8365772
  41.4030151  46.4622612   3.1061335  42.2965660  46.4652519   3.4493349
  40.8705788  46.8104630   3.8213274  71.5626144  66.2215576  63.4210510
  70.9124908  66.5811920  62.8175278  72.4050217  66.4828339  63.0491524
   2.2497945  20.0847263  40.8737183   3.0620348  20.4185467  40.4928513
   2.3757288  20.1697826  41.8187790  11.8204594  40.7817459  79.9971008
  12.3006639  40.0464249  80.3778152  12.0494413  40.7619705  79.0679016
  82.4266129  30.0984554  39.2301636  82.9129715  30.0493793  38.4071922
  82.6423798  29.2842216  39.6848068  74.7807007  64.6499329  35.6658173
  75.1336975  63.8096275  35.9582405  74.1702271  64.4222870  34.9645844
  59.2377052   5.1080484  44.3735046  58.9685364   5.5986514  45.1500931
  60.0779343   5.4938836  44.1257668  11.4785805  15.8811712  59.5686035
  12.4300385  15.9811649  59.5376091  11.2059460  16.4141026  60.3155212
  16.3780155  34.1264229   7.2570620  17.0436096  33.6317024   7.7350435
  16.1076164  33.5418854   6.5489430  62.2381516  66.2153931   4.3719478
  62.9407616  66.5670319   3.8252103  62.6847534  65.6478806   5.0002050
  67.0696487  55.9341545  16.9494534  67.5405350  55.5147896  16.2292919
  66.8020020  56.7834244  16.5982513  27.8683701  43.8350067  43.2028389
  27.9669590  44.7747536  43.3557625  28.1096287  43.7152061  42.2843208
  57.1341324  38.0957146  21.2844772  57.4951706  38.1846085  22.1665096
  57.8983650  37.9527397  20.7261429  85.3179626   4.2807131  87.2909088
  85.9143066   4.2498989  88.0390091  85.8922729   4.2548423  86.5255814
  18.8976498  38.3375969   5.4161878  19.7474384  38.1142578   5.0364356
  18.3685188  38.6195335   4.6700230  50.8709946  15.4561090   6.4588475
  50.5788689  14.7372732   5.8983378  50.9618073  16.2012501   5.8649201
  66.2586746  15.7517719  70.7206955  65.3037338  15.8029928  70.7618866
  66.5612640  16.4660320  71.2815018   3.7543161   8.1712008  23.9785175
   3.0335019   8.0099735  24.5873394   3.9668217   9.0967503  24.0986500
  10.9597216  25.7370834  67.0529251  11.7130375  26.3005524  66.8761520
  11.3249903  24.8530331  67.0884933  62.4844170  35.1138000  69.0722351
  63.4188957  35.0517349  69.2700348  62.1805458  34.2061501  69.0639801
  73.3983002   7.3793964  30.3901539  72.5463638   7.8113284  30.3278694
  73.2528000   6.6482081  30.9905071  47.5980110   3.5524063  55.7339249
  47.4073639   2.6478043  55.9820824  47.3807945   4.0651927  56.5124474
   3.9631331  13.5057144  38.9546967   3.9091856  13.8248844  38.0538902
   4.4777150  12.7009411  38.8932419  25.9624233  11.2669001  60.7808647
  26.3444958  10.8412066  61.5483551  25.5394421  10.5564194  60.2986450
  51.1087990  57.4953537  47.5556984  50.8197098  58.2676163  47.0696220
  51.2721901  57.8175659  48.4421005  65.3473892   6.9226036  79.7492065
  65.3635330   7.8785672  79.7950897  64.7538223   6.6590590  80.4523849
  82.8611298  45.5263443  68.2652969  82.4962769  45.9941177  67.5140915
  82.8411026  46.1650620  68.9779434   0.2738536  36.8476486  51.1086884
   0.0293262  37.5759964  50.5377731   1.1269509  37.0975418  51.4636688
  71.9410095  11.8516817   9.4403534  72.4845505  12.5985632   9.6912832
  71.1739578  11.9116287  10.0097971  83.4932861   6.8599086  17.7639008
  82.6707382   7.2073579  17.4190598  83.4401855   5.9173622  17.6057320
  21.0218811  32.2141762  77.6226501  21.9533520  32.4242439  77.5558243
  20.9709377  31.5747013  78.3330765   8.6767378  16.0153351   3.9721553
   8.7397957  16.2389698   3.0435851   7.9669085  15.3747082   4.0165601
   1.6565773  57.7936707  25.8660221   2.0959768  57.5206680  26.6713963
   1.1979754  57.0090332  25.5655880  33.2604141  66.8351898  65.6200943
  32.5149918  66.2400665  65.5400314  33.9203682  66.4733505  65.0286789
  23.9208164  66.8046646  11.5671778  23.8451328  65.8694534  11.7566156
  24.8623886  66.9763870  11.5808716  65.0963593  66.2935715  69.4232864
  65.9432678  66.2669907  68.9780197  65.2973099  66.6183167  70.3010025
  49.5201454  41.7464027  45.7350807  48.8539543  41.7542114  45.0477943
  49.9654655  42.5890694  45.6465797  64.7902985  22.1520329  36.6169281
  65.6928024  21.8881073  36.7959824  64.2557297  21.5038414  37.0755310
  78.9609146  71.3736801  17.9317703  78.7124557  70.4796677  17.6967430
  79.6316452  71.6119614  17.2917900  79.4884186   5.2881980  43.9969177
  78.7133179   5.3204732  44.5576363  79.1421661   5.1312408  43.1184502
  58.1809082  22.7209091  59.1882935  57.9141579  22.9687157  60.0735435
  57.4311829  22.2397594  58.8380890  39.8033905  50.3311195  52.2921257
  40.3033600  49.6700287  52.7709045  39.2543182  49.8274689  51.6912231
  37.8417320  64.0307007  46.7400665  37.1800041  63.8223457  47.3995628
  38.6088600  63.5212364  47.0012093  84.7391052  57.4223747  31.1845398
  85.1096573  57.6966362  32.0234108  84.2113953  58.1686897  30.9003468
  44.1920052  53.2917747  38.2620316  43.3725624  53.6361275  38.6172295
  44.7202225  54.0693207  38.0813789  19.8754940  42.2057724  37.5536957
  20.3946762  41.7824364  38.2374115  19.5481625  43.0067902  37.9629059
  55.0924416   5.5452127  67.2285690  55.1079292   5.7038674  68.1724014
  54.1841736   5.3089385  67.0402908  79.6975479  16.8808136  81.4016800
  80.3093185  16.8134995  80.6685791  80.2564468  16.9083004  82.1782837
  53.0727425  63.6955299  52.2520370  53.0623627  64.6410751  52.4006081
  53.7014885  63.3595963  52.8908348  39.8960419  19.0747471  86.4312820
  40.2038231  19.5186577  87.2214966  40.6430206  19.1045475  85.8334732
  68.0086365  30.1790714  81.5819321  68.7691498  29.9038982  82.0939178
  68.2803650  30.0680656  80.6708450  68.1485443  60.8311653  10.3332500
  68.5603180  61.2532425  11.0872555  68.6051865  61.1963463   9.5753908
  11.2922382  36.7967529  62.3559570  12.0671301  37.2647438  62.6670189
  10.5853786  37.0978012  62.9268761  25.9255295  45.9370995  51.8030891
  25.5429192  46.5104294  52.4672699  26.7933102  45.7209702  52.1443748
  23.1129742  57.4576836  28.0745354  22.8036041  56.8355293  28.7329006
  23.6513081  58.0782852  28.5657406  47.9915619  61.2555161  47.6404991
  47.2644005  60.7552719  47.2700615  47.5709724  61.9349709  48.1674500
  19.2732868  57.5595474  83.6601486  19.5072021  58.3915901  83.2487869
  20.0790138  57.0435600  83.6319733  79.2904510  50.5645676  14.1563358
  79.1508636  51.4482651  14.4966726  80.2392197  50.4422340  14.1894760
  11.9298077  52.3350754  50.2328987  12.0593548  52.7631798  49.3866272
  11.9205551  51.3998299  50.0292778  32.1248436  39.6769447   2.9772971
  31.7592888  40.5594635   3.0386143  31.5266514  39.1337280   3.4904389
  51.9291534  61.6110687  17.3614159  51.7714272  60.8938713  16.7474270
  51.0567398  61.8644371  17.6629639  19.5120525  55.8448944  36.5472183
  20.0501957  55.5866852  37.2955246  18.6479969  55.4787827  36.7359009
  51.0903397  64.5078354  65.1324539  52.0377426  64.6191101  65.2116852
  50.7517662  64.7089615  66.0048904   8.4491081  25.1458530  73.6071091
   8.7359400  25.0976391  74.5190506   9.2281733  24.9203339  73.0987549
  18.6667881  69.9739075  56.8498917  17.8712559  69.5778961  56.4941788
  18.8976364  69.4195480  57.5952950   8.2015896  21.1711521  81.7885971
   8.8998928  21.7501831  81.4831009   8.4617720  20.3013783  81.4852295
  16.7132301  50.9603310   3.7866745  16.7338829  50.4707184   4.6089163
  15.7815275  51.0717964   3.5976269  55.4211960  23.4665623   1.8122209
  55.8250656  22.7682419   2.3274596  54.4800644  23.3368549   1.9291710
  24.5256367  38.9408493   2.1964395  24.3115273  39.8615150   2.0455787
  24.7521439  38.6025581   1.3301344   6.2549520  69.7871704  50.2101135
   6.6796203  69.3639603  49.4639320   6.9350610  70.3445282  50.5883064
  43.0899620  34.6566582  83.1434784  42.3818665  34.1137352  83.4899826
  42.6467972  35.4181671  82.7693863  59.3594780   6.9486661   8.9004021
  59.2302361   6.3351212   9.6236525  59.9277115   7.6288304   9.2619514
  58.5621414   2.3597615  27.0781288  58.2271881   3.2364392  27.2664738
  57.8212662   1.7783853  27.2494125  14.3237362   0.2834861  11.5652456
  13.8769464  -0.3079922  10.9596348  15.2464352   0.0361204  11.5046787
  15.6653194  41.9077568  24.3859310  15.4373379  41.0303268  24.0787296
  15.9982805  42.3549461  23.6078625  38.0974083  44.8788185  57.7808914
  37.4031334  44.2442474  57.9584808  38.8694267  44.3438339  57.5964699
   2.7622509  62.4134941  64.5550919   3.4028192  61.7349968  64.3416748
   2.6941833  62.9380608  63.7573280  71.6326294  22.5763359  18.7250862
  71.9080582  21.6665058  18.6129303  70.7279205  22.5929165  18.4129009
  50.9227524   1.5274628  11.2033854  51.4275932   1.1486700  11.9230270
  50.0091667   1.4084461  11.4630585   1.9802290  49.4231987  57.0397682
   2.5615814  49.7729340  57.7150078   2.4155929  48.6257706  56.7384338
  64.7981186   4.6703935  55.4055405  65.6677628   4.3786368  55.1319847
  64.9237366   4.9943295  56.2974586   2.4005578  65.7432709  33.1009750
   2.0200191  65.9747238  32.2537117   3.2537460  66.1771698  33.1068954
  58.6364937  56.4738464  53.4682884  57.7070656  56.5544472  53.6825447
  58.6642799  56.4927559  52.5116806  17.9132175  40.0866089  60.1821213
  18.5871124  40.4408226  60.7623177  18.2188835  40.3013840  59.3008308
   8.8042955  63.8782005  12.1832314   9.0341682  64.3546600  12.9809656
   9.1813154  64.4005280  11.4752331  20.1450405  65.6931000  10.5702848
  20.7069359  65.3171158   9.8926868  19.3226948  65.8856812  10.1198463
  74.6710892  52.3051224   7.9350166  75.1293564  53.1341705   8.0725031
  75.1297379  51.6816711   8.4982071  36.1937065  24.8840809  76.2128525
  36.6565247  24.9616623  77.0471268  36.7164421  24.2628708  75.7058258
  51.8408394  41.0207863  85.4438324  52.5811081  40.9524536  86.0467987
  51.2987976  40.2572899  85.6425552  59.0121880   2.5104179  16.3639660
  59.6371307   2.2549472  15.6854296  58.8037186   3.4234426  16.1660824
  44.5616226   3.5678966  20.7150288  44.1747246   4.4047871  20.9722385
  45.2617149   3.8045771  20.1066818  61.2425423  16.9604721  35.6733284
  60.8924408  17.6627674  35.1252022  60.5749664  16.2752934  35.6400909
  17.7137852  25.6764297  83.9804840  16.8566284  25.6837368  84.4064636
  18.1208973  26.5006123  84.2473450  43.7182083  57.6991730  77.4188385
  42.8472061  57.9811134  77.1393814  43.7027130  57.7831535  78.3722229
  14.9025688  26.1766815  84.9235992  14.6049137  26.1004868  84.0170517
  14.8653879  27.1148510  85.1098480  81.6744232  37.3351898   6.5275683
  81.7520370  36.8067627   7.3219047  80.9995575  36.8941879   6.0115161
  63.7382584  39.5596771  86.3943405  63.3657913  40.3699989  86.0466690
  64.2549438  39.2040291  85.6713028  40.4646187   6.9924841  86.5824432
  39.5468864   6.9459386  86.3144302  40.9248276   7.3123088  85.8064575
  46.7624283  58.7205772  65.2946014  47.4969177  58.6348953  64.6868057
  46.1832848  59.3611183  64.8816452  72.0664139  34.8686638  60.8098412
  71.5050049  35.6220131  60.6267624  71.5294952  34.1092262  60.5835419
  84.0381317  44.7965546  63.3356247  84.8747864  45.1670532  63.0546036
  83.5475388  45.5443497  63.6767273  55.1130066  62.8075447  44.2932854
  55.8906441  63.3403587  44.1270905  55.3144455  61.9597244  43.8972359
  21.1477470   3.6778672  66.1589966  20.3583336   3.7009761  66.6998520
  21.3255539   4.5961070  65.9553986  82.3342209  38.9765549  22.5467796
  82.6340714  39.3955307  21.7400703  82.8164825  38.1504364  22.5811729
  83.6278992  31.7177505  49.2197075  84.0737610  31.8741207  48.3872490
  83.4116592  32.5921669  49.5435448  18.3259239  28.8888912  88.9835739
  17.6470203  29.5463066  89.1356506  17.9559383  28.0775795  89.3315887
  72.0560303  67.8688812  36.7307281  71.5476227  67.0918274  36.9629631
  71.8613281  68.0146255  35.8049393  13.8653460  15.6325264  61.0850410
  14.2532053  16.5054817  61.1462555  13.2500944  15.5919228  61.8171959
  32.7053719   3.9088743   0.2980495  32.0609932   3.2641718   0.0058707
  32.4191780   4.7309599  -0.1000697   0.3333042  48.0633316  51.4762306
  -0.3764676  47.8070831  52.0651245   0.2770487  47.4431801  50.7492676
   0.1318153  10.0439110  24.3928318  -0.6756348  10.4939089  24.6413441
   0.6264616   9.9712248  25.2090874  35.3169708  11.6935387  10.4578161
  35.2869682  10.8575706   9.9925308  34.6732788  11.6000319  11.1600590
   2.1930037  59.8100510  77.2952881   2.7702630  59.0839691  77.5315247
   1.3851923  59.3882751  77.0024109  12.5451069  21.1356621   2.7176888
  11.6525288  21.3930340   2.4868314  12.5269184  21.0355301   3.6694632
  19.6402740  21.1734715  72.4600754  19.9057846  20.2545681  72.4232788
  20.4446278  21.6623421  72.2861328  44.9477386  53.3637924  59.2457581
  45.7591133  53.8641052  59.3328514  44.9823570  52.7254028  59.9581413
   0.1195449  23.5704823  61.3610153  -0.5656216  24.0791321  61.7946701
   0.7794513  23.4298306  62.0399666  57.3874702  48.4663773  89.4423981
  56.6084366  48.2195930  88.9439621  58.0967293  48.4544563  88.7997131
  38.9624481  45.5654526  71.7131882  38.7709770  46.5033035  71.7105637
  38.1514397  45.1562691  72.0149612  11.8715858  15.4286575  62.9746971
  11.6345148  14.5131683  62.8266792  11.9712973  15.4997740  63.9240265
  35.3817902  12.5081100  74.2875824  36.2031517  12.1244545  74.5948410
  35.5693359  13.4433670  74.2078857  12.2042027  50.9337273   8.1116085
  11.9621334  51.7763634   7.7274179  12.0899277  50.3042145   7.3996501
  10.7774973  28.4477768   3.0523422  11.4222908  29.1546173   3.0814991
  11.2982016  27.6532974   2.9344368  47.9107323  70.5712814  35.5081024
  47.6526642  69.6627045  35.6634331  48.8660088  70.5625458  35.5681267
  26.8186665  66.6067123  58.5047112  27.3148937  66.3528824  57.7265320
  27.4572830  66.5746613  59.2170105  27.4795055  61.0934944  11.3101444
  28.3831482  61.2724113  11.5702400  27.0424976  60.8381996  12.1225977
  74.6910324  48.9741516  28.1974659  74.9301758  49.9005547  28.2261524
  73.7460098  48.9659195  28.3494434  55.1808586  49.1503258  82.7116928
  54.8524132  50.0177231  82.4750900  55.1441116  48.6497765  81.8966293
  15.7866907  20.1687717  12.8467054  14.9176903  20.4372730  12.5484133
  16.3926849  20.6708050  12.3017607  52.3461876  50.5288467   4.2800150
  53.1059647  50.0870476   3.9008269  52.2867203  50.1816177   5.1700306
  47.7945213  51.5501709  50.5598564  47.1030502  52.0939980  50.1825600
  48.0794601  52.0303116  51.3373566  23.3001289  13.6512194  87.6611328
  23.0472851  12.7318478  87.5771332  22.6365757  14.0304174  88.2374496
  12.8935900  38.4987640  66.3679428  12.5399122  38.9787636  67.1167679
  12.5760040  37.6034889  66.4856567   1.5573430  40.8190346  24.8608608
   0.8524741  40.2551193  24.5424366   1.6927413  40.5442657  25.7677250
  78.5641022  39.7505493  19.5956669  78.6126022  39.4078979  20.4881191
  79.3153229  39.3609123  19.1483574  59.4573479  39.9982300  69.8858185
  58.8270645  40.1395226  70.5922318  60.2802773  39.8038368  70.3344040
  58.8768463  52.4353256  41.7985039  59.1586952  52.9364395  41.0332069
  59.0384140  53.0189896  42.5397606  51.8698425  41.8246651  28.0545006
  51.9369431  42.7792435  28.0770435  51.0660858  41.6525764  27.5639973
   7.0036411  45.7268105  88.3351974   6.7105436  45.7866592  89.2444534
   6.4016271  46.2925835  87.8517609  14.8873663  70.8385696  85.6143875
  14.5029316  71.6512756  85.2858200  15.2660379  70.4225082  84.8399658
  69.1206970  61.5211372  57.8333054  68.2864838  61.0776634  57.6794739
  69.2978668  61.9880791  57.0167236  30.9283752  43.4581032   3.8435073
  30.4448299  42.9735336   3.1744726  30.5139179  43.2056618   4.6685705
  15.9706440  57.6262703   0.1201526  16.8681622  57.9572945   0.0867573
  16.0635414  56.7070770   0.3705300  18.7960815  67.5028458  18.7912102
  19.7212257  67.6042862  19.0149288  18.8023968  67.0962219  17.9246960
  31.8114777   6.1836114  88.4624939  31.2586117   6.9552040  88.5858383
  32.6089821   6.5228777  88.0561447  80.1520081  18.9165192  63.1684265
  80.2661667  18.8784676  62.2188225  79.4572906  18.2840443  63.3516808
  72.0198135  35.5505409  22.3760338  72.9585648  35.6904144  22.5001888
  71.8192139  34.7827301  22.9112530  86.7360840  27.2311783  58.7778168
  87.0948715  26.3742409  59.0083885  86.2777100  27.0841904  57.9504585
  24.6896839  31.1224442  73.4977798  24.5300236  30.3235149  74.0002213
  25.4975262  31.4798126  73.8664398  37.9453735  63.2224846   9.8964901
  37.0882950  63.0957565  10.3034153  38.2870674  64.0198288  10.3011036
   1.4081360  56.1861725   5.5338545   1.5029835  56.1938019   6.4863133
   1.6060088  55.2845230   5.2806654  18.2177563  50.8437691  43.5680237
  18.6165829  51.5824585  43.1081238  17.3039494  51.1019020  43.6886787
  34.3489227  61.9997635  16.3860817  35.0849152  61.9879341  16.9979668
  33.5961990  61.7286339  16.9115601  65.2965698   3.5539849  84.2988205
  65.9977722   3.9741111  84.7968597  64.6370773   4.2390189  84.1891403
  59.1573715   0.8249052  72.1708145  59.3474083   0.0261344  71.6788025
  58.4215775   0.5888903  72.7357407   3.5707765  33.9698486  66.8304977
   3.1684964  34.6929131  67.3117218   3.7648573  33.3146553  67.5007935
  53.9995041  67.2005386  80.0107040  53.0474854  67.1362686  79.9347534
  54.1809731  66.9956741  80.9279404   7.6249509  69.0350571  21.7955532
   8.2172709  69.5780869  21.2754440   7.7151251  68.1578751  21.4232025
   3.1802680   7.0957394  21.3176079   3.1509478   7.6018467  22.1295357
   2.2985485   6.7338767  21.2289658   3.1955492   9.6392164  11.9244242
   2.4864950   9.8858786  11.3305960   3.5530300  10.4729357  12.2299576
   4.3414545  41.5661011  52.4957085   3.7190177  40.9220390  52.1580849
   3.8372128  42.3774338  52.5566406  62.4990845  22.1533775  28.4317608
  63.2358704  22.5795689  28.8696404  62.5239410  22.4919834  27.5367966
  21.2244778  49.9767838  88.2614670  21.9969940  49.5643845  87.8749695
  21.1109600  50.7864990  87.7637711   7.4919209  32.9816589  11.1652536
   7.5637856  32.4030266  11.9243660   7.6115885  32.4039078  10.4115219
  78.4925079  65.1380081   7.9822917  79.1093216  65.5249939   7.3609877
  77.6480026  65.5272751   7.7553358  30.4731064  46.2291336  69.3935242
  31.2129097  46.2045174  68.7866364  29.9569530  46.9842873  69.1114655
  72.9537888  17.0972347  83.8874817  72.3024139  17.1932755  84.5822678
  73.5843735  16.4669514  84.2358170  76.8134537   0.2284974  73.1148682
  76.7895050   1.1535826  73.3595657  77.7068558  -0.0495889  73.3166962
  47.3576546  29.8672409  29.2410984  48.1899414  30.3396339  29.2604103
  46.9677887  30.1032219  28.3993454  51.2754936  53.2788887  34.7083054
  51.9735985  52.8607788  35.2123528  50.9476280  52.5870972  34.1337090
  62.5727501   9.5473890  40.1988487  62.6543198  10.1812334  40.9114609
  61.7312622   9.1186562  40.3547935  20.3779907  43.0456734   4.6766062
  20.6505680  43.2014046   3.7723486  19.6702805  43.6728935   4.8248329
  73.6858826  37.3569260  85.2939835  73.1512451  37.0879631  84.5469513
  73.5142136  38.2940674  85.3863220  75.3988190  67.2755203  52.0037804
  74.9435349  67.0991211  51.1804733  74.9345551  66.7463379  52.6523590
  76.9563980  14.0389318  77.5483627  77.1649323  14.2550869  78.4572220
  77.3938980  13.2015133  77.3948898  13.0566540  44.4901199  11.1907187
  13.0963802  44.1468925  12.0833826  12.1970463  44.9071503  11.1324921
  81.9095078  13.3697529  40.2110214  81.0883942  13.7587442  39.9098778
  82.3722229  14.0894041  40.6402359  65.1976852   0.8931517  60.5678291
  65.0336151   1.1139097  61.4846611  64.6252975   0.1455870  60.3953438
  62.6764450  31.8387794  57.9180984  63.2534523  31.4544754  57.2580910
  62.0176506  31.1640682  58.0823822  63.0480576  33.1755409  85.6934891
  63.8833351  33.2062073  85.2270126  62.4576073  33.7103615  85.1628571
  12.7953272  65.7730255  67.1952362  13.7006407  65.5943985  67.4496536
  12.3271408  64.9611969  67.3900986  31.4733753  68.3775406  71.4713135
  31.7297173  68.0202637  72.3215332  31.8101635  69.2735214  71.4766312
   1.9441801  25.3531132  45.4507027   2.4675708  24.8727837  44.8091583
   1.5501413  26.0682507  44.9511604  62.2945404  65.9245300  85.9005890
  61.5554428  65.4307480  85.5454102  62.1006012  66.0075302  86.8342514
   7.3460336  40.1960449  84.4133606   6.5731206  39.6884727  84.1659546
   8.0788221  39.7255211  84.0160446  48.3951759  15.4984331  62.7139702
  47.6858788  14.8860188  62.9091072  48.6998978  15.2424698  61.8434181
  52.6960716  55.4710388  36.1306763  52.5483208  56.3123283  35.6986618
  52.4762726  54.8184891  35.4657707  47.7406273   7.7102447  81.8140717
  48.3652763   7.0033908  81.9765625  48.2326469   8.3515091  81.3013077
   0.5561482  49.4760628  79.0625153   1.1227658  49.2107353  79.7869263
  -0.3121963  49.1570816  79.3084030  85.0621643  27.3190193  80.5015564
  86.0032959  27.1453323  80.5196915  84.9733353  28.1007824  79.9564056
  52.1976891  28.0876980  79.5249557  52.9686203  28.5929813  79.2669144
  52.2024727  27.3287811  78.9416428  63.4532356  26.8445759  78.4656906
  64.3698196  26.9527397  78.2118988  63.4511337  26.0734615  79.0327988
  31.4950962  44.7804909  17.1100159  31.0839806  44.9979248  16.2733936
  31.4350262  45.5863800  17.6230125  86.5528717  67.8096085  11.0168133
  87.4776611  67.9887924  11.1867838  86.3984680  66.9517746  11.4124289
   1.2248005  46.9101677  20.7174854   1.9818524  46.9079361  21.3032322
   0.5397078  47.3586082  21.2132511   0.8429618  14.0131178  32.0556870
   1.4019204  13.2711315  31.8249207  -0.0374380  13.6415825  32.1112747
  71.3956985  23.6464252  21.3207264  71.1555786  23.2484989  20.4839287
  70.7793198  24.3710041  21.4270077  40.2830658  34.4299088  81.1173401
  39.5320473  34.9926224  80.9287720  40.9078674  34.6220551  80.4180984
  41.5387115  47.5715256  82.4516068  40.6110802  47.5037804  82.6777573
  41.5425072  47.8043938  81.5231781  20.1108513  51.2562752  66.5641937
  20.4465618  50.8577232  67.3671188  19.4452000  51.8752441  66.8642197
  64.2687073  35.5690155  32.8363724  63.3871956  35.9047585  32.9989662
  64.1368790  34.8240089  32.2500076  13.5792408  61.1991081   1.4886558
  13.4418135  60.7147331   2.3027339  12.9033613  61.8768730   1.4962088
  68.9655762  19.8476562  48.3225822  69.2924957  19.6075668  49.1895981
  69.7069702  19.6956825  47.7365227  54.5103683  50.3893127  86.5598755
  55.1117744  49.6460075  86.5147324  53.6508293  50.0139008  86.3688507
  53.9665070  49.2192039  51.2569618  53.0377007  49.3954353  51.1069984
  54.1795998  49.7144318  52.0478935  15.9406929  56.3049355  67.0331726
  15.2388582  56.4393044  66.3963013  16.6726112  55.9691162  66.5157242
  43.0041924  47.6995697  73.1972504  42.4903717  46.8998032  73.0850525
  43.6560287  47.4743233  73.8610382   0.5189543  45.0042267  71.8199310
   1.4096674  45.0732040  72.1635895   0.5640787  44.2955208  71.1781158
  28.1658382  48.0615005   6.3042698  28.4210243  48.5647469   7.0774817
  28.0036144  47.1784210   6.6360574  61.9655571   4.2860799  54.9953270
  61.5759468   4.9787798  55.5288048  62.9094810   4.4189653  55.0824051
  26.4149132  55.0652962  80.3745575  26.4129715  54.9980087  81.3293839
  25.7291813  55.7035637  80.1780319  17.2316780  64.6900558  41.8718491
  17.6999416  64.6063614  42.7024841  17.8900738  65.0143051  41.2573509
  68.2928085  62.5885925  34.8759918  67.3546677  62.7786484  34.8760490
  68.5504227  62.6542053  33.9564476  28.6748600  31.1555576  81.9924545
  28.2146168  31.6828270  81.3394623  28.1141186  31.1910152  82.7674026
   8.0847397  69.1918793  55.0441628   7.2743688  69.5980911  54.7367096
   8.7438345  69.8813171  54.9635048   6.9528227  16.1074734  10.1484270
   6.4614739  16.4217987  10.9073782   7.8711033  16.2119312  10.3975887
  34.6282578  33.4707527   3.5602460  35.0320892  33.8246536   4.3526502
  34.3512688  32.5881538   3.8062696  23.1899662  70.1837006  18.5082951
  22.3908901  69.7527771  18.8116455  23.8518658  69.9452286  19.1573353
  15.5344992  52.5716019  65.3754578  15.5865545  53.4105911  64.9176178
  14.7462454  52.6411476  65.9140244   7.4773641  11.5391226  85.2847443
   7.0195088  11.9624538  84.5585251   7.0209732  10.7060165  85.4025345
  16.3506775  48.5742378  48.0587387  15.6838169  48.5277557  48.7438469
  16.1660938  49.3938484  47.6000481  12.6912785  18.3314495  12.6180086
  12.0260744  19.0055504  12.7570114  13.1067343  18.5720787  11.7899227
  63.6932487  51.6962204  73.6223679  63.3173332  50.9462395  74.0832901
  63.1022720  52.4218102  73.8236084  73.2647552  38.4984474  67.1644440
  73.7371368  37.8928108  67.7356567  72.8619995  39.1274605  67.7630768
  46.2282028   5.6226993  68.3241348  45.7315140   5.1256499  68.9741211
  45.9486351   6.5293179  68.4510880  73.1777954  56.3117714  67.3238297
  72.2459335  56.3794403  67.5318832  73.6214294  56.6715584  68.0919266
  39.8476486  34.6855698  75.5341339  39.2119865  35.3417320  75.8198242
  40.6442833  34.8957672  76.0214005  65.1415329  12.0716019  82.1088715
  65.6594925  12.8150520  82.4174652  64.7563248  11.7018423  82.9033051
  79.9186325  36.2735443  25.8028336  79.6880569  37.1514359  26.1067619
  79.1209412  35.7595100  25.9281292  21.6784573   0.9201459  28.4336758
  22.3164539   0.7681054  29.1308670  20.8283043   0.8560134  28.8688278
   0.6753865  46.8283882  43.0281982   0.4487815  46.4802856  42.1658134
   0.0443390  46.4235497  43.6232719  26.9971294  46.7313499  20.1641502
  26.4576950  46.5510597  19.3942566  27.5422649  45.9507523  20.2627735
  13.6514416  38.3237572  88.0878143  12.7591753  38.1303139  87.8002853
  13.5422239  38.9532928  88.8005447  46.2524948  62.8422852   9.8503942
  45.5499458  62.3995132  10.3264322  46.9889336  62.8489265  10.4618244
  65.4471512   9.7845602  48.0593910  65.1476669   9.3666477  48.8667870
  66.0884781   9.1733541  47.6969604  11.8582811  43.3578377  22.8013153
  11.7947102  42.4294739  22.5769787  12.7005911  43.6343384  22.4403534
   7.3576331  29.5480042  83.8076935   6.4229050  29.7497673  83.7651901
   7.4323101  28.6760178  83.4200134  10.9653816  25.3365211  78.3208313
  11.7889328  24.8527431  78.3837204  11.0182152  25.9909096  79.0174103
   8.9183331  47.8636665  36.1428909   8.6127167  47.0433273  35.7557487
   9.5381975  48.2140961  35.5032005  82.2566757   7.0914984  50.0541801
  81.5304794   7.1644635  50.6734924  83.0419388   7.1796966  50.5943832
  22.1851387  49.2315941  69.0075226  23.0459766  49.0577621  68.6267700
  21.6327953  48.5189095  68.6862411  22.9334202  54.1210899  46.6233940
  22.0179462  53.8456230  46.5759010  22.9273205  54.8710899  47.2181206
  58.0366135  39.0268784  54.3703308  57.1898613  38.7433929  54.0255470
  58.2558517  39.8046913  53.8573227  74.9040756   7.9013915  68.3992615
  75.6224670   8.4425535  68.7268066  74.1134872   8.3942900  68.6189423
  39.0331230  21.5299835  80.8535919  39.3930168  21.7614174  79.9973526
  39.7562904  21.6734219  81.4640732  36.3968887   9.2103729  77.3809738
  36.0186005   9.5409794  76.5662155  37.3246689   9.4389496  77.3243408
  77.7595901  14.7030382  79.9485397  78.1747894  15.4457436  80.3869781
  77.0269775  14.4677992  80.5179138  63.8253975  43.4792633  27.4742374
  64.2212143  43.1901054  26.6520767  63.1280403  44.0779266  27.2068005
  70.6372681  40.9344826   4.4413352  69.9129562  41.3927650   4.0152130
  70.7094803  40.1066284   3.9662776  85.2910995  55.0430527  72.8250427
  84.7663116  55.1022797  72.0267181  85.2980118  55.9344254  73.1738052
  82.6617584  41.5792923   7.8500304  83.0563126  41.5048676   6.9811120
  82.0860748  40.8175621   7.9177127   7.9943490  21.0345955  14.4120655
   8.5286474  21.6328754  14.9343853   8.2541037  20.1618366  14.7071095
  48.0832596  41.2120132  71.8855057  47.3717461  41.8170929  71.6760788
  48.8791046  41.7344284  71.7857666  54.9747849  62.6352005  53.8035278
  55.0447083  62.9826660  54.6926880  55.8400116  62.2688293  53.6208153
  16.3920212  26.6391582   0.6730813  15.7411299  25.9536915   0.5223951
  17.1892128  26.1647701   0.9090297  22.8157368  36.0964088  17.1514931
  23.4041672  35.6193810  16.5663223  21.9386215  35.8953362  16.8251896
  50.0962715   2.9937694   6.5707836  49.6231880   3.7587934   6.2434292
  49.8211365   2.9147947   7.4841814  16.9225922   4.2821565  52.3321457
  16.2978859   3.7034805  52.7693062  16.4245739   4.6740108  51.6147461
  54.8693733   9.4362907  20.8753109  54.5298805  10.2944269  21.1294346
  55.2341805   9.5724010  20.0008831  21.6750088  37.9192886   4.0336733
  21.3320675  38.7977638   3.8696487  22.5663853  38.0654297   4.3504105
  85.5168228   3.2780101   3.4608588  86.4631119   3.2087300   3.3344834
  85.4184799   3.6308095   4.3452196  18.4900284   9.9271927  10.5163879
  17.9530487  10.7195606  10.5224104  18.4189434   9.5829153  11.4066973
  11.5627050  59.7982559  72.5477600  11.7818851  60.3340530  71.7854538
  11.5629711  58.8999481  72.2171936  81.3983154   4.0555649  51.3539238
  80.5836411   3.6188838  51.1052399  82.0048828   3.8548596  50.6411667
  76.0923309  24.4281178  78.8239517  75.4428635  23.8807163  78.3826141
  76.8878403  23.8958435  78.8329468  52.0943336  65.1514206  75.3565369
  51.7291374  66.0333633  75.2855225  52.9651642  65.2205582  74.9652481
  56.3072128  22.8366184  73.9152832  56.0818253  22.3154583  74.6858826
  55.6331062  23.5152473  73.8795700   1.5461230  50.3926239  50.6978874
   2.4909601  50.2468491  50.7454681   1.1612777  49.5530128  50.9492416
  11.1099730   2.7716801  77.9780121  11.9912729   2.4004233  77.9366531
  10.8034906   2.7626865  77.0712509  78.9777374   9.3484039   5.3065038
  79.6648026  10.0099335   5.2255430  78.2118225   9.8346729   5.6117072
  54.4443321  49.2203789  72.1446991  54.3927040  49.3996124  71.2058487
  55.1679153  48.5996666  72.2305984   8.6422100  10.0751972  54.0569229
   9.4611626  10.3119860  54.4922180   8.1884174   9.5164967  54.6879234
  69.0138397  40.9899597  84.1808548  68.1539764  41.0188789  84.6004105
  69.3876648  40.1535606  84.4582062  49.3535957  61.7883987  39.5914841
  50.2077942  62.2086487  39.6913147  49.5462494  60.9518852  39.1679688
  53.3526802  47.7596741  45.4700508  53.2265358  47.9622116  46.3970337
  53.0243492  46.8657608  45.3733635  41.0629196  27.6721554   4.4752965
  41.4481850  27.0773067   5.1186910  40.7773781  28.4278965   4.9886694
  17.9763203  26.0858269   7.1120601  17.8561859  26.4543495   7.9872689
  17.9923229  26.8469448   6.5318236  24.8195210  16.0232315  25.2481518
  25.0690937  15.8817139  26.1613426  24.9573174  15.1743393  24.8278847
  35.5898590  36.7484627  69.5815430  34.7408104  36.8397102  69.1490784
  35.3754196  36.4934883  70.4788895  24.0409241  47.8274117  56.9802551
  24.4989986  47.4750061  57.7432823  23.2801380  47.2565346  56.8728600
  19.0384445  64.7348022  43.9842300  19.7015018  65.3411407  43.6541710
  19.4912529  63.8935318  44.0430183  54.3437653  50.6507835  46.7097855
  54.2440796  51.1879463  47.4957542  55.0399055  50.0316467  46.9295311
  68.6787720  52.1876259  88.8456879  69.6278458  52.0810013  88.9099960
  68.3248520  51.5780144  89.4932556  47.7882347  70.5412216  59.3793907
  48.6542320  70.3913956  59.7586441  47.7639847  69.9762802  58.6070671
  23.2809086  41.3390656  22.0923729  23.0303078  42.2276535  21.8397007
  24.0967426  41.4499626  22.5805798   8.7143211  61.2426910  12.1577749
   8.3675671  60.8199883  12.9434700   8.7221470  62.1757126  12.3713989
  40.5388336  53.6992111  39.2463417  39.9541321  53.6391373  40.0018196
  40.8919716  54.5879631  39.2868614  72.7792969  71.1824646  60.7947159
  73.6038361  70.8728409  60.4198990  72.7066956  70.7193222  61.6292572
  81.1360016  60.7143517  86.0047226  81.1376648  60.8755455  85.0611954
  80.2449417  60.4217682  86.1961441  47.8236160  30.3766136  14.7878790
  48.1276665  31.1303444  15.2935238  47.7150345  30.7130013  13.8983374
  75.7647858  56.7713547   4.8995776  74.8118134  56.7321548   4.9803739
  75.9775696  57.6967010   5.0207720  40.3391762  49.2409286  32.4648590
  40.0292130  48.6795998  33.1755371  41.2294044  49.4820290  32.7209702
  37.8945274   9.6812954  62.0719910  37.0640678  10.0679369  61.7943687
  37.8452187   9.6687670  63.0278397  49.3365898  55.0751839  87.9945068
  49.5842361  55.4428101  87.1461258  50.1601868  55.0133286  88.4783478
  39.3463173  27.5500107  11.9215498  39.9845505  27.2525749  12.5699492
  39.1839905  28.4658012  12.1478443   7.8893127  61.9258842   3.4014680
   7.0941195  61.5056648   3.7290606   8.5658808  61.6842842   4.0340171
  86.6891556  68.8494034  53.0652542  85.9193344  68.4661713  53.4856606
  87.0365677  68.1468887  52.5156898  15.5142508  57.0893555  43.4643021
  15.9491615  56.3247414  43.0868759  15.6767960  57.7922058  42.8351669
  51.4052010  44.5604591  28.4654350  51.1077652  44.8328934  27.5973663
  51.3694115  45.3587799  28.9923477  84.4536209  33.5159912  72.3707275
  84.2460403  34.4346542  72.5416107  84.8693161  33.5207443  71.5085220
  61.5023117  68.6302948  72.9733200  62.1082001  69.3227539  72.7094421
  60.6499825  68.9215317  72.6493607  34.7889061  46.9789810  27.3943195
  35.2864685  47.7722359  27.5928383  35.4471664  46.2847214  27.3637791
  56.8774910  35.5406532  23.8720150  57.2480698  34.8229408  23.3584080
  57.2997360  35.4657097  24.7277756  82.2868347  12.1958103  37.8186226
  81.9431839  12.3522177  38.6982079  83.1543427  11.8182926  37.9640350
   0.9659888  27.2202168  43.9733887   1.3648423  28.0633202  43.7581596
   0.0237444  27.3818607  43.9256554   3.3031218  44.6560516  62.7857933
   2.6348588  45.1508865  62.3116722   3.5854306  43.9818344  62.1677628
  65.8814240  12.4641647  18.3139210  66.1229630  11.9107056  19.0566006
  64.9884033  12.7489681  18.5078983  14.0973139  47.0262222  43.6114502
  13.6010218  46.2940941  43.2455063  14.9534674  46.6536484  43.8222198
  16.0439320  13.6947212  21.3643341  16.3323250  13.0941467  20.6770401
  16.6741695  13.5675678  22.0734634  77.1906662  59.8762665  22.4171944
  77.6356354  59.0495605  22.2306614  76.8565063  60.1653175  21.5680676
  13.5930281  59.7268524  33.1309509  13.2788715  60.3015213  33.8290176
  13.8582249  60.3233147  32.4308548  80.6346817  26.0768089  70.5136490
  80.4920044  26.9813423  70.2349091  80.0457077  25.5608044  69.9631119
  59.7649689  68.4253693  80.3253479  59.3398247  67.5825729  80.1666412
  59.0410957  69.0429306  80.4295273  54.4068375  43.9076691  24.8538055
  54.5957985  43.3770409  25.6277294  54.6977158  43.3695259  24.1175842
  80.9104233   0.3222219  44.9145546  80.8696365  -0.6262379  44.7921143
  80.4670715   0.4752877  45.7489662   4.1481862  60.2321091  63.5418739
   5.0122013  60.5907478  63.7445755   4.3039746  59.2986298  63.3984070
  41.4287186  22.4324436  82.9726334  42.0569000  22.5488930  83.6854172
  41.5708237  23.1879463  82.4023285  77.9513397  40.5401993  14.9457693
  78.7831573  40.1998901  15.2751751  77.3188477  40.3340874  15.6340275
  61.5536423  23.8912792  55.2332916  60.7753525  23.4168129  54.9411011
  62.0440140  24.0649185  54.4297905  61.9509125  40.5839691  19.5407200
  62.5087013  40.2498665  18.8382416  62.0613556  39.9551125  20.2538624
  14.1244144  52.2290611  55.9286461  14.1115770  51.2979202  55.7071762
  13.5615597  52.6392174  55.2719879  69.1397629  29.1700363  37.2664452
  68.7396317  29.6968441  37.9582520  68.8210144  28.2818680  37.4270210
  56.2528496  36.6831398  15.6475849  55.6366463  36.8657722  14.9382401
  55.8894997  35.9152870  16.0887299  67.7859421  41.3394165  18.9125576
  68.6943741  41.4239502  18.6230259  67.5643845  40.4239693  18.7419662
  61.9987411  63.1520576  73.9202423  62.0135193  63.1152077  74.8766174
  62.4203835  63.9842720  73.7060776  84.1714859  24.7501602  85.0027466
  84.5544662  24.8085804  84.1274567  84.8973846  24.4778328  85.5641174
  15.1859627  53.2207146   7.1060090  16.0583363  52.8966866   7.3300681
  14.6394348  52.9723892   7.8515787  55.7315369  37.8789139   8.3645039
  55.4299316  37.8252373   7.4576492  55.2967911  37.1487846   8.8051167
  16.5703335  45.6037827  14.1265821  17.1231327  45.7916908  13.3680735
  17.1171856  45.0587196  14.6923485   6.6946397  24.0934086  55.1594963
   7.1514997  23.2834091  55.3862381   7.2181268  24.4743443  54.4544563
  17.3349571  68.2981415  67.7191772  18.0370235  68.9385300  67.8342361
  17.1408710  68.3212814  66.7821426  36.0453835  48.4711952  57.8352394
  36.3890305  49.3633728  57.8817139  35.2978859  48.4710007  58.4331322
  38.1319618  62.5298462   0.3604854  37.9253616  61.6499557   0.6756634
  37.2919922  62.9888306   0.3638424  66.7532043  69.3198547  61.9243698
  67.1932907  70.1496353  61.7399254  67.1361465  69.0240479  62.7502556
  23.3123989   9.1995478  53.3954697  23.9751282   9.7459974  53.8178635
  23.7734146   8.7842903  52.6665955  42.4721260  32.1981735  74.8464203
  43.3944397  32.2550316  74.5967331  42.0374336  32.8610153  74.3098450
  14.2531681   9.0656977  23.6188831  13.7171173   8.9908619  24.4083652
  15.1006327   9.3801994  23.9337234  77.2524185   7.1760316  53.2276001
  77.9157181   6.5811720  52.8777351  76.4201660   6.7375765  53.0505333
  73.5019226  42.3861885  44.3609657  74.2390442  42.5407562  44.9517174
  73.5236969  43.1247559  43.7524643  30.2826328  71.5053940  37.8038216
  30.4587650  70.5645447  37.8031960  29.4149609  71.5863724  38.1998215
  11.8480530  15.7373400  65.7145538  11.2728529  14.9866352  65.8622589
  12.2958755  15.8641825  66.5509720  10.4820528   1.5993259  13.7324839
  10.7681494   1.3349141  14.6068220   9.6936951   1.0808748  13.5714493
  71.0446548  18.9318962  12.7568769  71.9753418  18.8565826  12.5461922
  70.8107681  18.0766659  13.1175814  32.0819931  69.3877563  46.2341690
  31.4307423  70.0808411  46.1258011  32.1148453  68.9544830  45.3812790
  79.2714081  33.1606865  11.5356712  78.7145081  32.9773598  10.7790394
  79.2535629  34.1139259  11.6208458  17.5239563  63.4211731  51.5001297
  16.8188343  63.3766594  50.8543320  18.1103992  62.7023315  51.2643661
  11.2045708  29.7785130  66.5181274  11.1780367  30.7225285  66.3620377
  10.8935614  29.6756248  67.4175262  70.3601990   6.9745178  15.9911594
  70.3902206   7.7314534  16.5762920  71.0831223   6.4184217  16.2816353
  79.0533676  55.0628395  58.7597580  78.7064133  55.5491638  59.5076523
  78.2996140  54.9416504  58.1823502  83.4019394  24.0459175  27.6082954
  82.6024246  24.2949963  28.0719337  83.1004410  23.4788170  26.8985558
  58.0533638   6.2741652  12.2346697  57.3057480   6.8713541  12.2087889
  58.3542290   6.3062701  13.1427898  63.3334770  37.5002632   4.7934203
  62.8785133  38.3260422   4.6281161  63.1205559  36.9538803   4.0368743
  78.2717514  54.9443283  64.9338531  78.4542694  54.6588173  64.0386429
  77.3717651  55.2688217  64.9029694  39.6078606  58.5158958  39.8577347
  39.9807320  58.8546066  39.0438118  39.0312653  59.2149239  40.1661644
  65.9453278  58.9217491  76.0456314  65.2018051  58.4505577  76.4216385
  65.5689926  59.7364388  75.7126465  64.5533524  29.1239758  73.2321472
  65.3344879  28.6482811  72.9496994  63.8471603  28.7655029  72.6945419
  83.8618927  53.9263535  64.8355942  83.4950562  53.2609367  64.2534561
  84.6965485  54.1640549  64.4317551  41.1758156  37.5750809  54.3009567
  40.6184959  38.2092934  54.7519608  41.4191208  38.0089493  53.4831619
  50.6131821  51.8467293  52.4421463  51.2451324  52.0694351  53.1257172
  49.8097382  52.2970123  52.7028275  46.0492477  56.4879723  40.4259071
  46.5063591  55.8416672  39.8877907  45.6630821  55.9771919  41.1373940
  35.4727211   2.4520729  85.2852707  36.2634583   2.9382553  85.5189209
  35.0447121   2.9948542  84.6231308  78.6783752  34.3945236  34.6163216
  78.7415390  34.8951530  35.4297180  77.7728424  34.0850029  34.5952835
  72.6770325  63.5501633  63.5680199  72.0481339  64.2717209  63.5768852
  73.1426773  63.6280441  64.4006958  78.4543228  69.7541046  56.5529671
  77.5438614  70.0142822  56.6929779  78.4301300  69.2129745  55.7637749
  83.6495056  66.9611893  44.9304008  84.4971085  67.1054993  45.3510818
  83.6953964  66.0636826  44.6008377  35.3940086  60.1131325  21.7901573
  34.4565315  60.1652718  21.6040287  35.5932961  60.9303055  22.2470455
   6.2192416  40.9654655  71.9983673   7.0262432  41.4284668  71.7733994
   6.0944176  41.1410370  72.9310074  58.3576775  67.0498199  72.7602921
  57.4563828  66.8682480  72.4939423  58.7337990  66.1873703  72.9362106
  11.4105759  63.5900650  81.8789749  11.1042843  64.4414825  82.1912384
  11.7031183  63.7547913  80.9825821  20.9562912  47.5653343  59.1807671
  20.6572456  47.6148872  58.2728310  21.0047436  46.6275063  59.3661308
  64.6798401  50.7943153  47.8179283  64.7320099  49.9432297  48.2528534
  63.7420311  50.9777946  47.7623444  75.5652924  56.1348610  37.4889069
  74.7446976  56.2724533  37.9621162  76.0125656  55.4459152  37.9803658
  79.0068741  55.0750275  15.0773077  79.7156448  55.6943016  14.9030313
  78.2802811  55.3841476  14.5362530  27.0625877  62.8438072  49.6413841
  26.2867203  63.4036713  49.6128578  27.4580612  63.0257988  50.4938583
  82.1856384  44.1414337  16.0064735  81.9464340  44.7483101  16.7069798
  83.0899277  43.8953247  16.2012043  76.1667862  25.8736324  10.3974791
  75.3163910  25.7124214   9.9887295  76.3437881  26.7984447  10.2253647
  73.8738098  13.1773643  13.6180229  74.2539673  12.3260260  13.4013853
  72.9638290  13.1141348  13.3279066  39.1251602  52.0217476  25.9338760
  39.9416847  52.3591423  26.3022289  38.6066780  51.7646217  26.6963043
   8.7290745  48.6271286  24.6093922   8.1425152  49.1682091  25.1379890
   9.5228758  48.5472488  25.1382866  71.8694611  11.6988068  47.8419762
  71.3748932  10.9252033  48.1124878  72.7588882  11.3759680  47.6973152
  25.3556747  46.3524780  82.7481079  25.5731926  46.7116585  81.8879318
  26.1530094  45.9033089  83.0287094  12.6012554  22.8934479   0.3935815
  12.0204039  22.7925224   1.1476750  12.4674740  23.7970314   0.1074468
  57.5731812  60.0391464  82.1341248  57.9066696  59.8510323  81.2568436
  57.7457314  59.2402534  82.6323547  65.8168869  12.9065084  35.3481903
  65.3278656  12.0895061  35.2502289  65.9935074  13.1890001  34.4508400
  16.2488079  16.0500793   8.8432417  15.3558016  16.3357773   9.0359783
  16.5963993  15.7641802   9.6880341  51.7344666  37.9286575  86.8477478
  52.3613129  37.7783012  86.1401520  52.0309372  37.3569183  87.5558777
  66.0487671  46.6090965  10.3559322  65.3761292  47.2295380  10.6367140
  65.6385498  45.7499619  10.4551229   1.6202668  51.9007339  61.8230705
   1.4293487  52.6452179  61.2525215   2.2121351  51.3510094  61.3095245
  17.1768131  23.8451424  59.0777817  17.2490730  23.1048546  58.4752998
  18.0827770  24.0913639  59.2644272  18.3374157   9.6921148  80.4909286
  19.1037865   9.2008314  80.1950378  18.6993294  10.4127207  81.0066528
  33.6236153   5.1747999  28.8210068  33.6008568   4.2264938  28.6928310
  34.4685936   5.3397293  29.2393932  84.5188141  19.6868858  29.4422340
  84.2213364  19.1388531  28.7160130  84.0318909  19.3645058  30.2006607
   4.0909615  54.4206619  76.6591110   3.1841819  54.7269630  76.6463623
   4.2450151  54.1660995  77.5688858  14.8395815   5.8918982  83.7577362
  14.9945002   4.9747853  83.9838715  15.4827909   6.0821524  83.0748596
  59.7499123  26.2367764  80.7683792  58.8153305  26.0552864  80.6690903
  59.9417915  26.0136395  81.6792145  76.6658554  54.7974510  86.9309616
  77.2991943  54.1943932  87.3201065  76.2166901  55.1892204  87.6799545
  30.3134918  53.3629532  83.9929733  29.7622356  52.6578484  83.6535950
  30.7795105  53.6934166  83.2249603  14.8852720  21.7457542  83.9922943
  14.1327848  21.7976284  84.5816193  15.4817820  21.1307182  84.4190674
  78.3548965  62.4024582  17.0483990  78.7086411  61.5884361  16.6899796
  78.4079208  62.2892838  17.9974041   1.3357064  46.1152802  61.7303352
   0.6808957  45.6662979  61.1956673   1.1438930  47.0456619  61.6127663
  67.1653214  54.9354210  22.9784279  66.3551331  54.7143211  22.5191383
  67.2481689  55.8834114  22.8750839  49.0358467  57.1134834  12.1569805
  49.6854668  56.5180397  11.7832584  48.4963799  56.5572472  12.7189512
   7.6770487  39.1545830  15.1109180   7.0679240  39.1207504  15.8485184
   8.3236580  39.8133163  15.3642969  83.9016113   5.7492738   7.1420617
  84.3553162   6.4391656   7.6262426  84.5570908   5.4159198   6.5293193
   6.7008605  50.7568741  12.2442636   6.6181197  50.8050957  11.2918663
   7.6078963  51.0079155  12.4188938  25.8915520  65.9886169  83.9877853
  25.6674919  66.3515549  84.8447037  25.9895630  65.0493011  84.1437073
  13.3416615  60.1813736  67.7165527  13.4881516  59.3950195  68.2423096
  12.9525318  60.8081779  68.3264084  80.4461517  26.2208481   4.8074708
  79.5153198  26.3179359   4.6065979  80.8435364  25.9542027   3.9784815
  64.4691391   5.2976780  18.3127193  64.4075851   4.7200093  19.0734711
  65.2104645   5.8712397  18.5068703  30.0741787  44.3921204  85.0546722
  30.8892460  43.9018784  84.9471741  29.7186871  44.0858002  85.8889542
  70.7805405  48.9991226  79.5447617  71.5872421  49.3376045  79.9332123
  70.4905930  48.3173141  80.1508102  38.6401329  51.6294785  84.4144135
  38.3840828  52.1528587  85.1738434  37.8363190  51.1821671  84.1497879
  76.9068909  19.2261753  49.1923332  77.5944290  18.6020794  49.4247818
  77.2912064  20.0840816  49.3727036  18.8444214  62.2221031  62.0775299
  18.9462414  61.4102478  62.5742760  17.9570312  62.1754951  61.7217255
  69.3606033  29.4492531  20.7017288  68.8392792  30.2463131  20.6060715
  70.2635345  29.7600880  20.7675133   7.8320293  46.9656105  10.9046469
   7.8803296  47.6568985  10.2443285   6.9776077  46.5581093  10.7627335
  20.6754780  13.2398863   8.5779991  20.3903542  13.9156084   7.9629097
  20.1212807  13.3675976   9.3479252  42.0075226  60.7200737   1.6078254
  41.8349686  60.3758774   2.4841733  41.4762459  60.1749229   1.0274920
  42.3763428  42.5301628  29.4867363  43.0680161  42.2023468  30.0615025
  42.0466461  43.3116646  29.9303417  23.3513069  60.1279488  59.2497749
  23.6798172  61.0058098  59.0556717  24.0236340  59.5393257  58.9066544
  48.2818260  68.2984695   1.6511549  48.0912209  68.8678284   2.3966305
  47.5035629  67.7478867   1.5651422  26.6905975  15.5973005  51.0329819
  26.1107903  15.6287270  51.7939453  27.5557480  15.4125681  51.3985252
  27.7037430   3.1838124  23.8462315  27.2842999   2.4795067  24.3404503
  27.4714222   3.9813795  24.3217793  71.4314804   6.7154784  50.3246918
  70.5031738   6.5811553  50.5155411  71.6034470   6.1568308  49.5666847
  15.8249044  54.7633629  34.6774979  15.1441202  54.5673332  34.0338097
  16.6257439  54.8497429  34.1603661  28.9322395  26.4443817  79.8673248
  29.1900883  27.3508701  80.0347214  28.0630322  26.5116920  79.4721298
  82.4792709  41.0045509  71.3522873  83.3748169  41.1964035  71.0740433
  81.9289246  41.5056038  70.7503815  67.4862061  57.2167892  13.5871534
  68.1183243  56.6105385  13.9733162  66.6470795  56.9660950  13.9734745
  29.8286152  40.5936127  76.7032242  29.5000954  41.1343269  77.4215088
  29.1349964  39.9520760  76.5497437  61.5644302  41.9144173   2.0629230
  60.6921005  42.3044662   2.0068846  61.5247536  41.1544876   1.4822664
  40.7183685  46.7338104  56.3892326  41.6333199  46.9362144  56.5844955
  40.4078674  46.2602196  57.1609421  34.5057602  50.1021118  76.7809219
  35.2639275  49.5187683  76.8143463  34.7188988  50.8071671  77.3922348
  86.6609573  71.0296402  25.4806709  87.5982895  70.9538651  25.3020649
  86.3386841  71.6374130  24.8150997  76.0787506  23.0250969  19.4097271
  75.3255692  23.0566139  19.9996014  76.4963837  22.1849079  19.5992088
  71.5257187  51.8519478  68.0883636  70.9295349  51.2571945  67.6333237
  71.5625076  51.5155067  68.9837341  60.5635910  54.7383842  50.2031593
  59.9930687  54.4403725  49.4946899  60.3708839  54.1469841  50.9307175
  22.2119484   5.2286568  50.7203331  21.3095646   5.0652828  50.9946404
  22.4824104   4.4170651  50.2909126  38.8860283  26.2809315   6.1624889
  38.4902573  27.1417980   6.0264444  38.6212044  25.7718048   5.3964005
  42.1608238  33.7115135  70.0348892  42.4029999  32.8305626  69.7493973
  41.7156715  34.0943718  69.2789230  35.7377548  19.9174519  68.1838608
  36.0049706  19.0618267  68.5196228  34.8026772  19.9708729  68.3813629
  52.1021576  46.5867119  51.8757553  53.0537376  46.6046028  51.7737503
  51.8064919  45.9261627  51.2492638  27.9548187  69.0725708  15.9928036
  27.3683586  68.3185654  16.0542164  28.4286709  69.0758057  16.8244801
   4.4056931  39.8294754   7.6732092   3.5392070  39.4778633   7.8776655
   4.8822818  39.7891655   8.5023470  69.7064056   4.8637056  56.1588173
  70.2651062   4.8537498  55.3816528  70.0653305   4.1768589  56.7206421
  60.0144577   8.1665516  24.5903816  60.0311127   8.5347767  25.4737625
  60.8170738   8.4897442  24.1810055  34.5160828  42.9125900  33.7315826
  33.7215385  42.9932060  33.2039146  34.4836082  43.6596870  34.3290977
  32.9212189  70.3957596  37.5147896  33.2694969  70.9920349  36.8519173
  32.9058723  69.5411835  37.0838699  30.7932014   1.4066662  13.9007225
  30.0626106   0.8080431  14.0560246  31.3770447   1.2706915  14.6469603
  32.2948036  67.0168686   2.4917438  31.9606819  67.0372086   3.3885057
  32.0047607  66.1722488   2.1471798  18.0655689  20.5726242  54.9076614
  17.9437904  21.5015163  55.1040344  17.9126205  20.5050106  53.9651794
  55.2386398  56.7951813  63.7670593  56.1957779  56.7884903  63.7585297
  54.9892082  56.0206032  63.2630310  54.8488159   8.2374325  81.9121780
  54.3981743   8.5050240  81.1112137  54.2437477   7.6282768  82.3353271
   5.3860474  46.2280807  25.8536053   5.9247203  46.7177773  26.4751015
   4.4851923  46.4261360  26.1094685  77.1092072  34.9096794  61.5614738
  76.4243546  34.9812965  60.8965912  77.1456375  33.9757767  61.7681770
  23.1100216  12.7745428  83.1945343  23.4228649  11.8699093  83.1945953
  23.5556107  13.1821165  83.9372101  54.4679947  14.3913469  32.2420731
  54.9600334  14.8361988  31.5519753  55.1170120  13.8441181  32.6842804
  52.2511559  53.7416954  56.7303162  51.5307617  53.4159698  57.2699089
  52.9755630  53.1426697  56.9109688  66.3538971   3.5319750   0.9636135
  67.0347748   3.2235718   0.3656810  65.5483932   3.4972908   0.4476782
  68.9161301  47.9869881   0.4205138  68.9296722  47.5077209  -0.4079497
  69.7621765  47.7923164   0.8236849  70.7132874  50.8601837  38.1656494
  71.1622086  50.1704788  37.6767616  69.8041687  50.8102112  37.8702927
  61.9865952  21.8631763  34.7461472  62.2678452  21.1862965  35.3617477
  61.0318604  21.8675117  34.8146820   6.5163326   9.1583490  51.4538574
   5.6395326   9.3992510  51.1548233   6.8236842   9.9252720  51.9371758
  84.0379028  39.8466721  11.5603743  84.4238510  40.5858345  11.0903568
  83.1241455  39.8325691  11.2756424   0.7746589  31.1843433  65.2570419
   1.5950335  31.0106831  64.7954559   1.0350065  31.3084183  66.1697617
  79.1978912  21.2626877  79.7630920  79.6109467  20.9998112  80.5856018
  79.1405029  22.2165833  79.8180466  78.5395279  18.0315647  75.0342789
  78.6295624  17.7099247  75.9313202  77.5957108  18.1299553  74.9087219
  22.1746635  11.7894335   0.5717999  22.4499893  11.3762293   1.3901457
  21.5213833  11.1910591   0.2093045  70.6812363  42.3597717  28.2349377
  70.9189377  42.3114891  27.3089790  70.5992126  43.2967567  28.4126148
  60.7103271   8.6451216  10.4482632  61.2030869   8.1757336  11.1213846
  60.0574799   9.1474028  10.9358454  29.3743229  63.1992531   0.4340136
  28.4583969  63.0206413   0.2209180  29.8210888  62.3652954   0.2885827
  83.7362976  45.5150719  13.4012852  84.4642868  46.0527267  13.0895300
  83.8492584  44.6763687  12.9540176  24.4364128  59.3381767  84.6811981
  24.6559238  60.2622604  84.5623856  23.6438713  59.3473434  85.2178726
  41.6062012   7.5453663  32.7082634  40.6607819   7.5723634  32.8555298
  41.9869843   7.7946806  33.5503311  70.9323120  42.3441467  62.0729332
  70.1404037  42.3786240  62.6095238  70.9857788  43.2102661  61.6689415
  69.3680267  66.4077835  33.1385651  69.2502747  65.7267380  33.8007927
  69.9823074  66.0275955  32.5105972  83.8294525  62.2990074  47.6018753
  84.0803604  61.6707153  48.2790184  83.3678894  61.7744598  46.9476280
  39.8119888  15.1746120  84.2585602  39.7400589  14.2201643  84.2679825
  39.2235718  15.4660292  84.9550323  67.0386810   1.0242996  35.9326859
  66.5735168   0.4110311  36.5016785  66.6555176   0.8852260  35.0666199
   7.5832596  41.5269508  36.5294189   8.0243168  40.8323174  37.0184860
   8.2950048  42.0331764  36.1377754  71.2153625  46.5960464  82.1237640
  71.3304138  46.0281029  82.8856277  70.9803238  45.9991341  81.4133530
  62.2661858  12.0035629  31.0143967  61.4973907  12.1743670  31.5584679
  62.7623329  11.3451643  31.5007896   9.7104921   7.6982074  58.0028687
  10.3830738   7.6519790  57.3233643   8.9030476   7.4394975  57.5586472
  25.4192104  69.5155334   1.9545665  25.6543503  68.5879669   1.9783418
  26.1893559  69.9667892   2.3002162  27.2618370  52.3421021  14.8934593
  27.4636211  52.9474144  15.6069803  26.4334431  52.6613541  14.5355844
  71.6700745  65.7350388   0.8494791  70.9579697  65.2323074   1.2449657
  72.0995255  65.1172562   0.2577462   8.3432083  37.4854889  62.2642441
   7.5037026  37.0256462  62.2672958   8.4930754  37.7043419  61.3445282
  81.6096878  61.6079674  17.4623013  80.9819336  61.4258766  18.1615887
  82.2918701  60.9459381  17.5744572  38.8130760  47.0157890  14.1047421
  37.9830017  47.4202118  13.8524475  39.1293106  47.5517120  14.8320761
  68.9636841   3.4840262  25.5479946  69.1294937   4.2484956  24.9963379
  68.1495132   3.6916206  26.0065441  65.9091797  59.9251213  40.8508339
  65.3903046  59.7767906  41.6414070  65.7907562  59.1284332  40.3336372
  51.2827988  16.1745758  17.4200592  51.1029587  15.8359432  16.5430088
  52.2348022  16.2697124  17.4495182  14.3001633  41.1214943  16.4586411
  14.3488111  40.9743004  15.5140781  15.1487017  41.5017738  16.6858006
  58.2026978  67.4110870  85.2574768  58.3082581  66.5239029  84.9139709
  58.7516251  67.4312973  86.0413742   6.3359847   4.7915759  18.1584702
   6.0025854   5.6887293  18.1723728   6.0960069   4.4602628  17.2930965
  34.7769661  14.5278444  77.5644302  35.3753891  13.8149672  77.3409882
  34.0927162  14.4844122  76.8964920  54.6495781  59.2352829  16.0315781
  54.3943481  59.9445305  15.4416142  55.2217674  58.6786156  15.5034189
  69.9558029  38.2469940  74.2083588  69.1956558  38.4631691  73.6682892
  69.9824142  37.2901764  74.2124176  63.0281525  34.1021156  76.2850647
  62.4718742  33.4113121  76.6450348  63.7121811  33.6337967  75.8065109
  27.0473804   1.4450148  61.3329086  27.8234272   1.3018225  61.8746452
  26.3177719   1.1469376  61.8760948  78.1994553  32.0897026   1.7305893
  77.5475311  32.0421562   2.4298460  78.1898727  31.2183304   1.3345445
  71.3128204  10.9451532  13.6818342  70.6099319  10.4249735  14.0711765
  72.0582275  10.8179092  14.2686977  47.3429527  16.3631859  16.1803322
  46.8042336  15.7820110  15.6434450  46.7131386  16.8526554  16.7094688
  70.2240524  21.2508259  70.3493805  70.3956985  21.1101742  69.4182663
  70.7773743  21.9954700  70.5851288  50.2925034  51.5415039  56.1737061
  49.4832153  51.9434586  55.8579254  50.0619850  51.1790314  57.0291061
  76.1820297   6.3360205  32.0828133  76.9780655   6.7080035  32.4625244
  75.6211472   7.0929441  31.9133625  10.1512737  15.7892666  43.1299362
   9.3230476  16.0842552  43.5084229  10.2039671  16.2408180  42.2875824
  57.9052544  41.4233589  50.2318077  57.9858742  40.7725677  49.5345268
  58.1419945  42.2517776  49.8147850  52.5956078  26.0296173  10.5614319
  51.9574242  26.7419395  10.6008053  53.2966232  26.3031216  11.1530447
  64.6285019  25.5991726   6.8852448  65.2091293  26.3576488   6.8234630
  64.8155899  25.0894756   6.0969310  44.1731186  58.2205353  21.5475121
  44.0042534  59.0171547  21.0444031  43.3628044  57.7160034  21.4763050
  73.4794769  62.2994232  71.1620331  74.2618561  61.9078636  71.5503693
  73.6719894  63.2364693  71.1286469  42.9249039  24.9033680  58.4377174
  43.0687218  24.0703297  57.9887199  42.2145119  24.7239532  59.0536575
  74.8308182  23.7360764   3.0508370  74.4563904  24.5324745   2.6742885
  75.0918198  23.9895267   3.9362030  15.7631226  52.8752060  36.6648903
  16.5264263  52.3183594  36.8182564  16.0327301  53.4618492  35.9582138
  57.7955017   3.7433720   3.7230494  57.3467674   3.9899864   2.9143143
  57.1233559   3.8136988   4.4009194  40.0338898  35.2473145  52.6694145
  40.6415482  34.6050491  52.3027000  40.5873833  35.8329773  53.1860123
  76.6168594  64.2131729  11.4656315  75.9286804  64.8129654  11.1777401
  76.2016678  63.3507385  11.4576597  76.9736404  23.2326336  16.8882561
  77.8390656  23.1438484  17.2874985  76.3615494  23.1156311  17.6148109
  51.3098984  15.6991663  84.2035141  51.9352455  16.0995941  83.5995026
  51.1917152  16.3519897  84.8935013   7.9408231  48.5496559  55.2132645
   7.0165052  48.5723801  54.9655724   8.3754215  49.1076012  54.5682449
  79.2830963   1.1968857  11.5670252  79.5789337   1.9483364  11.0531845
  78.5860519   0.8059686  11.0401964  28.9339619  25.0558033  57.2841225
  29.0799160  25.5307465  56.4659805  29.0745144  25.7096138  57.9689636
  19.4738293  70.3143005   9.1811314  19.6998787  70.2356644  10.1079264
  19.2603970  71.2400665   9.0643673   3.9704280   8.5235329  87.1585236
   3.2455592   8.0163155  86.7931061   3.6373053   9.4198112  87.2026443
  65.8383865  60.4276009  35.3453789  65.3888550  59.5830269  35.3745270
  66.7684555  60.2030487  35.3174057  25.2911205   1.6837385  33.5678902
  25.5587921   2.5999808  33.4965935  25.9771423   1.1975139  33.1105156
  42.4292984   7.0954342   0.1561815  41.7395668   7.7351694   0.3329346
  41.9594002   6.2963343  -0.0822886   1.2052410   5.1997175  22.8283710
   1.3188637   5.9427662  23.4209919   1.2399882   4.4313946  23.3981991
  51.7249832  69.2140961  49.8487091  52.5795250  69.6444550  49.8206825
  51.0995941  69.9303436  49.9587440   7.3112926  71.0881653  75.6214828
   6.7360148  70.5638885  75.0643311   6.7146130  71.5912247  76.1756821
  71.7335510  29.1561928   8.8979530  72.3539810  29.8384590   8.6414003
  71.1111832  29.6021404   9.4724255  85.1836777  39.8366394  49.2995720
  84.8323212  40.1488380  48.4657135  86.1292419  39.7895126  49.1584435
  11.3340101  58.3720474  34.1482239  11.1167479  59.2450333  34.4752159
  12.2048664  58.4703484  33.7632866  74.7209549  66.1594391  10.7381792
  73.8807983  65.8986206  10.3608952  74.6765289  67.1144791  10.7845573
  49.2665482  71.2127686  44.1959877  48.8385887  72.0633392  44.2940483
  48.5455017  70.5934906  44.0827866  76.1347961  11.0949068  49.0437698
  76.5146332  11.7944117  49.5754166  76.8375931  10.4507427  48.9579735
  21.3752136  46.6661453  56.1616936  21.0806866  47.4791908  55.7512741
  20.5754414  46.2677803  56.5050583  62.5565529  34.1455116  61.6823349
  62.7123947  34.3057404  60.7515984  63.1530991  33.4309845  61.9055367
  37.8142776  60.5925751   4.7583966  38.2553444  59.8007660   5.0661793
  36.8940697  60.4574776   4.9846511  54.6468086  26.9504318  61.3334770
  54.9634705  26.9698353  62.2365723  54.1177788  27.7435684  61.2480736
   1.4654374  62.6594086   8.6990337   1.5351261  62.2260361   9.5496578
   0.7015838  63.2301407   8.7828684   0.2295220  16.4050522  66.2306061
   0.3296559  17.2008610  66.7529984   0.8955108  15.8086452  66.5726471
  50.6157684   6.3381968   2.0559540  51.1373825   5.6228676   1.6920111
  51.2623062   6.9664927   2.3776140  19.9980736   3.3721123  71.9013596
  19.9501915   3.6599002  72.8130112  20.1859913   2.4351051  71.9555435
  83.7174149  62.2884636  33.8178444  84.3571014  62.0637093  34.4935074
  83.2820435  63.0728455  34.1516457  32.7437401  39.4191666  85.4794693
  32.1153641  38.7220039  85.6674652  32.2574768  40.0399971  84.9369278
  71.9865494  14.5506172  63.1350632  72.9121857  14.3598633  63.2868500
  71.9354019  14.7626419  62.2030449  86.2926331   2.6507578  28.9159622
  86.5537796   3.5283830  29.1949100  85.6523819   2.3719623  29.5706196
  77.5592194  64.4180603  83.7974701  78.1717377  65.0669708  83.4511108
  78.0416183  63.9854736  84.5020218  57.3583450  60.6900482  71.2582092
  56.6145210  61.2043228  70.9444046  57.9350510  61.3315392  71.6730957
  47.0279655  13.4504843  86.9290237  46.1532669  13.7934313  86.7459259
  47.4005547  14.0681829  87.5581970  73.5598984  34.5111160  52.5439377
  74.3327560  33.9880066  52.7567253  72.8810806  34.1873398  53.1360626
  46.4062157  27.6086998   9.1663380  45.8228493  27.2055206   9.8092728
  45.9583015  27.4898281   8.3287973  35.4862518  69.6504211  76.4777832
  35.9273834  69.6100388  77.3263092  35.7940712  68.8737488  76.0105972
  78.6485062  60.1334267  37.7837639  79.1062851  60.4759293  37.0160713
  77.7316895  60.0831947  37.5132828  74.4856567  62.3466835  75.0942154
  75.1789322  62.6696510  74.5186310  74.2597885  63.0982933  75.6422119
  75.6026535  20.9296112  86.5493469  75.5829086  19.9993649  86.3246613
  75.7239990  20.9441795  87.4987106  42.4951935  57.9025803  41.2721977
  41.6241646  58.1001015  40.9279251  42.3408012  57.2476730  41.9529991
  71.2559814   3.8999231  11.0088329  71.4993896   4.8242326  10.9575062
  70.6200180   3.8590252  11.7230558  29.8407497   5.1082296  22.1401749
  29.0753040   5.6523566  21.9551105  29.5000839   4.3881841  22.6709404
  51.7658272  65.5179825  49.8717537  50.9834938  65.3146896  50.3844528
  52.3594704  65.9353714  50.4959373  77.6927414  37.2332993   1.6921332
  77.8416824  37.8639679   0.9876469  78.5486145  36.8301277   1.8375938
  50.0679588   4.3519049  77.1706085  50.3989830   4.7021890  77.9976273
  50.6982231   3.6733871  76.9285126  44.0899887  59.0925369  52.5717354
  43.1457863  59.1446609  52.4234047  44.4535446  58.8535614  51.7191200
  62.1121025   3.0131111  64.7718277  62.6314011   2.2928104  65.1292191
  61.2615700   2.9323709  65.2034683   6.6564097   2.4809339  60.6609917
   5.8238134   2.9493058  60.7213516   7.1456637   2.7614965  61.4343910
  79.6439285  58.1263199  64.8757477  78.8284073  58.0889511  65.3755035
  80.1878052  57.4347610  65.2528076  22.4103069   8.6179447  63.7927628
  22.8763084   8.4214468  62.9800758  23.1032104   8.7709665  64.4351807
  28.9500446  40.2700653  66.3725052  29.6125031  40.5597572  65.7452469
  29.3768654  39.5689850  66.8649902  17.7950783  71.2826614  53.2863731
  18.5185127  71.8104248  52.9482346  18.1322479  70.3868103  53.2875061
  52.9719009  38.4031410   8.0733242  52.0705147  38.6411819   8.2902718
  52.9370995  38.1486168   7.1512413  87.0983505  55.0803223  35.1226311
  87.0138168  54.3368111  35.7195206  86.5163727  55.7472801  35.4869080
  56.4806480  66.5843277  32.5332985  56.9089432  65.9699097  31.9372368
  55.5447159  66.4341812  32.4001884   4.7655396  12.0461197  81.0184631
   5.6728601  12.3475142  81.0649643   4.6371665  11.8138132  80.0987930
  68.1569519  63.6387253  78.3910217  68.4774170  62.9365158  78.9570923
  67.2962341  63.3376999  78.0998611  11.6525440   6.4716787  80.8373947
  12.1809139   7.0553999  81.3817520  12.0976048   5.6259456  80.8911362
   0.1147285  71.3053436  39.2094612   0.2672045  71.5939789  40.1092796
  -0.3221372  70.4585114  39.3003464  25.3706799  65.4186325  51.8610802
  24.8922844  66.2220535  52.0657425  26.1271820  65.7129517  51.3538208
  20.4212666  46.7795448  10.4899940  20.4244061  46.8317070   9.5342216
  20.1936054  45.8693161  10.6794376  68.0684204   9.4069195  84.6597290
  68.0710449   9.0383472  83.7763367  67.7989807   8.6803303  85.2216034
  40.1530190  41.8260040  80.6527786  39.6536636  41.6891937  79.8476944
  40.5834389  42.6716499  80.5268784  86.2340088  11.0765924  50.9384575
  86.5514679  11.9787045  50.9790192  86.0924530  10.8311596  51.8527641
  49.5184669  27.6495991  54.4848251  48.6040459  27.3886337  54.3754463
  49.7103729  27.4699059  55.4052124  56.2472229   4.8138242  51.4186783
  56.6190033   5.3478990  52.1206589  55.8886833   5.4489508  50.7987633
  53.5827675  47.6077271  76.7088547  54.2050095  47.0189171  77.1358795
  52.9920654  47.8816757  77.4104614  86.0932693   7.2073960  35.7101250
  85.7388382   8.0957766  35.6728249  85.3942719   6.6870880  36.1062508
  82.3755722  46.2273941  18.0113029  82.8191757  46.0913849  18.8485279
  81.5496292  46.6515388  18.2440014  27.1931515   5.9750071   1.2942147
  27.6097736   6.5697422   1.9178717  26.9462681   6.5345864   0.5579057
  51.5835228   1.8857934  77.3970642  52.5118484   2.0044472  77.5979767
  51.5613365   1.7243102  76.4538422   9.1080103  18.9789238  78.9286728
   9.0999851  18.8325386  79.8745728   8.2304754  18.7281952  78.6400528
  12.3604956  25.9571686  12.8925781  13.2910023  25.8468952  12.6970549
  12.0132914  26.4382687  12.1414299   6.3982644  69.6041489  58.5801010
   7.1400294  69.3089981  58.0519905   6.7795572  69.8135223  59.4327507
   2.2302635   4.2691722  18.6181259   1.9500306   5.1149864  18.2684116
   2.6159964   3.8159499  17.8684387  79.5955658  50.4851227  78.3424225
  79.6183319  51.3459282  78.7604294  79.7729568  50.6626511  77.4187088
   0.4905857  26.7707233  48.5022430   0.9482630  26.0952034  48.0018082
  -0.0809014  27.1963749  47.8631363  20.0298233  30.8280010  62.5450783
  20.6507492  30.3989773  61.9563332  20.2093925  31.7626266  62.4427948
  41.3422394  51.4348679  50.1377716  40.6772728  51.2429276  50.7989922
  40.9025841  52.0167427  49.5178070  42.0871849  51.4110794  46.2016411
  42.5138741  50.6205177  45.8712158  42.2865677  52.0817146  45.5483971
  76.6849213  34.9283066  57.8248405  76.9077301  35.3428688  58.6583443
  77.5273438  34.6599503  57.4580612  76.9197083  64.3837280   4.6456909
  77.3481903  64.0965424   5.4520154  77.5677338  64.9418106   4.2157669
  19.6590958  30.8166676  11.6137085  19.4877892  31.0941658  12.5136414
  18.8811226  30.3176689  11.3647327  44.4224510  25.6225834  76.4402237
  44.4742851  25.8688431  75.5166931  44.0039024  26.3715057  76.8646774
  22.6867714  39.1914101  72.1981049  22.8527012  40.0555687  72.5748444
  21.9174671  38.8691025  72.6677017   6.0140047   5.9128742  62.7220001
   5.6794801   6.2331486  61.8842964   5.2640028   5.9636254  63.3145828
  86.8950507  71.6970543  89.2587424  90.0000000  90.0000000  90.0000000
