QMMM reactant CHA#2 frame 54795
 55680
  17.0548191  39.1927032  38.0505486  16.5483208  39.9942055  37.7024727
  16.6633434  38.8116989  38.9000664  17.9297142  39.5637207  38.3926125
  17.2669544  38.2214203  36.9206657  16.5066395  38.3575211  36.1515770
  18.6046143  38.5294800  36.2495117  18.4416924  39.5832138  36.0232353
  19.4566860  38.4579964  36.9255028  18.9980583  37.7837105  34.9847069
  18.7050457  36.7345123  34.9469414  18.3752651  38.1845589  34.1849899
  20.6825638  38.0834770  34.3103714  20.7586308  39.8747292  34.0281181
  21.6112213  39.8735886  33.3490028  19.9243126  40.1690826  33.3914299
  20.7899475  40.4509048  34.9528542  17.3248692  36.7529984  37.4527283
  17.9025517  36.5076408  38.5211449  16.5217094  35.8646545  36.8708344
  16.0604172  36.1396675  36.0154495  16.2446480  34.5986290  37.4406204
  15.9070568  34.6875496  38.4732018  15.1902208  33.9958115  36.4971085
  14.5036411  34.7684860  36.1511536  15.6396770  33.6476059  35.5671387
  14.4598112  32.8122597  37.2663116  15.1029472  32.2185249  37.9158897
  14.0590458  32.0891228  36.5559845  13.0484724  33.4909973  38.1659966
  12.3105116  31.9226112  38.6171722  12.2186661  31.3393211  37.7009659
  11.2802153  32.0534668  38.9480324  12.9731245  31.4409657  39.3362427
  17.5110741  33.7241478  37.3641701  18.2941399  33.7914734  36.5238838
  17.6758919  32.9152451  38.3941727  16.8989372  32.9584656  39.0380478
  18.5930157  31.7719326  38.5511665  19.5307655  32.0775070  38.0871086
  18.8692532  31.4698849  40.0564270  17.9525909  31.0012760  40.4145279
  19.9824200  30.4103012  40.1932335  20.1605206  30.2360764  41.2543755
  19.5696316  29.5308495  39.6989975  20.8762169  30.6939754  39.6375771
  19.2844391  32.6580696  40.9652443  18.2472172  32.9806595  41.0558510
  19.5856247  32.4032440  41.9813423  20.0968456  33.8323593  40.3655281
  19.7944565  34.3182678  39.4378662  20.0564442  34.6342583  41.1026993
  21.1251087  33.5098572  40.2019157  18.0128212  30.6203575  37.6765366
  16.8803806  30.3574753  37.7672768  18.8462696  29.9024181  36.9935417
  19.8256645  30.1287632  37.0917969  18.4793205  28.7442894  36.1164970
  17.6081753  28.2710571  36.5695496  18.1296368  29.2625675  34.6727371
  18.9787922  29.8046894  34.2566376  18.0386448  28.3784065  34.0418015
  16.8752480  30.1000614  34.6165733  16.0237541  29.6019669  35.0802155
  16.9835854  30.9129848  35.3345718  16.3268414  30.5779476  33.2402916
  17.0552292  31.2840061  32.8415031  16.3031216  29.7341576  32.5506859
  14.9566660  31.0392036  33.3300591  14.3144417  30.4365082  33.8244362
  14.4581594  32.1548805  32.8148994  15.1666212  33.1184006  32.3245163
  14.7421198  33.9399338  31.9183331  16.1734314  33.0542564  32.2763481
  13.2057629  32.4466934  32.9172173  12.6692247  31.7932682  33.4697266
  13.0330782  33.4209518  33.1199608  19.6368408  27.6589050  36.1802406
  20.6946945  27.9071903  36.7461281  19.5208035  26.4836025  35.5360680
  18.6955624  26.1868877  35.0350342  20.5551014  25.4816856  35.4392509
  21.3476009  25.6188908  36.1749268  20.1671219  24.5526581  35.8569603
  21.1478443  25.2695065  34.0697899  20.4444771  25.5798931  33.0087967
  22.4340649  24.9125671  33.9991112  23.0178394  25.0690899  34.8083115
  23.2057590  24.6850204  32.7636909  22.5005264  24.4133835  31.9782200
  24.0142384  25.9667835  32.2807732  24.7705612  26.2393608  33.0168343
  24.6372032  25.7470951  30.8867397  23.7848835  25.6287670  30.2176743
  25.2377110  26.5731697  30.5058308  25.2518425  24.8470097  30.9000397
  23.0926189  27.1871548  32.1743546  22.1918545  27.0231781  31.5828857
  22.7726879  27.4006214  33.1942444  23.8595104  28.4556446  31.6478291
  23.2804832  29.3752899  31.7319469  24.8910294  28.5287056  31.9924011
  23.8822918  28.4579964  30.5580654  24.0920486  23.3836784  32.9537735
  24.6740284  23.1693382  33.9758034  24.2275581  22.5846710  31.8567734
  23.7448940  22.8030224  30.9968548  25.0110149  21.3428040  31.8189030
  25.7261047  21.3736706  32.6409760  24.0480537  20.0944443  31.9117107
  23.4218464  19.9415627  31.0327377  24.6281548  19.1748085  31.8351593
  23.2261829  20.1676788  33.1677666  23.9388962  20.3872337  33.9627113
  22.4088345  20.8647232  32.9829178  22.5891953  18.8217754  33.5195847
  23.2627697  18.1402016  34.0390625  21.8332329  18.9779205  34.2891617
  22.0035629  18.1530132  32.3461380  21.3938980  18.7903080  31.8539333
  22.4038239  17.1319103  31.6766720  23.3604412  16.3928356  32.1003456
  23.7265873  16.6114788  33.0158958  23.6520309  15.5260954  31.6715813
  21.8484764  16.8012924  30.5485477  22.2148895  16.0304585  30.0084915
  21.0990238  17.3605518  30.1669064  25.9148197  21.3104954  30.6112232
  25.6874237  22.0128651  29.6466217  26.9073963  20.4194756  30.6654129
  26.9860039  19.8809052  31.5162125  27.5153370  19.7944584  29.4587708
  26.6994591  19.5503235  28.7784386  28.2102852  20.4663067  28.9550190
  28.2880917  18.4775200  29.6216946  28.5487709  18.0667114  30.7521801
  28.5786266  17.7930260  28.4967041  28.4349728  18.2060204  27.5862637
  29.1428299  16.3956413  28.4445667  29.5574951  16.0865536  29.4040565
  28.0036011  15.4626999  28.1749477  27.6057396  15.7820425  27.2117100
  28.3668251  14.4362297  28.1246338  27.2167931  15.5469913  28.9245663
  30.3490410  16.2979145  27.4483299  30.2746181  16.8807678  26.3973083
  31.3262081  15.4423189  27.7968616  31.3338833  15.0842752  28.7412376
  32.5359421  15.2371531  26.9515686  32.1618462  15.1062269  25.9361782
  33.4586067  16.5011864  26.8911648  32.8670044  17.3938313  26.6879406
  34.3104515  16.6718388  28.1506424  34.7421417  17.6727066  28.1551552
  33.5611649  16.6423035  28.9417191  35.0209618  15.8479891  28.2180824
  34.3758774  16.4056110  25.8702717  34.5778694  17.2998810  25.5855179
  33.2745438  13.9504576  27.2881050  32.9562187  13.4276924  28.3022537
  34.1861496  13.4902105  26.3858185  34.3656120  13.9485435  25.5038719
  34.9183731  12.2220011  26.5130596  34.9044418  11.9500771  27.5685043
  34.4063530  11.0603695  25.6694241  34.9781189  10.1504631  25.8517818
  32.9384651  10.6314926  25.9523258  32.7789383  10.5752296  27.0291214
  32.2924614  11.3923178  25.5142307  32.6777344   9.7088118  25.4338837
  34.4374084  11.4564409  24.2814617  35.3682480  11.4730434  24.0472355
  36.4582481  12.3329401  26.2435875  36.9112320  13.3251944  25.6328793
  37.2218094  11.3128920  26.5757732  36.7759399  10.5727921  27.0987968
  38.7026443  11.1596508  26.1515102  38.8841591  11.6403484  25.1902142
  39.6916542  11.6989183  27.1473846  40.6746559  11.4442186  26.7512360
  39.5538330  13.2340002  27.4186287  40.0482178  13.3996954  28.3758221
  40.0144806  13.7556190  26.5796890  38.4892006  13.4638176  27.4615345
  39.5539474  11.0394917  28.5173244  39.5546646   9.9579344  28.3819218
  40.3967590  11.3199005  29.1490993  38.6406631  11.2354078  29.0791359
  39.0803337   9.6533518  25.9075966  38.1997452   8.7999306  26.1845207
  40.3069496   9.3109655  25.3874893  40.7773552  10.0890646  24.9477386
  40.8296165   7.9254827  25.1753330  39.9647293   7.2624927  25.1524963
  41.4359360   7.8104224  23.8087578  42.3747864   8.3621397  23.8564205
  41.5397758   6.7545233  23.5589733  40.6189499   8.4227743  22.6513290
  40.6782455   9.4933901  22.8472061  41.1048393   8.2191620  21.6970997
  39.1041946   8.0496826  22.6567860  38.2121964   8.9067936  22.7369194
  38.7115021   6.8675709  22.6869678  41.7074203   7.3194780  26.2749958
  41.9073257   6.1118879  26.3506775  42.2952461   8.1145077  27.2126045
  42.0029030   9.0753860  27.3191319  43.1979675   7.5810609  28.3094864
  42.9098053   6.5411963  28.4635868  44.6491928   7.6376967  27.9252167
  44.8261604   8.7000637  27.7573986  45.2328224   7.3483744  28.7991562
  45.0456696   6.7117457  26.7491760  44.9965477   5.6655507  27.0511150
  44.3213043   6.8266082  25.9428272  46.3989677   7.0230331  26.1892719
  46.7708778   6.1448302  25.6615009  46.1128349   7.7789469  25.4579544
  47.4517899   7.3605189  27.1389980  47.9055862   6.6267447  27.6641140
  47.9728165   8.5506659  27.2665691  47.8202705   9.4907274  26.3668289
  48.2257538  10.3968906  26.5527134  47.3606300   9.2862072  25.4910412
  48.8567390   8.7265320  28.2463741  49.4035530   9.5614195  28.4014854
  49.0121918   7.8839636  28.7811756  42.8960915   8.3319187  29.5737038
  42.8610954   9.5969057  29.5671501  43.0019989   7.5660572  30.6021099
  43.0072212   6.5722489  30.4220619  42.7603951   8.1169462  31.9132996
  41.9951134   8.8895226  31.8386269  42.2014084   7.0059285  32.7716179
  41.3000374   6.7210350  32.2289696  42.9527168   6.2186341  32.7099342
  41.8239670   7.4284954  34.2075119  41.4991684   8.5595608  34.4976425
  41.8165169   6.4202104  35.0253716  44.0427170   8.8162870  32.4002914
  44.9092712   8.2296886  33.0439491  44.0390892  10.1542339  32.0893517
  43.5323257  10.4548521  31.2690353  45.1270676  10.9975157  32.5202408
  45.3424911  10.7185202  33.5516739  46.4688606  10.7037230  31.8105736
  46.7560730   9.6617088  31.9513493  46.3359833  11.0066166  30.2799644
  46.1407585  12.0603180  30.0807304  47.2400360  10.6558475  29.7822170
  45.4833565  10.4003201  29.9741364  47.5398331  11.4842958  32.1939507
  47.6370049  11.3163919  33.1341438  44.8102951  12.4714756  32.5626755
  44.0779228  12.9514046  31.7223186  45.4158401  13.1896696  33.4784393
  46.0845261  12.7167883  34.0694885  45.2997742  14.6689539  33.6371651
  44.3570862  14.9993210  34.0733986  46.3644905  15.1701021  34.6478043
  47.3560753  14.8280516  34.3513870  46.5018578  16.2431068  34.7815552
  46.0438805  14.7396326  36.1105309  45.5755615  15.6379223  36.5128403
  45.2448807  14.0066528  36.2220917  47.2115784  14.3416147  36.9293022
  47.4882812  13.1342974  37.1333351  47.7852898  15.3164854  37.4594498
  45.5373688  15.4672318  32.3636856  44.9560623  16.4682255  32.1116905
  46.3703880  14.9448957  31.4731312  46.7898293  14.0604715  31.7220612
  46.7266159  15.5277252  30.1501656  47.0851631  16.5401878  30.3358040
  47.9283257  14.7933397  29.5007763  48.6924019  14.7371044  30.2761002
  47.6065254  13.7739220  29.2878628  48.3259850  15.4882584  28.1219559
  49.2452393  15.0017633  27.7957706  47.6029243  15.1749697  27.3688755
  48.5210571  17.0391331  28.2226200  49.2811813  17.5730934  29.0841618
  48.0456924  17.8337708  27.3763714  45.5078278  15.5642567  29.2051620
  45.2574539  16.5147076  28.4962387  44.6144180  14.5700331  29.3194618
  44.6534767  13.9818296  30.1395779  43.3802948  14.4889402  28.5314217
  43.6017570  15.1167526  27.6683426  43.0663223  12.9689846  28.2328796
  43.1127739  12.3968258  29.1594734  42.1267929  12.8432436  27.6947479
  44.2750053  12.3437901  27.4332104  45.1153641  12.3552523  28.1273003
  44.3422508  11.2638683  27.3015022  44.7192001  13.1420183  26.2210426
  43.8467789  13.3835287  25.3272610  45.9271202  13.2399702  25.9241581
  42.1911125  15.0730314  29.3567410  41.5521507  15.9981899  28.8837299
  41.9547729  14.6800165  30.6300850  42.5553436  13.9404659  30.9654694
  40.7725372  15.0619745  31.4821625  39.8498116  14.7432680  30.9972916
  40.7446060  14.1529150  32.7636719  41.5746613  14.4723139  33.3938255
  39.5385628  14.4900627  33.7151566  39.5088730  15.5529051  33.9551315
  38.6220360  14.3173313  33.1510277  39.5732346  13.9769669  34.6762123
  40.7912788  12.5995970  32.3781052  39.8637390  12.2435932  31.9297447
  41.5392265  12.2470093  31.6679211  41.0727234  11.6432772  33.5118523
  40.3995819  11.7051382  34.3669243  41.0726318  10.6508207  33.0611496
  42.1084175  11.7573252  33.8318977  40.4986916  16.5801392  31.7257862
  39.3695221  17.1017265  31.6183548  41.5291290  17.2843571  32.1760597
  42.3667908  16.7947960  32.4566956  41.4065361  18.6731014  32.5620499
  40.5548058  18.9706440  33.1737022  42.6563110  19.1292515  33.3952370
  43.5103416  18.9637508  32.7384682  42.5958061  20.1863194  33.6541672
  43.0074387  18.1913013  34.5298119  43.2020493  17.1890125  34.1481781
  44.3426933  18.7207680  35.1273079  45.1095238  18.8774242  34.3686714
  44.1878738  19.7073116  35.5641899  44.6490097  18.1060810  35.9737320
  41.9191971  18.1187897  35.5696220  41.8020439  19.0394287  36.1412888
  40.9326019  17.9393578  35.1423798  42.1105042  17.3633289  36.3317146
  41.3825989  19.5117588  31.1874313  40.6673889  20.5108643  31.0994377
  42.2141190  19.1172562  30.2574348  42.8027725  18.3263397  30.4766197
  42.2584229  19.6722546  28.9182987  42.5405121  20.7247448  28.9463768
  43.3698578  19.0510960  28.1412220  44.2105904  18.9002762  28.8183670
  43.0210571  18.1157341  27.7035637  43.9060059  19.8852406  26.9767780
  44.8694992  19.4599552  26.6958599  43.0406990  19.8623505  26.3143444
  44.1452560  21.3780956  27.1247044  43.3377037  22.1801720  26.7668667
  45.2084923  21.6275005  27.7953835  45.8449593  20.8899689  28.0619469
  45.4010315  22.5779572  28.0776272  40.9029732  19.7138653  28.2167263
  40.3312454  20.7683716  27.8545914  40.2813683  18.5484047  28.1662254
  40.8455734  17.7403316  28.3871155  38.9277458  18.3538094  27.5562153
  38.8164291  18.9922981  26.6798325  38.6068115  16.8548050  27.2216988
  39.2164803  16.1551933  27.7934933  37.5412636  16.7059574  27.3964958
  38.8520241  16.6220989  25.7003002  38.6087990  15.5837421  25.4750042
  38.1165657  17.1502571  25.0934601  40.3174057  16.8213310  25.1169434
  40.7071953  17.7895241  25.4312096  40.9825249  16.0634689  25.5309105
  40.4111443  16.7272797  23.6141701  41.4836884  16.8141041  23.4403744
  40.1356812  15.7718744  23.1676044  39.6051979  17.7731819  23.0041714
  38.6917229  17.4501305  22.7190437  39.6637154  18.6256714  23.5426331
  40.1085625  18.0010948  22.1587238  37.7764397  18.9015217  28.4172306
  36.7249718  19.3349438  27.9722042  38.0375481  19.0109940  29.7190380
  38.9461670  18.7607059  30.0821743  37.1322365  19.7142448  30.6026897
  36.1317673  19.3884144  30.3180847  37.3107948  19.4346066  32.1184883
  38.2339973  19.9062176  32.4552040  36.1653786  19.9870987  32.8998413
  36.3112144  21.0469036  33.1087570  35.2200508  19.9987087  32.3573265
  36.1864700  19.4950848  33.8722496  37.0488396  18.0449066  32.4097595
  37.8415146  17.5596504  32.1693611  37.1179657  21.3236980  30.4505844
  36.1070290  21.9023952  30.1737347  38.3438187  21.9077702  30.3741570
  39.1021385  21.2469463  30.2826939  38.5931015  23.3066654  30.2144299
  37.8850212  23.6759548  30.9562836  40.1600609  23.4603729  30.2567577
  40.4914970  23.1582870  31.2502346  40.5430717  22.7501564  29.5239601
  40.6748390  24.8271103  29.9201069  40.2680092  25.2311802  28.9931087
  40.4262085  25.3911152  30.8190956  42.2059937  24.7373352  29.8437138
  42.5410843  24.3102112  30.7889004  42.5919113  24.0979214  29.0497894
  42.9023743  26.0881329  29.8526096  42.6085434  26.7097359  30.6984081
  43.9778862  26.0096226  30.0113678  42.5873985  26.8796577  28.6554108
  42.1743317  26.3035851  27.9359550  41.9973183  27.6960545  28.7289143
  43.4436722  27.0922050  28.1637650  38.0280838  23.7319794  28.9208107
  37.2059822  24.6832542  28.9478664  38.2208939  23.0085621  27.7951107
  38.8019295  22.1880875  27.8916588  37.5064468  23.2062855  26.5541935
  37.7730141  24.1462135  26.0708942  38.0974770  22.1076183  25.5754375
  38.1129227  21.0998497  25.9904842  37.5407715  22.1022091  24.6383381
  39.5286674  22.5292130  25.2855396  39.5627785  23.4274979  24.6690807
  40.0876045  22.7954407  26.1826534  40.3387108  21.3503323  24.6680107
  39.7734642  20.3268337  24.3357105  41.6732750  21.4743462  24.5516281
  42.2518616  20.6731186  24.3433628  42.1095543  22.2611675  25.0106182
  36.0038414  23.0282154  26.6171150  35.2904663  23.7305527  25.8598061
  35.3900261  22.1614590  27.4272480  35.9025612  21.4832897  27.9726753
  33.9584923  22.0486908  27.5506306  33.4646873  22.0654449  26.5790443
  33.5976601  20.6323910  28.1924801  33.5913506  19.8853340  27.3987751
  34.3300591  20.3533707  28.9500065  32.1975975  20.6490917  28.8101864
  32.0848274  21.5293808  29.4430161  31.1741409  20.9380398  27.6031494
  30.1166325  20.9291229  27.8671570  31.2982101  21.9108524  27.1273918
  31.2904911  20.1266594  26.8846626  32.0023880  19.3682156  29.5577278
  32.5329666  19.3057156  30.5078220  30.9258232  19.3180275  29.7207947
  32.1519241  18.5097542  28.9029179  33.4303970  23.3426247  28.2603970
  32.4350739  23.9116020  27.8901005  34.0451279  23.7480183  29.3485680
  34.9087486  23.2797298  29.5830097  33.6180458  24.8908405  30.0593624
  32.5549622  24.8975563  30.3000240  34.3186722  25.0544281  31.4097576
  35.3524551  25.2954082  31.1621284  33.8920670  25.9502449  31.8610020
  34.2675018  23.8058624  32.3531151  34.6926193  22.9737377  31.7919159
  35.0929756  24.0283737  33.6318703  34.8153305  24.9134712  34.2042503
  35.0294533  23.0839672  34.1723938  36.1324539  24.1758633  33.3389130
  32.8617859  23.3928719  32.7272110  32.8138809  22.7092590  33.5748405
  32.2915001  24.2716770  33.0281677  32.4842873  22.9855175  31.7893124
  33.7879677  26.1543007  29.2021885  32.8628349  26.9408531  29.1339798
  34.9166756  26.3669128  28.5304832  35.6603432  25.7000751  28.6801071
  35.1409454  27.4647484  27.5170078  35.0323715  28.4534817  27.9627876
  36.5650406  27.3479252  27.0414658  37.1680984  27.3990974  27.9479980
  36.7095184  26.3474846  26.6336117  37.0914574  28.4922695  26.1514359
  36.6538506  29.4413967  26.4608860  38.1625290  28.6467209  26.2820091
  36.6923294  28.2692585  24.6876392  36.5566444  29.2892189  24.0175533
  36.5364227  27.0752525  24.2081280  34.0593071  27.4855595  26.3609352
  33.7318687  28.5612602  25.8890057  33.6833267  26.2409096  25.8979263
  34.0777435  25.3475380  26.1556492  32.5205841  26.1861591  25.0018845
  32.6459846  26.9525337  24.2370033  32.3728905  24.7957993  24.3307247
  33.3314781  24.4577103  23.9371395  32.0611458  24.0956879  25.1058121
  31.3582115  24.6872902  23.2098999  31.2792854  23.6330853  22.9443378
  30.4338112  25.0356140  23.6706181  31.5563507  25.5216656  21.8949852
  30.8084431  25.3021164  21.1330566  31.3994274  26.5671749  22.1602898
  32.9771652  25.2989082  21.4197826  33.6882172  25.1920547  22.2389812
  33.0514832  24.3174915  20.9513817  33.3170280  26.4096813  20.5221252
  34.2813683  26.3920689  20.2223930  32.7324905  26.3052673  19.7051067
  33.1329727  27.3155098  20.9291878  31.1731091  26.5748920  25.6148109
  30.4748993  27.4037037  25.0272789  30.8745766  26.1834526  26.9278145
  31.4194012  25.5243740  27.4652901  29.7711906  26.7158127  27.7496777
  28.9334507  26.5496483  27.0724182  29.5447369  25.9531612  29.0949783
  30.5150642  25.9194431  29.5903835  28.5857925  26.7418327  29.9715748
  28.5966263  26.1848106  30.9084339  28.6686001  27.8187065  30.1184959
  27.5875340  26.6670914  29.5403023  29.2041683  24.4274635  28.8755608
  28.2141743  24.3413467  28.4276733  29.9065075  24.0372066  28.1390018
  29.1730232  23.5149441  30.0954971  28.6856689  22.5983276  29.7632370
  30.2342396  23.3761845  30.3020592  28.5934200  23.9482746  30.9105968
  29.7905693  28.2471581  27.8154049  28.7491207  28.9640484  27.7150517
  30.9925690  28.7906551  28.1245174  31.7430687  28.2521133  28.5329552
  31.1833630  30.2483864  28.1575890  30.5879555  30.6156940  28.9934597
  32.6183167  30.6947956  28.4959450  33.2928658  30.2061424  27.7928791
  32.7026100  32.2569199  28.4380627  32.3989296  32.6937256  27.4867096
  32.0802612  32.7059250  29.2121277  33.7304230  32.5215607  28.6863937
  33.0536194  30.1724052  29.9179573  32.1917610  30.4481449  30.5256405
  33.1307335  29.0856953  29.9528065  34.3459511  30.6894779  30.6180820
  34.6246452  30.2033100  31.5529976  35.1885223  30.5948124  29.9331017
  34.1357040  31.7421055  30.8074627  30.8240013  30.9260273  26.8346157
  30.0218868  31.8453083  26.8770123  31.2996788  30.3974571  25.6757183
  31.7761173  29.5108891  25.7600002  30.9137058  30.8290672  24.3244324
  31.1846027  31.8842888  24.2894630  31.9272861  30.1711521  23.3944607
  32.8537140  30.6085873  23.7665901  31.8796787  29.1056633  23.6193523
  31.5217991  30.3871479  21.9816303  30.6704521  29.7611580  21.7143288
  31.3305912  31.4384995  21.7666912  32.6316299  29.8646240  21.0131836
  33.3390312  28.8637791  21.3692665  32.8227730  30.4494743  19.9179478
  29.4264927  30.6817207  23.8850250  28.9298267  31.5473022  23.1311226
  28.7786694  29.5804958  24.2390156  29.3310280  28.8328075  24.6339397
  27.4795284  29.2552128  23.7766933  27.3295803  29.6319962  22.7649345
  27.2192936  27.7562752  23.8468342  27.4539375  27.4279442  24.8593750
  26.1607018  27.5711384  23.6645737  27.9951534  26.9515839  22.8477612
  29.0638103  26.9868221  23.0594940  27.6857586  25.9309788  23.0730190
  27.6626682  27.2430153  21.3624916  28.6367970  27.3745155  20.5620174
  26.3964443  27.1923637  21.0584946  26.4142742  29.9440269  24.7141724
  25.2563839  30.0596390  24.3072338  26.8206921  30.4331417  25.9467373
  27.7702312  30.2829819  26.2564602  25.9073563  30.9675331  26.9713707
  24.9356670  31.0561905  26.4855099  25.6209526  29.9992657  28.1224327
  26.4543800  29.8948116  28.8171120  24.9384441  30.4052830  28.8690453
  25.1699219  28.6100140  27.8123360  23.9734974  28.3019867  27.7823925
  26.0226326  27.7034416  27.6176701  25.6277103  26.8336525  27.2896385
  27.0236492  27.8332119  27.6526375  26.3607006  32.3772087  27.4563217
  25.7321053  32.9467545  28.3134022  27.4900570  32.9702034  26.8940563
  28.1071358  32.4350357  26.2999935  28.0684605  34.3437538  27.3050632
  29.0737476  34.3633690  26.8842163  27.2145557  35.4513664  26.6464844
  26.1843662  35.3081665  26.9725323  27.5452480  36.4464493  26.9440613
  27.2654037  35.2375374  25.1409054  28.3427773  35.0757866  24.3046379
  29.3070641  35.0250282  24.6007347  27.8732948  34.9028435  23.0654087
  28.5324421  34.7183533  22.2300110  26.5194416  35.0077896  23.0737419
  26.0327568  35.1461525  22.1996174  26.0990086  35.1417770  24.3775539
  25.0569324  35.2027016  24.6546211  28.4310169  34.5751953  28.7855358
  28.3456879  35.6595840  29.2556057  28.6568336  33.5131683  29.6013832
  28.7728653  32.6012535  29.1830006  28.6514111  33.4889717  31.1189690
  27.7492085  33.9770966  31.4875698  28.6728230  32.0347404  31.5343266
  29.6686382  31.6289806  31.3559647  28.3336411  31.7937279  33.0585098
  27.5315342  32.4247932  33.4412384  28.0912628  30.7519989  33.2686462
  29.2395000  32.0565872  33.6047935  27.6676807  31.2809639  30.8664265
  26.8324280  31.6724663  31.1322784  29.9180012  34.1580696  31.7074356
  31.0041294  33.7572441  31.4204903  29.7014160  35.0806541  32.6205177
  28.7426414  35.3884125  32.6988754  30.6288147  35.7072945  33.5663986
  31.6272507  35.5914040  33.1447334  30.4901276  37.1976509  33.5825233
  30.7157192  37.6515427  32.6175461  29.4538651  37.4209213  33.8363152
  31.4333172  37.8597832  34.5795403  31.1127911  37.6714439  35.6041832
  32.4342918  37.4676361  34.3996124  31.5022469  39.3322716  34.2681885
  31.7282696  39.4925880  33.2140007  30.5139618  39.7917633  34.2520370
  32.4666405  40.1336594  35.1350327  33.4398384  39.6615715  35.0004272
  32.4698257  41.0999451  34.6306648  32.1136017  40.1976585  36.5322380
  31.1120510  40.3188782  36.5802002  32.3823814  39.3899727  37.0758400
  32.4124641  41.0511246  36.9821014  30.4735336  35.0499611  34.9922714
  29.3278103  34.8982353  35.4124718  31.6001682  34.7376747  35.6335030
  32.9686775  34.7156754  35.1603432  33.1480141  35.6764679  34.6778336
  32.9330444  33.9449120  34.3904381  33.8849297  34.3783607  36.3668480
  34.1377296  35.2307968  36.9973564  34.8435783  34.0213242  35.9905281
  33.0252190  33.3778458  37.1124344  33.1373215  33.4424553  38.1947250
  33.1134758  32.3608818  36.7302170  31.5917530  33.7749405  36.7512093
  31.0503922  32.9063416  36.3762856  30.8673458  34.2336769  37.9702492
  30.2730656  33.3863068  38.6411400  30.6963463  35.5212975  38.2460365
  31.0659428  36.1377716  37.5364876  29.9189034  35.9981537  39.4345779
  30.1744690  35.3753395  40.2918434  30.1935349  37.5326958  39.5758057
  29.8897896  38.0957298  38.6932907  29.5800362  37.9294205  40.3847122
  31.6216412  37.7893219  40.1354523  31.6119251  38.8354950  40.4412804
  31.7374229  37.0245361  40.9034348  32.7327309  37.6878967  39.1297569
  32.4649696  37.8269119  37.8564949  33.9307899  37.6183281  39.5612602
  28.5001450  35.8009834  39.2203140  27.7782993  35.6937447  40.2110901
  27.9572163  35.7214775  37.9855309  28.6388054  35.7397995  37.2404137
  26.5785465  35.2150459  37.7278862  25.8706741  35.8239594  38.2902451
  26.1997986  35.5054169  36.3031807  26.9559460  35.1085281  35.6258202
  25.2386646  35.0273209  36.1141129  25.9334202  37.0514832  35.9997368
  25.6585617  37.8460922  36.9059067  26.0304108  37.3497124  34.8024597
  26.3855267  33.7449493  38.1482773  25.2854214  33.3167496  38.3602066
  27.4431725  32.9253311  38.2439346  28.3724213  33.3190765  38.2044716
  27.4152355  31.4996719  38.6779327  26.5299625  30.9665298  38.3313026
  28.6313152  30.7614803  38.0552177  29.5585651  31.0197277  38.5667000
  28.5682869  29.2413044  38.1979523  28.4743862  28.9101143  39.2321663
  27.7472095  28.8290615  37.6114464  29.4543858  28.8031807  37.7386284
  28.8546124  31.1042233  36.5546913  29.7124043  30.5566769  36.1641922
  28.0300369  30.6633778  35.9944725  28.9639854  32.1875534  36.5045013
  27.3912888  31.3653660  40.2061119  28.3168030  31.7187080  40.8823242
  26.2828388  30.7980747  40.7169151  25.6965294  30.3672104  40.0164185
  26.0832748  30.3604393  42.1056709  26.2856922  31.2204685  42.7440109
  24.6648350  29.9825668  42.2202988  24.3770447  29.2223091  41.4941521
  24.3254070  29.4916134  43.6404228  25.1115398  28.9627361  44.1793022
  24.0685711  30.3609486  44.2457275  23.4199562  28.8854427  43.6688805
  23.6556473  31.0850792  41.8840981  22.6081467  30.8877411  42.1119080
  23.8503265  32.0951271  42.2446556  23.7177601  31.2446747  40.8076363
  26.9505081  29.1637764  42.4684715  27.7410564  29.2414532  43.4230690
  26.8754101  28.0319519  41.7051315  26.3323326  27.9233589  40.8605156
  27.6300526  26.8148956  42.1496811  28.5927429  27.2050915  42.4799423
  26.8078976  26.1887741  43.3013763  27.3279648  25.2777367  43.5974159
  26.8036938  26.7768784  44.2191048  25.2810707  25.9550838  43.0627670
  24.7938938  25.7457695  44.0151024  24.7436066  26.8330383  42.7043953
  25.1165428  24.6862755  42.2509117  25.3770790  23.5517445  42.5093384
  24.5673752  24.8474178  41.1098251  24.5100517  23.9683456  40.6158066
  24.1799984  25.7453461  40.8573189  27.8493900  25.8436852  40.9937935
  27.1456127  25.8760738  40.0204201  28.8475552  24.9436760  41.1999207
  29.3704472  24.9525261  42.0639839  29.1775742  23.9804420  40.1722298
  28.3280907  23.7379169  39.5337410  30.1671619  24.5731010  39.1465225
  29.8981953  25.4876595  38.6179924  31.1271572  24.8096809  39.6053696
  30.5200634  23.5495224  38.0081406  30.9281502  22.6411247  38.4512863
  29.5697803  23.3262138  37.5231743  31.7376080  24.2231407  36.8030128
  30.6250305  24.9249306  35.6020851  29.8491421  24.2104683  35.3270569
  30.1440449  25.7758160  36.0845299  31.1668262  25.2756081  34.7236862
  29.5910587  22.6031246  40.7491951  30.3527145  22.4711761  41.7120514
  29.0844936  21.4944172  40.0928726  28.6327343  21.7012959  39.2135468
  29.3142109  20.0988350  40.2650642  30.1342144  20.0763130  40.9828300
  27.9627666  19.5158272  40.9066696  27.0992126  19.9607010  40.4122429
  28.0002174  18.4496059  40.6833458  27.6580544  19.8140793  42.3331184
  27.5159874  20.8826065  42.4948845  26.3234196  19.1339626  42.6970406
  25.4984570  19.6209583  42.1770744  26.2543678  18.0928288  42.3818092
  26.0697594  19.1918468  43.7555351  28.6799736  19.2914639  43.3146286
  28.8808880  18.2430248  43.0943832  29.5899525  19.8845825  43.2238197
  28.2747421  19.4451160  44.3147659  29.7945080  19.4061298  39.0048714
  29.3114662  19.7367020  37.9200058  30.8169022  18.5806427  39.1467743
  31.3533287  18.5884056  40.0025139  31.3403625  17.8278255  37.9747314
  30.5459557  17.8108635  37.2285843  32.5946808  18.4195900  37.4341507
  33.4239845  18.2722988  38.1260071  32.9830170  17.8834267  36.5682259
  32.5804291  19.8625088  37.0538025  31.5661430  20.2493992  36.9556274
  33.1135216  20.7257938  38.2112122  32.4130783  20.5992184  39.0367203
  34.0746117  20.4461784  38.6427460  33.0794182  21.7819252  37.9437675
  33.5518761  20.1246357  35.8476028  34.5032234  19.6090698  35.9789085
  33.1277695  19.9126415  34.8661308  33.7126541  21.2022438  35.8794098
  31.6589336  16.3543816  38.2679367  31.8852119  15.9935665  39.3814964
  31.5782204  15.4541492  37.2924500  31.5447159  15.8491106  36.3634796
  31.6234436  13.9696045  37.3975220  31.9731236  13.6646385  38.3838387
  30.2637730  13.3891220  37.1662712  30.2239990  12.3218088  37.3838997
  29.6753769  13.9659462  37.8798332  29.6923256  13.4444847  35.9351349
  30.2206001  12.8297739  35.4206848  32.6302452  13.4165010  36.3678551
  32.9142303  14.1195860  35.3720665  33.1783104  12.2289429  36.6018372
  33.0211983  11.8389721  37.5201721  33.8036118  11.4552250  35.4960632
  33.4057236  11.6904583  34.5089188  35.2810707  11.7723198  35.4924812
  35.4836540  12.8220739  35.7047768  35.8800545  11.1496592  36.1570206
  35.6235771  11.4737501  34.5016975  33.5638428   9.9630909  35.7508163
  33.3449707   9.5112677  36.8854866  33.4369812   9.1575222  34.6964417
  33.7855415   9.4876394  33.8078308  32.8844986   7.7930160  34.8230515
  32.0245171   7.9274588  35.4791451  32.4178543   7.2790928  33.3905983
  32.3225098   6.1937327  33.4222603  31.1147022   7.7072072  32.8361435
  30.3340397   7.2207074  33.4209442  30.9746284   8.7735233  33.0134888
  31.1520844   7.4745812  31.7719135  33.4549751   7.5234580  32.4583168
  34.0306396   6.7570877  32.4045830  33.7230721   6.7559872  35.6169243
  34.8665237   7.0272970  35.8084717  33.2111664   5.6064444  36.0404015
  31.7595596   5.3179350  36.0419464  31.2363052   5.0101638  35.1366348
  31.1663647   6.1978145  36.2910080  31.6955814   4.2357273  37.1952248
  30.8534203   3.5804582  36.9727631  31.5054893   4.7028151  38.1615562
  32.9924507   3.5401819  37.1375542  32.9045258   2.8488667  36.2994308
  33.2655220   2.9965332  38.0419807  33.9716644   4.6659703  36.8626633
  34.2352524   5.2111053  37.7690010  35.3355255   4.1472034  36.2700157
  36.1285324   3.4843390  36.9657631  35.5198822   4.2524109  34.9757729
  34.9294777   4.8140826  34.3790779  36.7501717   3.8947921  34.2680817
  37.1297150   3.0692017  34.8701210  36.4358711   3.3893270  32.8335114
  37.3530388   3.1302633  32.3045616  35.9246635   2.4290054  32.9009514
  35.5775223   4.3161135  32.0018921  35.4525757   4.0093212  30.7684116
  34.9629135   5.2945514  32.5046997  37.7980232   5.0479450  34.2139130
  38.9291191   4.8303423  33.8200951  37.3887291   6.2547226  34.6112633
  36.3999863   6.3503366  34.7938728  38.2947769   7.3491893  34.9114380
  39.2076263   7.1437550  34.3523293  37.7467766   8.6282454  34.3890228
  36.8437500   8.8541136  34.9561386  38.4640732   9.4234085  34.5922508
  37.5106277   8.6390953  32.8833694  36.7792587   7.8890252  32.5823708
  36.9840927   9.9910612  32.4806404  35.9171715   9.9819193  32.7035828
  37.5590706  10.8299751  32.8727112  37.0232773  10.0701294  31.3942127
  38.8053627   8.3146515  32.1210556  39.0949364   7.2807245  32.3087730
  38.6524963   8.2538261  31.0435429  39.5951004   9.0186949  32.3832397
  38.5908813   7.3373880  36.4502487  37.7774467   6.9623756  37.3128815
  39.7931709   7.6462388  36.7832451  40.4399414   7.6664624  36.0077591
  40.3037148   7.6452389  38.1421509  39.5244827   8.1049423  38.7500687
  40.4971619   6.1672316  38.5820885  39.6062851   5.6157737  38.2815323
  41.2515678   5.6618938  37.9790916  40.7611237   5.9594998  40.0798569
  39.8707962   6.0146360  41.1899223  39.0627632   6.6197643  41.1582565
  40.4525261   5.5262179  42.3169861  40.0953102   5.5176973  43.3361664
  41.6355133   5.0203662  41.9524117  42.3368225   4.5504656  42.5069008
  41.8329926   5.3405485  40.5952225  42.6044769   4.9723845  39.9351730
  41.4378395   8.5919247  38.3749809  41.9774132   8.7780561  39.4326591
  41.8914261   9.3464298  37.3489418  41.7107658   9.0136156  36.4126205
  43.1658363  10.1031771  37.4648323  43.8915253   9.4365768  37.9307938
  43.7287827  10.4386835  36.0860329  43.7478027   9.4535131  35.6200104
  43.0985680  11.1986599  35.6241112  44.7542915  10.7602272  36.2678108
  43.0747337  11.3382597  38.4362793  43.9928856  11.5936298  39.1569939
  41.9552193  12.0902252  38.3074684  41.1618118  11.7879038  37.7604675
  41.9541512  13.4684429  38.7500000  42.6297150  13.5174789  39.6039963
  42.6320190  14.2796383  37.6087494  43.5412292  13.7361879  37.3516579
  41.7511559  14.4648199  36.3537178  41.4386711  13.5003977  35.9532776
  40.8141365  14.9655924  36.5972900  42.3927307  15.0125799  35.6634712
  43.0444221  15.6468639  38.0823364  43.6540222  16.2094116  37.3752136
  42.1849556  16.3014107  38.2271805  43.7567177  15.6064768  38.9064178
  40.6124611  14.0327797  39.1735802  39.6517830  13.6700621  38.6281815
  40.5557251  15.1087770  40.0590401  41.4148064  15.5076990  40.4096680
  39.3555870  15.9255733  40.2422562  38.5545120  15.1910019  40.1598244
  39.2466507  16.5644932  41.5797424  40.1996918  17.0730171  41.7254295
  38.4801140  17.3245983  41.7306099  38.9529419  15.5886889  42.7165680
  37.6515007  15.2028389  43.0502930  36.8722534  15.6318026  42.4377823
  37.4047585  14.5579691  44.3105011  36.4014778  14.4702492  44.7005615
  38.4740753  14.1638498  45.1182785  38.3259506  13.6913090  46.0780525
  39.7724609  14.5037861  44.6701317  40.6039124  14.2752523  45.3204117
  40.0441933  15.1512699  43.4446907  41.0473633  15.3858910  43.1206551
  39.1475754  16.8867111  39.0919151  39.9819679  17.7784653  39.0015106
  38.0844879  16.7383556  38.2860870  37.0779762  15.7339535  38.2547417
  36.3108788  15.9176865  39.0070076  37.5000343  14.7307081  38.3136597
  36.5092430  15.8467598  36.8486061  35.5068665  15.4372492  36.7235603
  37.1393585  15.3872023  36.0871162  36.5030327  17.3379021  36.6808853
  35.6808243  17.7023182  37.2967339  36.4248161  17.5735531  35.6195412
  37.8232727  17.7559795  37.2865181  38.6392136  17.7583351  36.5637856
  37.7400742  19.2318764  37.7228622  37.9989395  20.1595058  36.9598122
  37.4771652  19.3931675  39.0151978  37.2239914  18.6248550  39.6199303
  37.4736900  20.7007275  39.6843605  36.6204185  21.2800808  39.3316879
  37.3610764  20.4650612  41.2293320  37.2888527  21.3976669  41.7889061
  36.5177917  19.8219395  41.4810524  38.2736015  19.9599304  41.5459366
  38.7038689  21.6356659  39.4451828  38.5328751  22.8207169  39.1338043
  39.9302826  21.0624237  39.2460442  39.9002800  20.0628586  39.3877029
  41.1875229  21.5492325  38.7813797  41.5425453  22.2914886  39.4963036
  42.1619453  20.3718719  38.6478729  41.6148376  19.4744167  38.3591766
  42.8296318  20.4765301  37.7926903  42.8577576  20.0439529  39.9812126
  43.7383270  20.6529102  40.1858292  42.0343323  20.1473370  40.6878815
  43.4755554  18.6084843  40.0635147  42.6792946  17.8728027  39.9501953
  44.2489319  18.5585175  39.2970352  44.1268196  18.3536663  41.4220581
  44.6622353  17.4044304  41.4416161  44.9304886  19.0782299  41.5533104
  43.2408066  18.2116661  42.6275826  42.4723625  18.8665600  42.6009102
  42.9890060  17.2405834  42.7446175  43.7883415  18.3249817  43.4686890
  41.1438637  22.4551716  37.5148468  41.9797020  23.3591690  37.2817383
  40.1944580  22.2316399  36.5666809  39.6505890  21.4006596  36.7504730
  39.9282150  22.9101944  35.3373299  40.9367638  23.1008320  34.9704628
  39.1527023  22.0097580  34.4609642  38.1494102  21.8842907  34.8681068
  39.1514473  22.5196247  33.4975662  39.6862793  21.0639477  34.3670006
  39.2384949  24.2696362  35.3999634  39.2033997  25.0475273  34.4345512
  38.5106850  24.4124603  36.5268784  38.5456963  23.7319508  37.2723846
  37.5681419  25.5338764  36.6627426  37.1310501  25.7637424  35.6910362
  36.5344963  25.2194633  37.8038673  36.9309731  25.0632935  38.8071213
  35.7494278  26.5021114  37.9733887  36.2700272  27.3773746  38.3619499
  35.3559608  26.6622314  36.9695702  34.8599358  26.3896427  38.5932732
  35.6315422  24.0603046  37.4195709  35.1886864  24.1709042  36.4297485
  36.2806282  23.1847115  37.4083557  34.8336754  23.7681389  38.1023254
  38.4157333  26.8040829  36.9938698  38.3644905  27.7816734  36.2778206
  39.4029579  26.7533016  37.9353981  39.5939102  25.8407249  38.3237762
  40.2778587  27.8626652  38.1876945  39.7136459  28.7923050  38.2621002
  40.9762344  27.6317558  39.5550499  41.7299042  28.4158249  39.6279449
  40.2276802  27.7966919  40.3300171  41.6457748  26.2848759  39.6436234
  40.8592720  25.5335522  39.5727501  42.3833199  26.1389484  38.8544235
  42.3965149  26.1685410  40.9912758  43.3107452  26.7361755  40.8178520
  41.7811279  26.6345387  41.7608490  42.7969818  24.7891445  41.4663010
  43.7866020  24.5976944  41.4023170  41.9634323  23.7888451  41.6894035
  40.6702957  23.8623791  41.8157463  40.1547966  23.0237331  42.0416565
  40.0750771  24.6369343  41.5590782  42.4229927  22.5755253  41.9295197
  41.7817421  21.8723869  42.2678986  43.4139977  22.4710388  42.0941162
  41.2951393  28.1028690  37.1119843  41.9315681  29.1680527  37.1019478
  41.4135513  27.2712097  36.0911942  40.8977013  26.4051342  36.1537514
  42.2045746  27.4486713  34.8158569  43.1971397  27.8088303  35.0863991
  42.3986473  25.9732304  34.2907104  42.5020065  25.1934299  35.0452499
  41.5453835  25.6456718  33.6967888  43.7257462  26.0467358  33.4634628
  43.4117813  25.5554447  32.5425072  43.9561462  27.0913143  33.2540016
  44.8734169  25.3957558  34.2214012  45.6061897  24.6448421  33.5005341
  44.9792633  25.5166950  35.4383049  41.6172142  28.4740047  33.8320351
  42.2166214  28.7790260  32.8251152  40.4221916  28.9032040  34.0983925
  39.9075432  28.5291424  34.8828125  39.7313766  29.9756413  33.2908134
  40.3188858  30.2506351  32.4148521  38.3596420  29.3858318  32.7777557
  37.5938683  29.1577549  33.5191574  38.0309410  30.2517147  32.2030334
  38.3545113  28.2026634  31.8351803  38.7111588  27.3503456  32.4135017
  36.9510880  27.9289513  31.2301044  36.1423378  28.1384068  31.9302139
  36.7306328  28.6402969  30.4341850  36.8441696  26.9576817  30.7470856
  39.3562050  28.2750587  30.6547318  39.0579567  29.1858578  30.1355076
  40.3290939  28.3534794  31.1399536  39.3401680  27.3679352  30.0506039
  39.6738472  31.3626080  33.9296417  39.6450768  31.4641342  35.1447945
  39.6334763  32.4912415  33.1602707  39.6224136  32.3745804  32.1570892
  39.8138199  33.8874969  33.4849434  40.8326950  34.0728302  33.8250084
  39.6748810  34.6609192  32.2218971  40.3964462  34.2737808  31.5024757
  38.6245461  34.6548157  31.9305801  40.0629845  35.9275856  32.5061073
  40.0638733  36.3864059  31.6628494  38.7742767  34.4370422  34.5659866
  37.6947289  34.9040451  34.3030968  39.1758156  34.2938499  35.7969551
  40.0196152  33.7794724  36.0055695  38.4360962  34.9401321  36.9670143
  39.0933990  35.4266586  37.6876717  37.8189697  35.7581902  36.5954895
  37.4884720  33.9545631  37.6927414  36.6509933  34.3722572  38.5164795
  37.4964752  32.6787224  37.2809334  38.0533867  32.4908791  36.4595566
  36.6259651  31.5523319  37.6765518  35.6106453  31.9457550  37.7259598
  36.6342964  30.5883408  36.4820328  37.6121635  30.7122612  36.0167122
  36.5987892  29.5406322  36.7806168  35.7611504  30.9077663  35.3349380
  36.0850525  31.7661037  34.3803520  37.0243378  32.2913971  34.2897339
  35.0047340  31.9763966  33.5149689  34.9542160  32.5560722  32.6894226
  33.8981094  31.2273178  34.0213089  32.5690231  31.0895824  33.6556282
  32.1827393  31.6968231  32.8503685  31.7948971  30.1955528  34.3294563
  30.8186531  30.0871143  33.8804703  32.2375526  29.3523464  35.3960190
  31.6166592  28.6206455  35.8915062  33.5658531  29.5483494  35.8286171
  33.8830109  28.8663464  36.6036530  34.3798981  30.4658356  35.1076660
  37.0600586  30.8388996  39.0267029  36.3980217  29.8686218  39.4170074
  38.2067528  31.2333069  39.5847969  38.7531738  31.9250927  39.0918808
  38.8889809  30.5930519  40.7030449  38.9903793  29.5461159  40.4171410
  40.3044624  31.2125645  40.8046074  40.8131485  30.5621300  41.5161362
  40.8015366  31.0063667  39.8567123  40.4149399  32.6981697  41.2161446
  39.5351448  32.9893188  41.7899857  41.1673584  32.8342705  41.9929619
  40.6315155  33.6657600  40.1084900  40.2720490  33.3454704  38.9660110
  41.1761055  34.8263817  40.3888130  41.4080849  35.4059181  39.5948181
  41.7306824  35.0232697  41.2096519  38.1418800  30.5519867  41.9392052
  38.3092995  29.6799660  42.7763023  37.1174355  31.4117908  42.0774727
  36.8948555  32.0111389  41.2955894  36.4401817  31.5685749  43.3228874
  37.0847778  31.2786903  44.1526833  36.2202721  33.0219460  43.4858971
  35.5836563  33.3894997  42.6810837  35.6106262  33.1515732  44.3801155
  37.4526253  33.9440193  43.4936562  38.4284630  33.7612190  44.5383644
  38.3717461  32.9209175  45.2144394  39.4494438  34.7233925  44.6829872
  40.2914429  34.6030998  45.3485451  39.5839767  35.7154465  43.6631126
  40.6176300  36.4439735  43.6456757  41.0161819  36.4056816  44.5181961
  38.6726723  35.8394699  42.6229477  38.7484932  36.5952377  41.8551788
  37.5631294  35.0076561  42.5966606  36.7494736  35.1389275  41.8987045
  35.1646385  30.7165241  43.4108505  34.5680046  30.5258827  44.4571686
  34.5765305  30.3138962  42.2858505  35.0380249  30.5882244  41.4303589
  33.3212852  29.4811916  42.1744041  32.5220299  30.1401844  42.5135498
  33.0678139  28.9619923  40.7124138  33.9056358  28.3881054  40.3164253
  31.6705742  28.2701473  40.6558304  30.8192120  28.9230251  40.8482590
  31.4136944  28.0177937  39.6270332  31.6060715  27.3814182  41.2836075
  32.9162521  30.1179924  39.7419357  32.6075401  29.7806702  38.7524872
  32.2504997  30.9009552  40.1050377  33.8948822  30.5046940  39.4575920
  33.4370575  28.2150307  43.0960808  34.4708824  27.5217628  43.0185661
  32.4734879  28.0156193  44.0079193  31.1679688  28.7187881  44.0101471
  30.6694794  28.7613506  43.0417480  31.3496380  29.6570530  44.5343208
  30.3441505  27.9145222  45.0190811  29.6251812  27.2559490  44.5317764
  29.7617435  28.5947247  45.6405525  31.3662128  27.1569347  45.7833633
  31.0149517  26.2785778  46.3248444  31.7146740  27.8125324  46.5814018
  32.5334167  26.8458862  44.8389053  33.5142593  26.7805214  45.3098373
  32.1853790  25.5668297  44.0343475  31.1996098  25.5798817  43.3044815
  33.0623512  24.5384598  44.0903320  33.7278938  24.6391087  44.8433456
  33.0493813  23.3393917  43.2860413  31.9932957  23.1436024  43.1004257
  33.9311790  23.5433025  41.9615555  33.5740814  24.4563713  41.4852257
  35.4038734  23.6932392  42.3574028  35.9912148  23.9225731  41.4682846
  35.5097389  24.5563831  43.0145760  35.7894363  22.7949200  42.8395500
  33.8168411  22.3591900  41.0155373  32.7998009  21.9675140  40.9975853
  34.0349579  22.7039604  40.0047646  34.5311050  21.5884438  41.3051682
  33.4671707  22.0903034  44.1849785  34.1015091  22.2252674  45.2393837
  32.9146690  20.9216938  43.8736000  32.1660004  20.9222546  43.1956673
  33.0681534  19.5635204  44.5240974  34.0977707  19.3701992  44.8251266
  32.3611450  19.3521519  45.8780365  32.3925285  20.3417854  46.3338242
  30.9042282  18.9467506  45.9314423  30.5941315  18.8666306  46.9733238
  30.3565311  19.6660576  45.3225708  30.8850918  17.9646473  45.4589806
  33.1279488  18.6129208  46.8301888  32.9471664  17.6744995  46.7391701
  32.6558838  18.5240135  43.4185982  31.9696331  18.8755226  42.5028305
  33.1225471  17.2420177  43.4234657  33.7171021  17.0120544  44.2068672
  32.9398460  16.3052998  42.3484192  32.3565331  16.8165607  41.5826149
  34.2410088  15.9713182  41.6669388  34.9122543  15.3042870  42.2078629
  33.9361877  15.3883753  40.7978249  34.9791260  17.5226231  41.1467857
  35.7829323  17.8701801  42.1557426  32.0651665  15.0810356  42.7135162
  32.3941689  14.2881632  43.5976448  30.8891106  15.0090265  42.0001335
  30.8437862  15.5672836  41.1596603  29.8449078  13.9594345  42.2376289
  29.6727562  13.8326502  43.3064613  28.4818745  14.5485268  41.7929115
  27.5802555  13.9938660  42.0527878  28.4021320  15.4853754  42.3443260
  28.3893223  14.7480316  40.2656097  29.3074455  15.1669750  39.8537407
  28.4733238  13.7490892  39.8376350  26.9897385  15.5602036  39.6180153
  27.7197838  16.5750084  38.3251190  26.9856148  16.7594128  37.5408401
  28.0970516  17.5434361  38.6536217  28.4768848  15.9599781  37.8386650
  30.1709385  12.6490049  41.5665283  30.8027534  12.5647726  40.4652023
  29.9315720  11.5230684  42.3311157  29.6339302  11.6814499  43.2831764
  30.3568115  10.2012405  41.8651619  31.3296108  10.2445259  41.3753815
  30.3489265   9.2081556  43.0169754  30.9997025   9.5160656  43.8353806
  29.3634529   9.3082867  43.4718590  30.6862526   7.7144017  42.6517715
  30.8145676   7.2246604  43.6170616  29.9148273   7.2202935  42.0611229
  32.0036201   7.5754361  41.9443855  33.0373306   7.8525562  42.4850235
  32.1261597   7.1724286  40.6757088  31.3408718   6.8499713  40.1284943
  33.0305138   7.3197827  40.2508202  29.3392334   9.7316303  40.8207397
  28.1999989   9.6892691  41.1357117  29.8265057   9.3226614  39.6313629
  30.8089561   9.5098896  39.4904938  29.0176296   8.7442818  38.5670967
  28.1081562   9.3200283  38.3954124  29.8181477   8.8104153  37.2312698
  30.2868271   9.7944689  37.2225723  30.5275841   7.9839168  37.2724876
  29.0063324   8.5934629  35.9486923  29.6772709   8.1307249  35.2249413
  28.1852322   7.9111090  36.1684341  28.3834591   9.8978395  35.3330688
  28.9006348  10.3590317  34.3006363  27.3973942  10.4302750  35.8532486
  28.6367283   7.2878203  38.8990746  29.4745750   6.5107455  39.3540344
  27.4333782   6.8098907  38.5862274  26.8128681   7.4620924  38.1282997
  26.9976673   5.4541554  38.7427940  27.7010231   4.9908953  39.4347382
  25.5844631   5.4811239  39.2154617  25.2491589   4.4530501  39.3523407
  25.6373959   6.0632448  40.1354828  24.4950638   5.8751950  38.1356506
  24.5679741   6.9458942  37.9448967  24.7806301   5.2818928  37.2670021
  22.8018589   5.6309114  38.5128479  22.6016102   3.8923397  38.1020546
  23.0767403   3.2872908  38.8742447  21.5444050   3.6401887  38.1847305
  22.9767990   3.7026551  37.0963974  27.1002388   4.6026692  37.4191513
  27.0552788   5.0477819  36.2213974  27.3748226   3.3268008  37.5939217
  27.4187756   2.9280231  38.5208206  27.6253147   2.3635921  36.4465141
  28.1856842   2.9586391  35.7253990  28.5029564   1.2543777  36.9113083
  29.2999496   1.6068029  37.5660591  27.9607716   0.5400926  37.5309296
  29.1270847   0.3356443  35.8347435  28.6553974   0.3373768  34.7051506
  30.0707855  -0.4431201  36.1407738  26.3064938   1.9123453  35.8412819
  25.5248070   1.4978656  36.6559029  26.1325607   1.8694631  34.5227432
  26.9526100   2.0059650  33.9491730  24.9627495   1.3123848  33.8394966
  24.3298149   0.7566586  34.5313530  24.0724411   2.4550748  33.2038231
  24.7766647   3.0967643  32.6742935  23.1684036   1.8996547  32.0975227
  22.5092430   1.1316226  32.5021629  22.5215092   2.6541500  31.6499004
  23.8619289   1.5854781  31.3175087  23.3128815   3.2185514  34.3692932
  22.6869774   4.0145903  33.9659691  22.5789223   2.5616517  34.8360825
  24.0655270   3.4884696  35.1100883  25.5917778   0.4336737  32.7366600
  26.4941597   0.8287686  32.0143089  25.0550995  -0.7803019  32.5484390
  24.2381020  -0.9669123  33.1121712  25.4782982  -1.6512105  31.4470005
  26.4851646  -1.9616977  31.7261372  24.5760765  -2.9205177  31.3831596
  24.7671814  -3.4411876  30.4448204  24.8660469  -3.9955537  32.5056610
  24.8474751  -3.4700899  33.4604645  23.9942493  -4.6337514  32.3615189
  25.7733765  -4.5589786  32.2879333  23.1364326  -2.5354490  31.4879417
  22.9485588  -2.2574508  32.3873978  25.5110817  -1.0867895  30.0677567
  24.5123634  -0.4958967  29.6318111  26.5580254  -1.4011312  29.2382450
  27.1482735  -2.1798723  29.4937229  26.7457218  -0.8506420  27.9339314
  27.7098656  -1.2907327  27.6792755  25.9602184  -1.2735239  27.3076286
  26.8593369   0.7190825  27.7871437  27.0698528   1.2456478  26.7228851
  26.7111435   1.3985040  28.9157410  26.3601398   0.8591209  29.6941776
  26.6427460   2.8902960  29.0886497  25.8894901   3.3158431  28.4256134
  26.4862785   3.1942663  30.1236477  27.9854012   3.4707119  28.6692085
  29.0077324   2.8550303  28.7526493  28.0370979   4.7773161  28.3067398
  27.2064209   5.3326454  28.4540119  29.1178761   5.4728456  27.6324921
  29.2779541   4.9667215  26.6804867  28.5956478   6.9059105  27.3489285
  27.6348972   6.7895865  26.8473969  28.4204102   7.4690166  28.2656097
  29.5796909   7.7233734  26.3544502  30.4646893   8.0115614  26.9217453
  29.8916912   7.0006137  24.9943428  28.9688873   6.9646120  24.4153442
  30.6316757   7.6004901  24.4645576  30.2065296   5.9587564  25.0536022
  28.8946800   9.1164179  26.1367855  28.6970139   9.6461906  27.0686493
  29.5614643   9.7568073  25.5593758  27.9516296   9.0410328  25.5954266
  30.3271866   5.4312997  28.5375977  30.3298950   5.9763942  29.6476707
  31.3471317   4.7228589  28.0211391  31.2162704   4.4749660  27.0508118
  32.6561966   4.7412696  28.5739117  32.5971260   4.6114030  29.6545334
  33.4588394   3.5802824  27.9938335  33.4751625   3.7359183  26.9151249
  34.4941063   3.7498856  28.2897415  32.8784561   2.1831508  28.1435223
  32.0711937   2.1077895  27.4149990  33.6833839   1.5223901  27.8216724
  32.4486618   1.9483801  29.5624027  33.3388519   1.9511963  30.1914139
  31.6100674   2.6009500  29.8053322  31.9647522   0.5469936  29.8391800
  32.4481277  -0.1406825  29.1452408  32.3599434   0.2785755  30.8189144
  30.4956684   0.4642828  29.8136597  30.2622299   0.2454759  28.8556767
  30.1360397  -0.2320386  30.4507675  30.2091656   1.3885133  30.1031666
  33.4263191   6.0423608  28.4238777  33.1572914   6.7809391  27.4792404
  34.4116478   6.3104582  29.3123226  34.3332748   5.7587991  30.1547184
  35.3649292   7.4547911  29.4711990  35.5651894   7.4225078  30.5421600
  36.6736107   7.3366065  28.7861557  36.4216080   7.6430707  27.7709351
  37.4414864   7.8820891  29.3347225  37.2191353   5.9491181  28.6830158
  37.5096817   5.6156387  29.6792450  36.5875168   5.2159352  28.1814117
  38.5393257   5.9502263  27.8632030  38.2677650   6.4894533  26.9556847
  39.2834663   6.5639496  28.3708439  39.2061806   4.5840397  27.5673332
  39.9668007   4.7481427  26.8040333  39.7052574   4.2752786  28.4858589
  38.3383942   3.6291294  26.9145031  38.9327888   2.8438292  26.6906757
  37.6532097   3.3899150  27.6169300  37.8966026   3.9765470  26.0753212
  34.6653061   8.8456354  29.2678833  35.1746597   9.7102566  28.5513783
  33.6327477   9.1961508  30.0544930  33.2950897   8.5962267  30.7935314
  32.9731903  10.5308352  29.9289494  33.4550209  11.0176077  29.0810165
  31.5089779  10.1939344  29.5795898  31.5181522   9.7334127  28.5916939
  31.2174931   9.5046549  30.3720722  30.3983097  11.6474142  29.5169430
  31.3262005  12.4352617  28.9662971  33.0967407  11.4018135  31.1928520
  32.9347458  10.8727331  32.3551865  33.1764717  12.6830845  30.9726791
  33.3135033  12.9582815  30.0106049  33.2804489  13.7837410  31.9463120
  33.2107277  13.3011847  32.9211845  34.5828514  14.5591555  31.8501167
  34.6555977  15.1238441  30.9206352  34.6448059  15.5743876  33.0083046
  35.4076004  15.3076162  33.7397919  34.9161415  16.5582466  32.6255493
  33.6494675  15.7084389  33.4318924  35.8290558  13.6124725  31.8176441
  36.6447639  13.7957153  32.5170288  35.4889679  12.5816956  31.9173889
  36.4832535  13.6536036  30.4425945  37.4054375  13.1025829  30.6271667
  35.7666435  13.3167391  29.6935329  36.8162613  14.6625462  30.1991959
  32.0009422  14.6369247  31.7159100  31.6076946  14.9248610  30.5715408
  31.3834648  15.0354900  32.8539886  31.7390995  14.7301979  33.7486534
  30.1145802  15.7894945  32.8718033  29.9896011  16.3278046  31.9322739
  28.8747902  14.8988914  32.9856529  28.7949524  14.4887199  33.9923744
  27.9819336  15.5040741  32.8286095  28.7419910  13.7947531  31.9381428
  29.1006432  14.1533623  30.9733276  29.4702759  13.0236263  32.1892662
  27.4715710  13.0921106  31.7544136  26.6691284  13.7024002  31.3400078
  27.7215481  12.3917360  30.9574890  26.9720173  12.3943024  32.9506111
  27.6199245  11.9031477  33.5498428  25.6510258  12.3760681  33.2744408
  24.6475487  12.9603796  32.6363754  23.7186165  12.6842194  32.9208527
  24.7987328  13.3652391  31.7235050  25.3855724  11.7231178  34.4049644
  24.4781036  11.9140453  34.8051529  26.0551147  11.2210770  34.9704437
  30.1517410  16.9019585  33.9381752  30.8517857  16.9262104  34.9684029
  29.3448944  17.9453182  33.6756630  28.7852974  18.0462303  32.8409348
  29.2404976  19.1705971  34.4906693  29.6045284  18.9561386  35.4954529
  30.1966553  20.2471180  33.8947639  31.2321453  19.9126701  33.8314514
  29.7115421  20.7727165  32.5114746  30.4251328  21.5174961  32.1590538
  29.8356361  20.0314503  31.7220230  28.7059078  21.1818638  32.6084251
  30.1376419  21.4584618  34.7623444  30.8164120  22.2073364  34.3542442
  29.1411419  21.8994160  34.7878990  30.3335991  21.3378391  35.8277817
  27.7685318  19.7320747  34.6524963  26.9303017  19.4358692  33.8569183
  27.4309444  20.3510113  35.8362885  28.1466522  20.2572498  36.5427361
  26.1331215  20.8477650  36.3054810  25.5329494  21.1950378  35.4644737
  25.3965073  19.6766148  37.0776520  25.3523884  18.7532902  36.5000496
  25.9514217  19.3605843  37.9609947  24.0458870  19.9406586  37.7249336
  23.7078209  19.0498543  38.2543488  24.0791702  20.7836876  38.4150772
  22.5794582  20.2663250  36.6641884  22.5387115  22.0433273  36.3765564
  21.8195362  22.1319160  35.5622864  22.2858772  22.5227203  37.3222618
  23.5066853  22.3747692  36.0006943  26.3221798  22.1033478  37.1355324
  27.0770702  22.0669441  38.0825005  25.7454166  23.2645531  36.7758751
  25.2840729  23.3525715  35.8817177  25.8847103  24.5349960  37.5206299
  26.0888424  24.3078156  38.5669670  26.9542217  25.4140625  36.9157677
  27.1892109  26.1983700  37.6353111  27.8865471  24.8526974  36.8545685
  26.6815262  26.0475674  35.5225677  26.7072716  25.1656513  34.8825188
  25.7138042  26.5417938  35.4367447  27.9709854  27.1993523  35.0390320
  27.5067940  27.7910404  33.3840179  26.5553226  28.3199024  33.3282700
  28.2391396  28.5854664  33.2402840  27.5261688  27.0912228  32.5485611
  24.6238327  25.3737717  37.4466705  23.6982899  25.2326641  36.5856781
  24.5481148  26.3487186  38.2907333  25.2119713  26.4358749  39.0469055
  23.4130230  27.3752327  38.2109871  22.8531265  27.2600021  37.2829018
  22.4612942  27.1874619  39.4449844  21.6423664  27.8978119  39.3315582
  21.8037128  25.8109741  39.3780098  21.0316830  25.7888870  40.1471558
  21.4128685  25.5048294  38.4076424  22.5085564  25.0014229  39.5675354
  22.9105644  27.2995720  40.7783203  22.2301178  26.8599548  41.2934189
  23.8998165  28.8164616  38.0730782  24.9225769  29.1998177  38.6251106
  23.1182613  29.6326523  37.3545074  22.2927132  29.2569180  36.9102173
  23.5507774  30.9667244  36.8347092  24.3714638  31.3541470  37.4384308
  24.1077957  30.9154930  35.4427795  23.3256874  30.8018360  34.6921196
  24.7833481  32.1878014  35.0078049  24.0311069  32.9736176  35.0766144
  25.6187210  32.4026985  35.6741905  25.1922550  32.0399055  34.0082932
  25.1085052  29.7815666  35.1020241  24.4287720  28.9301205  35.0687790
  25.3601685  29.9005680  34.0481720  25.9770737  29.6681461  35.7507362
  22.3842640  31.8845730  36.9187660  21.2427959  31.6072979  36.5249100
  22.7121754  33.1137238  37.3166733  23.6151867  33.2006264  37.7606583
  21.9306316  34.3257141  36.9654312  20.9239349  34.0358429  37.2664909
  22.2916698  35.4460640  37.9506721  21.9540806  35.2622375  38.9706459
  23.3773136  35.5146599  38.0197716  21.6324959  36.7799416  37.6196060
  22.0228577  37.1114120  36.6573944  20.5748558  36.5197411  37.5772552
  21.8852196  37.8356361  38.7122459  21.0331306  38.2908363  39.3919754
  23.1229706  38.1865578  38.9642372  23.3613491  38.9179840  39.6186790
  23.8885765  37.8242836  38.4140511  21.8104267  34.5759201  35.4243660
  22.8214283  34.9140320  34.8342705  20.6844025  34.2955284  34.7267532
  19.9765530  33.9533157  35.3607407  20.6313972  34.4026031  33.2938576
  21.1696739  35.2312584  32.8337593  21.1538239  33.1688576  32.5622940
  22.2063713  33.0301704  32.8092995  20.4962540  31.7920818  32.7867737
  21.0936565  30.9660568  32.4009056  20.4542294  31.8422565  33.8748093
  19.4501781  31.7999229  32.4805603  20.9981251  33.3299408  31.1475658
  21.4336109  34.1235352  30.8279400  19.1818905  34.6780052  32.8149071
  18.2411289  34.1739044  33.3506241  19.0028801  35.5716629  31.8770275
  19.8405590  35.9852753  31.4932022  17.8049679  35.9741020  31.1445312
  16.8675995  35.8716202  31.6912842  17.9305878  37.4258003  30.6792641
  16.9818783  37.5929680  30.1692581  17.8925190  38.2325478  31.4112549
  19.1256905  37.7637863  29.8259354  19.0613575  38.9312515  29.3948631
  20.0684261  36.9707603  29.6103249  17.4835072  35.0743294  29.9031029
  16.4305134  35.1876755  29.3065052  18.3353596  34.1493988  29.5658016
  19.1367321  34.0335617  30.1695271  17.9237289  33.0633545  28.5983009
  17.5665646  33.5853348  27.7105675  19.1581688  32.2511253  28.0843258
  19.6367569  31.7096996  28.9003601  18.6345634  31.1140842  27.0289764
  19.4754333  30.6286869  26.5335579  18.0334015  30.3784885  27.5633965
  17.9634190  31.5313148  26.2782555  20.1659527  33.0390511  27.3386192
  19.6202774  33.5515404  26.5463524  20.7350502  33.7910271  27.8852081
  20.8311138  32.3091087  26.8772583  16.8733025  32.1841660  29.2792568
  16.9070606  31.8447819  30.4081707  15.7797537  31.8113880  28.5020370
  15.3536434  32.4003944  27.2372284  15.9066935  32.1299171  26.3377419
  15.2189035  33.4746513  27.3634109  13.8872957  31.9281750  26.9155140
  13.9694424  31.0503349  26.2746162  13.2907314  32.6856117  26.4070835
  13.3943539  31.5695190  28.3364811  12.6339836  30.7886467  28.3498058
  13.0324059  32.4301109  28.8990402  14.6743994  31.0159721  29.0389729
  14.5650377  31.2330189  30.1015301  14.8793669  29.4496365  28.8628235
  15.8070631  28.9912872  28.1874142  14.0269661  28.6878777  29.4823608
  13.2063980  29.1513367  29.8456421  14.4300013  27.3462181  29.9328327
  15.3928366  27.2760258  30.4389191  13.3403997  26.7114830  30.8181667
  13.0975208  27.4340839  31.5972443  12.4293032  26.6167526  30.2273788
  13.7397251  25.3169289  31.2729359  13.8174973  24.6608524  30.4059772
  14.7176399  25.4034481  31.7465363  12.6584215  24.7136765  32.2107010
  11.5861254  24.2658501  31.8033848  12.7847462  24.7160530  33.5031853
  13.5933380  25.1819096  33.8895264  11.9842834  24.4335995  34.0505219
  14.6930189  26.4582291  28.7318439  15.6185646  25.5976715  28.6349125
  13.8223667  26.6602058  27.7253475  12.9974689  27.2115860  27.9140873
  13.7209492  25.8017750  26.5033054  14.0580349  24.7839870  26.6997242
  12.2259979  25.8777504  26.0445518  12.0028105  25.2674370  25.1694489
  11.6671200  25.5650940  26.9265957  11.8329220  27.2842197  25.6318684
  11.9214907  28.2793102  26.4282722  11.5134850  27.4921551  24.4159222
  14.6747570  26.3554840  25.4183006  14.8766451  25.6718826  24.4414158
  15.3571844  27.4963455  25.6133919  15.2674417  27.9504356  26.5110817
  16.3997307  27.9745731  24.7054253  16.3925896  27.3882847  23.7865601
  16.0614510  29.4074707  24.3342628  16.0639668  29.9928017  25.2537632
  16.8540077  29.8938713  23.7656078  14.7427158  29.5886230  23.6731415
  13.9822130  29.2583847  24.3807297  14.5957975  30.6473026  23.4593430
  14.5464468  28.7878895  22.4657288  15.3877926  28.6828194  21.5696068
  13.4699469  28.1062298  22.3193798  12.7501469  28.1257229  23.0276241
  13.2988396  27.5894508  21.4686394  17.8839951  27.7678890  25.1152496
  18.7076530  27.7159424  24.2555523  18.2135925  27.7122078  26.4692745
  17.4215469  27.7485008  27.0949326  19.5525284  27.4159107  27.0840168
  20.0152454  28.3909931  26.9316387  19.5070534  27.0914364  28.5669804
  18.8292599  26.2404289  28.6339073  20.8507233  26.7153759  29.2036362
  20.7392006  26.4250126  30.2483139  21.3811455  25.9403896  28.6503258
  21.4416866  27.6289101  29.2693481  18.9147644  28.2449894  29.4617424
  19.6920719  28.9982643  29.5901260  18.1328354  28.6615086  28.8267612
  18.2149811  27.9066486  30.8209858  17.5586624  27.0389919  30.7537861
  19.0809593  27.7019234  31.4504833  17.5639114  28.6960907  31.1964741
  20.2922974  26.3278904  26.3142223  19.7780647  25.2338867  26.2047634
  21.5347137  26.6661148  25.8303509  21.8648682  27.5908928  26.0667534
  22.5198536  25.8064823  25.1787853  21.9429798  25.0826073  24.6031799
  23.2499809  26.6263866  24.0368576  23.6880054  27.5278473  24.4653511
  24.0172997  25.9963398  23.5870094  22.4308147  27.1555595  22.8122063
  21.9713917  26.3110981  22.2984753  21.6372681  27.8525200  23.0817089
  23.4021740  27.7444000  21.7819118  24.0204010  28.4194069  22.3737411
  24.0641518  27.0142250  21.3163700  22.7915211  28.6218185  20.8623276
  21.8320103  28.8910084  21.0265942  23.3673859  29.0093193  19.7262325
  24.5536900  28.6886501  19.4790020  24.8334713  28.9421787  18.5422230
  25.1205616  28.2823181  20.2095165  22.7261009  29.7507629  18.8048515
  21.7632160  29.9210472  19.0577507  23.1082020  29.8502789  17.8752308
  23.4418545  25.0947208  26.1754627  24.6201572  25.4375515  26.3817310
  22.9411850  24.0662670  26.7875862  21.9652748  23.8452759  26.6502514
  23.7357426  22.9583130  27.2980099  24.4091396  23.3659458  28.0519791
  22.8578396  21.8442993  27.8134594  22.5033607  21.2604351  26.9640217
  23.5864105  21.1541691  28.2389069  21.7724648  22.3527298  28.6929340
  21.8348255  22.9168358  29.9873886  20.6249676  23.3501854  30.3113213
  20.2603168  23.6783714  31.2734661  19.7840424  23.1881218  29.3326130
  18.8108521  23.4582767  29.3285370  20.4658089  22.6682053  28.1985435
  20.0285778  22.4055099  27.2465858  24.6244640  22.3811073  26.0991096
  24.2002754  22.2894001  24.8990364  25.8334236  22.0346203  26.4420815
  26.1129379  21.9799652  27.4110928  26.8762951  21.6672058  25.4467735
  26.5623379  21.9152241  24.4328613  28.1189098  22.6328144  25.7084427
  28.3341064  22.6981068  26.7749920  29.3633175  22.2765522  24.8576870
  29.0944309  22.4628201  23.8179226  30.1824303  22.9500637  25.1097546
  29.7597675  21.2712955  25.0004559  27.7590828  24.0819721  25.3649120
  28.6196499  24.7507973  25.3789425  27.4184093  24.1603928  24.3324928
  26.9466820  24.4075146  26.0146198  27.1775856  20.1515293  25.4494133
  27.3656750  19.5656185  26.4840736  27.3868504  19.5969524  24.2263775
  27.3293591  20.2042961  23.4214382  27.8716183  18.2048512  23.9983349
  28.2562771  17.7252235  24.8983879  26.7088318  17.3592777  23.4648209
  26.4707832  17.7141495  22.4620743  27.2097416  16.3949432  23.3796577
  25.4859619  17.2354946  24.4445667  25.4839821  16.1780720  25.3552494
  26.2336807  15.4006882  25.3503494  24.4222374  16.1450081  26.3089542
  24.3261547  15.3637848  27.0484524  23.4323349  17.1539764  26.2757492
  22.3702984  17.1044998  27.0563984  22.3177490  16.2433529  27.4774284
  23.4643803  18.1831474  25.3232479  22.6448269  18.8817368  25.2413654
  24.5068493  18.2841702  24.4045525  24.5610313  19.1042500  23.7038860
  29.0696564  18.2008495  23.0817757  29.1653633  18.8963680  22.0772247
  30.1603088  17.4972477  23.4350643  30.1317196  16.9077015  24.2546482
  31.4219475  17.4583588  22.6495686  31.2798843  17.6454201  21.5851746
  32.4675980  18.4456234  23.2482338  32.5725060  18.3544922  24.3293400
  33.4170227  18.1996021  22.7726650  32.2245064  19.9277458  22.9313469
  31.2322063  20.2527962  23.2440586  33.2362976  20.7360077  23.7396736
  34.3045425  20.5592136  23.6143761  32.9655800  21.7875175  23.6440868
  32.9685097  20.5283489  24.7756596  32.3481712  20.3104916  21.5307503
  32.0834198  21.3637886  21.4381886  33.3687630  20.2147217  21.1601887
  31.6627769  19.7051811  20.9375095  32.1049881  16.0985909  22.6686096
  31.6920242  15.1779661  23.4149246  33.0945587  15.8454351  21.7809601
  33.3243866  16.4811039  21.0304909  33.7512970  14.5849342  21.6515980
  34.3095284  14.6663523  20.7189388  34.7632599  14.3616676  22.7563648
  34.2018127  13.9403143  23.5902348  35.3873215  13.5438938  22.3959446
  35.6696167  15.6253090  23.1348400  35.0095711  16.4893265  23.2117596
  36.0491714  15.4174356  24.1352520  36.7681580  15.9301205  22.0851650
  37.3761749  14.9075823  21.6554909  37.1678658  17.1261845  21.8621902
  32.7304497  13.4177504  21.2666569  31.7935791  13.7060919  20.4687157
  32.8780937  12.1775370  21.8334141  33.6113739  12.0985508  22.5234604
  31.9212399  11.0817814  21.6417427  31.6343460  10.9702606  20.5961056
  32.5867882   9.7655706  22.0607319  33.0272598   9.9597330  23.0386829
  31.8499107   8.9697895  21.9518967  33.6519051   9.3381214  21.0390968
  33.0676231   8.9529972  20.2033958  34.2711296  10.1862478  20.7469597
  34.5607147   8.2406845  21.5109730  34.9643669   8.5943222  22.4597149
  33.9345741   7.3944488  21.7936954  35.6804619   8.0036192  20.4456482
  35.1984787   7.7051358  19.5146809  36.2483292   8.9218102  20.2954407
  36.6654625   6.9935493  20.8904285  37.3495407   7.4429345  21.4822063
  36.2797165   6.2549171  21.4611511  37.1215248   6.5241189  20.1211796
  30.6514702  11.3738298  22.3657875  29.6591549  10.6889229  22.2033997
  30.5473042  12.3829126  23.2887268  31.2804585  13.0751333  23.2302952
  29.3218327  12.5577526  24.0474529  29.0277443  11.5635195  24.3837738
  29.6564159  13.4315796  25.2009315  30.6039505  13.3192053  25.7278557
  29.5764961  14.4503479  24.8216858  28.9014339  13.1536598  25.9363651
  28.0998516  13.1491480  23.2644997  26.9880180  13.0643539  23.7912712
  28.2506847  13.5612326  21.9495449  29.1770153  13.7495146  21.5937901
  27.2143974  13.9751072  21.0831680  26.7674274  14.8217440  21.6042480
  27.7242622  14.5107098  19.7162170  28.2358532  13.6497688  19.2859211
  26.6866932  14.9796438  18.6919022  26.3219471  15.9952097  18.8457985
  27.1845455  14.9595995  17.7224483  25.7859344  14.3659916  18.6794014
  28.6713772  15.6850719  20.0138988  28.1755867  16.5242252  20.5018787
  29.3802910  15.3128633  20.7534943  29.2270164  15.9738655  19.1217308
  26.0594902  13.0293484  20.9060421  24.9715309  13.4697676  20.6820583
  26.2442703  11.7367859  21.3218670  27.1601715  11.3143568  21.3745842
  25.1720161  10.7192898  21.4267101  24.5316849  10.6266260  20.5495052
  25.8301277   9.3472576  21.7880878  25.0550804   8.5811214  21.8090534
  26.8548069   9.0066700  20.7048111  26.4914799   8.7827826  19.7018318
  27.6728497   9.7199059  20.6038132  27.3377132   8.0651693  20.9665051
  26.5504265   9.3387537  23.1792183  25.8902664   9.4277000  24.0419941
  26.9660912   8.3430586  23.3338661  27.3644066  10.0516357  23.3108807
  24.1187897  11.0175066  22.5002251  22.9457626  10.6161156  22.3401241
  24.3892555  11.7963886  23.5188541  25.3493519  12.0844383  23.6427135
  23.4435387  12.3365641  24.5341129  22.6457691  11.6166353  24.7167816
  24.3639145  12.5320845  25.7543697  24.8890438  13.4741192  25.5965347
  23.7402897  12.8189917  26.6010532  25.2801514  11.3701439  26.1942348
  26.0487499  11.1080275  25.4671497  25.9997196  11.6740112  27.5709229
  26.7936745  12.4102440  27.4456081  25.3014965  12.2015114  28.2207909
  26.4254284  10.7733068  28.0131931  24.5355930  10.1692429  26.4671021
  24.9693890   9.3363047  27.0203934  23.5877476  10.3760424  26.9640141
  24.2308197   9.7562103  25.5055313  22.7764378  13.6432304  24.0692902
  21.9238262  14.1705885  24.8189297  23.2348042  14.3112125  22.9969444
  23.8411636  13.8292866  22.3487339  22.6045265  15.5723534  22.5562038
  22.7570629  16.3027534  23.3507805  23.4189072  16.0558853  21.3688259
  24.4949875  15.9824305  21.5261688  23.3717899  15.4734898  20.4486656
  23.1976299  17.5469398  21.0179310  22.1585693  17.6894054  20.7210197
  23.5246773  18.0763874  21.9128189  23.9340515  18.1555882  19.7464657
  24.2282619  19.1325397  20.1300163  24.7977943  17.5896320  19.3975468
  23.0375214  18.4306507  18.5860310  22.0764332  18.1215992  18.6159649
  23.3045807  18.9090576  17.3887138  24.4577885  19.3256531  17.0572262
  25.0766182  19.6237640  17.7976875  24.6103382  19.7443066  16.1508293
  22.3320141  19.0563946  16.4467716  21.5261688  18.4843063  16.6551647
  22.6737041  19.3200569  15.5336237  21.1819115  15.1904144  22.1618919
  20.9700356  14.2929659  21.2950363  20.1390800  15.7944098  22.8183575
  20.2848949  16.7830524  23.8564625  20.6038284  17.6822815  23.3294220
  20.9649277  16.5507317  24.6760235  18.7970791  17.0453644  24.4413948
  18.2837105  17.8602333  23.9309597  18.9297657  17.1068535  25.5215397
  18.1313438  15.7227755  23.9450989  17.0856419  15.9279022  23.7159042
  18.1619892  14.9931040  24.7542610  18.8325863  15.2845259  22.6649990
  18.7698956  14.2207794  22.4356098  18.0728283  15.9863462  21.4585361
  17.2044563  15.3214884  20.8477154  18.3837032  17.2009106  21.1299648
  19.1553097  17.5954990  21.6486416  17.7712727  18.0313549  20.0379715
  18.1148224  19.0591927  20.1546745  18.2346039  17.6226044  18.5888557
  18.2206402  16.5336323  18.5436420  17.5929337  18.0584354  17.8230820
  19.6361103  17.9761238  18.1809368  20.3162575  18.7006950  18.9430676
  20.1760902  17.5384121  17.1420574  16.3180199  17.9771233  20.3105106
  15.5289764  17.3589592  19.5685196  15.8849201  18.5702171  21.4859028
  16.5560265  19.1211681  22.0018177  14.4615879  18.7530804  21.7727547
  13.9469013  17.8110657  21.5835094  14.2809696  19.0524750  23.2400742
  14.6570988  20.0677109  23.3662720  13.2135620  19.0951462  23.4566994
  14.9193792  17.9665985  24.1755142  15.9854631  18.0513802  23.9648552
  14.6385307  18.4002686  25.6589127  15.0558939  17.7230663  26.4040947
  15.0563784  19.4019985  25.7591171  13.5580244  18.4309101  25.7991486
  14.4633398  16.5057182  24.0185089  14.7731848  16.1412163  23.0390987
  13.3742762  16.4825859  24.0573177  14.9128056  15.8393974  24.7547817
  13.7502661  19.8457565  20.9496288  14.4299536  20.8291836  20.5518780
  12.4556084  19.6818523  20.6265812  11.9161825  18.9439468  21.0562515
  11.5067501  20.7334728  20.1524353  11.8811646  21.6488552  20.6106930
  11.4075890  20.7667084  18.6383057  10.6980629  21.5631638  18.4139614
  12.3294621  21.1615067  18.2112427  11.0625286  19.4247704  18.2508392
  11.5111971  19.3175182  17.4089413  10.1433764  20.3994465  20.6877155
  10.0014925  19.3326492  21.3012753   9.1524715  21.2529907  20.4958076
   9.3558645  22.0482140  19.9072952   7.7458892  20.9498043  20.8674011
   7.7669458  20.7638073  21.9412079   6.8493309  22.0927792  20.5562744
   7.0078907  22.2867088  19.4954491   5.8913822  21.5887203  20.6842060
   6.9198971  23.2637405  21.5234165   7.9483075  23.6243515  21.5441837
   5.9771128  24.3241386  20.9364395   6.0954623  25.3123627  21.3808517
   4.9669991  23.9393349  21.0767841   6.2755084  24.5555401  19.9139328
   6.4169226  23.0343342  22.9308777   6.4260383  24.0183601  23.3996048
   5.4873633  22.4685364  22.9932690   7.1305461  22.5182552  23.5731468
   7.2897625  19.6167297  20.1363182   6.6545348  18.8252735  20.7847137
   7.7047215  19.2985172  18.8925476   8.3211250  19.9162407  18.3840542
   7.4346271  17.9507427  18.2287846   6.3553023  17.8255329  18.3153229
   7.7059932  18.1345673  16.7032337   8.7211542  18.5207729  16.6116009
   7.5728145  16.8215046  15.9700022   6.6217976  16.3841972  16.2740231
   7.7455797  17.1025867  14.9311342   8.3716383  16.1463051  16.2767391
   6.8431973  18.9949989  16.0586357   7.2419896  19.8681183  16.0736923
   8.2055101  16.8166523  18.8972607   7.7210741  15.6797552  18.8617306
   9.3700390  17.0405960  19.5200710   9.8117409  17.9488869  19.5232658
  10.0545006  15.9959679  20.3447552  10.0917311  15.1195974  19.6976929
  11.5475149  16.2369976  20.6729546  11.9958305  16.6754684  19.7814083
  11.6625061  16.9477348  21.4913254  12.2956820  15.0249453  21.2508888
  12.0814867  15.1005373  22.3169594  11.7867088  14.1605911  20.8243465
  13.8044310  14.8659649  20.9011898  13.7214928  14.5376987  19.8651085
  14.4189281  15.7388487  21.1215687  14.4421520  13.7055292  21.6331940
  14.9013186  14.0166702  22.5715218  13.6748104  12.9893599  21.9271107
  15.3687916  13.0147734  20.7036076  15.6998377  12.1578226  21.1233025
  14.8910799  12.7992506  19.8402176  16.2379398  13.5197268  20.6051044
   9.2956181  15.6382885  21.6888390   9.5733633  14.6114826  22.2152271
   8.2953062  16.4054565  22.0866947   7.8781991  16.9658298  21.3572388
   7.7097545  16.3334217  23.4375038   8.5293732  16.1704597  24.1373386
   7.1388493  17.7352791  23.7810230   7.9107800  18.4864712  23.6138954
   6.4074945  17.9900932  23.0140228   6.5365739  17.9293003  25.1503735
   7.0290475  17.4095669  26.1582623   5.4000797  18.5636730  25.3434486
   5.0086017  18.9753761  24.5083752   4.8333840  18.4457741  26.1711311
   6.6747985  15.1790180  23.4598007   6.0012679  14.9060888  22.4632282
   6.5492115  14.4337921  24.5543594   7.2072573  14.5814934  25.3061981
   5.4855938  13.4103575  24.7824574   5.4335966  12.8945417  23.8236370
   5.8347101  12.3724155  25.8414936   6.8757162  12.0780993  25.7081223
   5.6340222  12.8799324  27.3256912   6.0166588  12.1430073  28.0318222
   6.3014536  13.7416401  27.3354969   4.6059060  13.1348610  27.5827675
   5.0165753  11.2684412  25.6524124   5.2879701  10.6899395  26.3688507
   4.1473627  14.1463451  25.0020180   3.9895449  15.0944395  25.7835121
   3.1157126  13.5306034  24.3585148   3.3238070  12.8043394  23.6881886
   1.7025768  13.9202061  24.5376339   1.6134830  14.8604107  23.9934101
   0.7725670  12.9214010  23.8914528   1.0578594  11.9677887  24.3356724
  -0.2632722  13.1962013  24.0905247   0.8643394  12.7361450  22.3539696
   1.6692269  12.0319557  22.1433182   0.0237508  12.1546268  21.9753571
   1.1389965  14.0389805  21.6140900   2.1971726  14.1455030  20.9939766
   0.3232487  15.0127821  21.5747299   1.3226490  13.9100847  26.0242939
   1.7792016  13.0844316  26.8748112   0.5210642  14.8954439  26.4343872
   0.1483776  15.4216366  25.6570034  -0.1991515  14.9952202  27.7163429
   0.5959506  14.7224817  28.4102631  -0.6145008  16.5010052  27.8432655
   0.2098452  17.1581993  27.5664101  -1.4346181  16.7167797  27.1584663
  -1.1178505  16.8958149  29.2261295  -1.7714132  16.1315651  29.6466999
   0.0292154  17.2072010  30.1590652   0.7534187  16.3934135  30.1218815
   0.5373829  18.1110516  29.8230267  -0.4230182  17.3359203  31.1424351
  -1.8188791  18.2149429  29.0796642  -1.2172496  18.9623814  28.5624809
  -2.6826730  17.9802418  28.4576702  -2.2774246  18.5128975  30.0225620
  -1.3085458  13.9420433  27.8336773  -2.2961919  13.9136639  27.0371170
  -1.2285891  13.1473885  28.8275681  17.6608696  38.6686897  47.7011490
  17.3692455  38.5942612  46.7370338  16.9982529  38.0991478  48.2077675
  17.4812508  39.6249695  47.9720230  19.0679665  38.3296623  47.9561005
  19.6012688  39.2205925  47.6245422  19.2561817  38.0427895  49.4669952
  18.7533283  38.7529602  50.1234207  18.8620491  37.0394287  49.6283379
  20.7244549  38.0244064  49.9777412  21.1911907  37.1641006  49.4980240
  21.2708416  38.9029312  49.6345787  21.0002861  37.8127365  51.7990685
  20.7719345  39.5256310  52.5837097  21.3882618  40.2763596  52.0890884
  19.7124901  39.7793388  52.6198883  21.0765018  39.5742607  53.6291656
  19.4932766  37.2132454  47.0086174  18.7769623  36.2508469  46.8457642
  20.6776123  37.4640350  46.4126778  21.1458530  38.3489342  46.5460854
  21.2112675  36.4639549  45.4698410  20.3832130  36.1600151  44.8294868
  22.2321243  37.0976295  44.4686775  21.8196564  37.9482384  43.9260635
  23.0403786  37.5584793  45.0365143  22.7823772  36.0008202  43.4765930
  23.3672199  35.1860924  43.9035339  21.9407654  35.5081635  42.9896851
  23.8225937  36.7651062  42.2541313  24.3153248  35.3888359  41.3134995
  25.1394978  34.8472862  41.7777863  23.4632435  34.7918282  40.9884720
  24.7730923  35.7773056  40.4037476  21.6907806  35.2364006  46.2734833
  22.2473183  35.4919472  47.3355026  21.4566154  34.0250244  45.7469864
  21.1605396  34.0679169  44.7823105  21.9379826  32.8057518  46.4276619
  21.8674660  33.1265717  47.4669914  20.9962101  31.5897293  46.2144089
  21.3226032  30.6912251  46.7381096  19.6294613  31.9962673  46.7581520
  19.8153820  32.2665482  47.7976189  19.1878014  32.8203011  46.1977921
  18.9866047  31.1299191  46.6023369  20.9182816  31.2725601  44.7107620
  20.3437157  31.9999256  44.1372528  21.9169712  31.2604084  44.2742195
  20.2620716  29.9577351  44.4197845  20.7202969  29.1111412  44.9310646
  19.2080231  29.8659172  44.6817932  20.3428059  29.9046497  43.3340759
  23.3723507  32.4742165  46.0474129  23.8125801  32.7584305  44.8654556
  24.1062698  31.6673470  46.8287926  23.6231461  31.3319874  47.6499023
  25.5389557  31.3076496  46.6105766  25.7368813  31.3014488  45.5387154
  26.4782219  32.2524719  47.4738541  26.1928043  32.3408241  48.5221024
  27.4056320  31.6803150  47.4993935  26.7111225  33.5921135  46.8336143
  25.6924152  33.9466324  46.6765938  27.2424927  34.2720222  47.4995537
  27.3205338  33.6327858  45.4068375  28.3277054  33.2221832  45.3353539
  26.7485619  32.9661636  44.7614174  27.3357811  35.0059471  44.7447357
  27.1432724  35.8428307  45.2764015  27.6299744  35.1663742  43.4465065
  28.0006065  34.2444878  42.6159668  28.2669086  33.3113480  42.8960304
  28.1283474  34.5273590  41.6548424  27.7347336  36.4474411  43.0421104
  27.8276615  36.5942039  42.0471573  27.2969170  37.1706886  43.5946732
  25.7246933  29.9297466  47.2197685  25.1414242  29.5949860  48.2398453
  26.5847530  29.0901031  46.6104622  27.1287537  29.3393402  45.7968025
  27.0193710  27.9293613  47.3954048  26.2966938  27.4973392  48.0876465
  27.1880131  27.1689110  46.6329269  28.2822132  28.2437038  48.1665344
  29.0364456  29.1651459  47.8622360  28.4725666  27.5512981  49.3313293
  27.7001133  27.0117970  49.6951370  29.5743542  27.6941872  50.3042984
  30.3746891  28.3350906  49.9344139  29.0082798  28.4561806  51.6083412
  28.2388172  27.8809013  52.1232033  30.0137653  28.8216381  52.6792030
  30.6726246  27.9973297  52.9521942  30.7140846  29.4931164  52.1824417
  29.5651817  29.2695827  53.5658913  28.0878830  29.6620693  51.2294350
  28.4564972  30.1627922  50.3341675  27.1055241  29.3067989  50.9182167
  27.8761101  30.7186890  52.3331223  26.9483986  31.2249012  52.0662766
  27.7057953  30.2382584  53.2965965  28.7449017  31.3768711  52.3429565
  30.1884060  26.3460598  50.6567078  29.3861008  25.5307846  51.1158562
  31.4579182  26.1081753  50.4187660  32.0545425  26.8711796  50.1324768
  32.1575966  24.8082943  50.5518875  31.4055023  24.0197525  50.5774994
  33.2242813  24.7138634  49.3941231  33.7774811  25.6529350  49.3795586
  34.0401382  24.0607738  49.7038879  32.7796440  24.2234020  48.0451889
  31.9301910  24.8372059  47.7455597  33.6356430  24.3025093  47.3750305
  32.2151794  22.7656250  48.0999756  31.2097721  22.7926922  48.5201187
  32.1979942  22.2903595  47.1191940  32.8898582  21.7612534  48.9176865
  32.3343277  21.4563370  49.7041435  34.1241417  21.3269367  48.8300056
  34.8499565  21.5363007  47.8158264  35.7638512  21.1137104  47.8952866
  34.3399620  21.8409939  46.9990234  34.6451683  20.6796570  49.8328285
  35.5186691  20.2664719  49.5389328  34.1107483  20.6087608  50.6869202
  32.9333305  24.6725407  51.8331757  33.4844704  25.6517696  52.3872566
  33.1440582  23.4857559  52.3510361  32.4999924  22.7981777  51.9870071
  34.1375656  23.0845051  53.3646851  35.0418396  23.6613617  53.1707191
  33.7714272  23.3427010  54.3583565  34.4293861  21.5544376  53.3558769
  33.7336121  20.7718601  52.6672745  35.4527168  21.0888577  54.1996994
  35.9582214  21.8057766  54.7002945  35.6766167  19.7309608  54.5504875
  34.7067566  19.2349758  54.5889702  36.5018692  19.0847721  53.3567200
  36.5253906  17.9993534  53.4537582  35.9337959  19.2443581  52.4402466
  37.5485306  19.3655434  53.2393532  36.2846146  19.5758629  55.9725304
  36.7405128  20.4699211  56.6599998  36.3546371  18.2696209  56.3450890
  36.1027069  17.5737553  55.6577721  36.9742546  17.7548561  57.6325874
  37.9850121  18.1383495  57.7718811  36.0574722  17.9625225  58.8108940
  35.7544518  19.0089664  58.7757263  34.7764702  17.1396370  58.9147987
  34.2895851  17.4132500  59.8508453  34.1195526  17.4974613  58.1220055
  35.0031090  16.0855694  59.0750465  36.7131805  17.8200111  60.0039368
  36.1088638  18.1388092  60.6783028  37.3460884  16.2542534  57.5402832
  37.0779839  15.5074110  56.5895538  37.9689560  15.6657915  58.5991173
  38.1506348  16.1917877  59.4419823  38.3697662  14.2015171  58.6930161
  37.7481422  13.6946716  57.9549179  39.8408699  14.0363312  58.1863136
  40.1391373  12.9880257  58.1724815  40.3659477  14.6168566  56.8756523
  40.4137840  15.7043076  56.9327164  41.3936005  14.2832546  56.7316360
  39.7145882  14.3652782  56.0386696  40.6957436  14.6947403  59.1872902
  40.1921349  14.5539885  59.9923782  38.1294632  13.5184593  60.0048714
  38.5877190  14.0642109  60.9952507  37.5931854  12.3093596  59.9589272
  37.5464935  11.8776989  59.0470123  37.4676361  11.3815947  61.1564445
  37.5220184  11.9304991  62.0965729  36.1674271  10.4848099  61.3228378
  36.2865410   9.8078394  62.1687851  34.9823647  11.3731318  61.6037636
  34.0714417  10.7770882  61.6589737  35.2224159  11.9021339  62.5260620
  34.8740273  12.0672779  60.7703781  35.9377480   9.7832737  59.9566345
  36.6716728   8.9781322  59.9218979  34.9420700   9.4151373  59.7092438
  36.0313911  10.4808865  59.1243629  38.6899490  10.4412107  61.2287407
  39.2053909  10.0545044  60.2259979  39.0326157   9.9187031  62.3912964
  38.4798813  10.2029343  63.1874123  39.9494934   8.8313437  62.7150879
  40.5655174   8.6119452  61.8430290  40.7393570   9.1843500  63.8834229
  40.1025276   9.5789680  64.6751480  41.2699928   8.2943983  64.2218170
  41.8490601  10.2884293  63.6737480  41.3506584  11.2569199  63.7152557
  42.5782509  10.3465996  64.4818344  42.6613655  10.2283325  62.3698196
  43.0424271   9.1147709  61.9259987  42.8359375  11.2989712  61.7681618
  39.2061653   7.5462203  62.9618149  39.7466621   6.4274302  62.7431297
  37.8743591   7.5538154  63.2233124  37.4722519   8.4790163  63.2724228
  37.0089798   6.3616166  63.4203720  37.4998817   5.4296513  63.1400986
  36.5983391   6.3948016  64.9049225  35.7671242   7.0509982  65.1629715
  36.1846161   5.3965759  65.0480423  37.8231163   6.4657044  65.8678665
  38.5706940   5.7533603  65.5188675  38.2753563   7.4491725  65.9958115
  37.5611610   6.0523415  67.3037415  37.4816360   4.9943380  67.5535507
  38.5247574   6.3488421  67.7180710  36.5098228   6.8752947  67.9603653
  36.5639076   7.8824267  67.9068832  35.5699310   6.4479489  68.7450333
  35.4723930   5.2046003  69.0921326  36.2478333   4.6071711  68.8433914
  34.8103790   4.9206419  69.8000946  34.7375031   7.2179036  69.2192993
  34.8348618   8.1607180  68.8704071  34.0442581   6.8117528  69.8313065
  35.7663651   6.4854555  62.4283028  35.0291862   7.5007663  62.6198578
  35.4824715   5.5341115  61.5542793  36.2073784   4.8496227  61.3927650
  34.1614037   5.3894949  60.8729172  33.8617249   6.3405876  60.4327774
  34.3840752   4.3723903  59.7441063  35.2494659   4.6718149  59.1528816
  34.6401863   3.4379187  60.2433739  33.1114044   4.2427201  58.9375153
  32.4745865   5.2636757  58.6007576  32.7471962   3.0966868  58.5511627
  33.0411110   4.9804778  61.9015350  32.7946892   3.7292116  62.0935173
  32.4739990   5.8953757  62.6686783  32.6622620   6.8862772  62.6160393
  31.4559441   5.5535941  63.6793137  30.8184967   4.8008971  63.2154083
  32.0301743   5.0975742  65.0171509  32.6910210   4.2534380  64.8201141
  32.7899590   6.1475077  65.7685089  33.6507721   6.4154687  65.1558914
  32.2210236   7.0308504  66.0585480  33.1019707   5.6463685  66.6848145
  31.0166531   4.7580929  65.8747559  31.3708229   4.5415955  66.7403717
  30.5455170   6.7566366  63.8719978  31.0457134   7.8917909  63.7720985
  29.2553978   6.6334939  64.1510544  28.8001347   5.7360821  64.0645218
  28.3527069   7.7569509  64.4890366  28.4256725   8.4990625  63.6940231
  26.8908615   7.2003379  64.5837860  26.8273869   6.4117866  63.8339500
  26.6801929   6.7661710  65.5611420  25.7592239   8.2774515  64.3568954
  25.8617134   9.0563173  65.1125183  26.0839596   8.6885653  63.4010544
  24.2799740   7.7715511  64.2301788  24.0542870   6.6616025  63.8059769
  23.3886909   8.5175562  64.6981888  28.6712265   8.4952784  65.7841415
  28.3342552   9.6361885  65.9092636  29.4090805   7.8663883  66.6710129
  29.5156116   6.8650928  66.5925369  30.0727119   8.6131096  67.8707352
  29.2462883   9.0205593  68.4530640  30.7617893   7.4330888  68.6470642
  30.1286125   6.5539112  68.7663651  31.6391296   7.1687360  68.0567322
  31.1528244   7.9649391  70.0388336  31.9959431   8.6446600  69.9154053
  30.2891598   8.4997139  70.4340515  31.6918068   6.8170080  70.9558868
  32.5314941   5.9896545  70.4997864  31.1730175   6.6864648  72.0774384
  31.1146183   9.6965837  67.5186920  31.3099060  10.5467281  68.3351974
  31.6448097   9.7107077  66.2462769  31.3612595   8.8684092  65.7664566
  32.5810356  10.6714630  65.7284164  32.8669472  11.4333029  66.4536438
  33.9001465   9.9780722  65.3138351  33.6543274   9.2283964  64.5617294
  34.5771103  10.7208529  64.8918152  34.5806122   9.2640495  66.5168076
  33.8403435   8.5235777  66.8198013  35.4404793   8.6818285  66.1855240
  35.1037636  10.1541204  67.6846848  34.7168007  11.3441629  67.8230133
  35.9589043   9.6531124  68.4703674  32.0361099  11.5012283  64.5213852
  31.9733219  12.7299337  64.6520691  31.4485416  10.8631868  63.5006981
  31.4350967   9.8534212  63.5178337  30.9778118  11.5109186  62.2673645
  31.8363018  12.0429726  61.8574600  30.5694046  10.4481459  61.2253609
  29.8692493   9.7433348  61.6738319  29.8430443  11.0797634  60.0068703
  28.9804497  11.7068338  60.2322769  30.5280495  11.6377621  59.3685074
  29.4374733  10.3259048  59.3321037  31.7506046   9.5192213  60.7127571
  32.4925575  10.2007551  60.2966843  32.2181396   9.0659122  61.5868378
  31.2718086   8.4991732  59.7216377  30.4698181   7.8521509  60.0769768
  30.8134556   8.8771839  58.8077850  32.1036530   7.8395433  59.4746056
  29.9348164  12.5403633  62.5319901  30.0712147  13.6762753  62.1721115
  28.9382534  12.2469482  63.3914375  28.7735176  11.2580929  63.5144272
  27.9225845  13.2415314  63.7514458  27.4719639  13.6518688  62.8477516
  26.9135246  12.5699635  64.7350006  26.5963764  11.5905418  64.3768768
  27.3416710  12.4599009  65.7313309  25.5521450  13.3852444  64.9441299
  25.7643127  14.4539976  64.9732971  24.7767048  13.1694832  63.6781349
  25.2150326  13.4737854  62.7276764  24.4772720  12.1236916  63.6091499
  23.7695541  13.5825787  63.6225090  24.7684326  12.8680687  66.1578522
  25.3709908  13.1271181  67.0284424  23.7944984  13.3523788  66.2285385
  24.5394630  11.8151274  65.9935760  28.5608788  14.4725084  64.3655090
  28.5451679  15.5800190  63.8222275  29.3489914  14.2245655  65.4946594
  29.3291664  13.3028345  65.9071198  30.1057510  15.2695351  66.2309952
  29.3707352  16.0248508  66.5091171  30.6647015  14.6434479  67.4758835
  29.8880997  14.1131725  68.0270691  31.3627968  13.9042883  67.0829391
  31.3032875  15.6931686  68.4672318  31.7435436  15.1762180  69.3198929
  32.1819878  16.0911865  67.9597092  30.4526176  16.8000832  69.0004501
  29.3926239  16.6055832  69.6448212  30.9089317  18.0076180  68.9919815
  31.8468246  18.1142902  68.6327133  30.3725815  18.7085381  69.4830399
  31.1120949  16.0443649  65.4274368  31.0375080  17.2501984  65.4618683
  31.9741554  15.4430952  64.6057663  31.7982941  14.4722500  64.3898163
  32.9571877  16.1147041  63.7274780  33.4613609  16.8055439  64.4032364
  34.0377808  15.1071033  63.2418137  33.6492081  14.0924006  63.1552734
  34.3659592  15.3774176  62.2381516  35.2549477  15.0348167  64.1895218
  36.0596542  14.5497608  63.6370087  35.6287231  16.0331020  64.4171600
  34.9089699  14.2628422  65.4284744  34.1022491  14.8350449  65.8866119
  34.7701340  13.2109165  65.1789169  36.1117744  14.3271732  66.3662720
  36.8800240  13.5848875  66.1496811  36.6356850  15.2821579  66.4065323
  35.7095718  13.8522015  67.7245712  36.4623337  13.9329853  68.3930969
  34.9087639  14.3060331  68.1403275  35.4275284  12.8841228  67.6664810
  32.3443832  16.8696156  62.6108017  32.7956619  17.9887142  62.2855682
  31.2291107  16.3607159  62.0540428  30.9425678  15.4380646  62.3485069
  30.3160210  17.1208363  61.2001991  30.8773289  17.6715317  60.4453659
  29.2442188  16.2417583  60.5012436  28.4400749  15.9418287  61.1731758
  28.7007370  17.0307808  59.3010674  28.2703972  17.9506721  59.6969185
  29.5719604  17.2767200  58.6939583  27.9189243  16.4727478  58.7858353
  29.7035713  14.9985552  59.9823570  29.9016151  14.4999180  60.7784348
  29.6647892  18.2820091  61.9139748  29.7444286  19.3837013  61.3925018
  29.0754967  18.1033497  63.1232643  29.0970917  17.1819534  63.5363731
  28.4987030  19.1407242  63.9352608  27.7119045  19.5353661  63.2923698
  27.9065857  18.5592995  65.1839981  27.3590736  17.6440144  64.9590912
  28.6814270  18.3353081  65.9171753  26.9462185  19.5100307  65.9576340
  26.9258995  20.4477425  65.4023056  25.9269619  19.1237812  65.9625931
  27.3370914  19.7831173  67.3912048  27.4902172  18.8007965  67.8380737
  28.3139439  20.2634087  67.3347778  26.4107285  20.6859360  68.1959915
  26.4271088  21.7011642  67.7995834  25.4237289  20.2236233  68.1818237
  26.7640171  20.6618195  69.6115799  26.5796757  19.7570515  70.0208588
  27.7442284  20.8051109  69.8084564  26.1469688  21.3096180  70.0803070
  29.4880943  20.2872963  64.2735977  29.0488415  21.4534245  64.3676529
  30.7623978  19.9716663  64.4714737  31.0656528  19.0087872  64.5030746
  31.9129848  20.8734550  64.6312714  31.6832981  21.4905853  65.4998932
  33.1854401  19.9862118  65.0674286  32.9099121  19.2467213  65.8193207
  33.5165787  19.4449997  64.1811218  34.3883438  20.7180176  65.6342468
  34.5809021  21.6183701  65.0508194  34.1227074  21.0163727  66.6484070
  35.7817421  19.9979534  65.4839249  35.8770714  18.9959793  64.7972183
  36.8638382  20.4835587  66.0435257  37.7646446  20.0593777  65.8740540
  36.8624039  21.3051472  66.6309738  32.2735863  21.6767578  63.3741684
  32.5783310  22.8726959  63.5299339  32.2246513  21.1131649  62.1504860
  31.9388218  20.1495991  62.0507545  32.3524742  21.9100952  60.8614311
  33.2457619  22.5205364  60.9937363  32.5684319  20.8682785  59.7958946
  33.3659897  20.2074699  60.1355019  31.7120476  20.1971035  59.7308540
  32.8630028  21.3874874  58.4025002  32.0649681  22.1070080  58.2193947
  34.1785202  22.0466518  58.3026772  35.0460777  21.4238396  58.5207405
  34.2648926  22.3695965  57.2652054  34.0810089  22.9526711  58.9007759
  32.6913338  20.2075787  57.3669624  31.6918259  19.7817497  57.4550400
  32.7319527  20.5816116  56.3439522  33.3984337  19.4132309  57.6059647
  31.1504726  22.7867565  60.6091805  31.2787628  23.9445362  60.1819496
  29.9504700  22.2804203  60.9374733  29.9811554  21.3682327  61.3699913
  28.6619854  22.9262562  60.7338142  28.6607819  23.2566185  59.6950798
  27.3614159  22.1134167  61.0593185  27.6287060  21.6356640  62.0018768
  26.5508537  22.8401203  61.1140213  27.0479622  21.0382900  59.9933586
  27.9203434  20.3860874  60.0343857  25.9231434  20.1123409  60.5611687
  25.1211205  20.8496895  60.5268936  25.7630043  19.3486309  59.8001137
  26.1619663  19.6465111  61.5172348  26.7847614  21.6046867  58.5808372
  27.0651836  20.7724571  57.9351921  25.7832737  22.0080166  58.4310074
  27.4652119  22.3438416  58.1580658  28.6144810  24.2762432  61.4938927
  28.5457954  25.3276310  60.8700333  28.7024555  24.2747555  62.8530083
  28.8114605  23.3701286  63.2887459  28.6341038  25.4858837  63.7242012
  27.6636372  25.9805794  63.6844940  28.8745785  25.2203617  65.2172089
  29.7095737  24.5281353  65.3254013  29.1343212  26.1062508  65.7967224
  27.6625996  24.5689735  65.9428406  27.1091385  23.8962784  65.2876587
  28.0986824  24.0486183  66.7955780  26.6926594  25.5665302  66.6018066
  26.4426804  26.6162205  65.9888306  26.2587357  25.3231182  67.7657166
  29.4771004  26.5703583  63.1549149  28.8611012  27.6344376  62.9690628
  30.7034302  26.3309402  62.7922020  30.9686050  25.3723431  62.9679260
  31.7823372  27.1519012  62.2446785  31.9696178  28.0177155  62.8798103
  33.1002045  26.3423901  62.3125534  33.1493530  25.9426289  63.3254089
  33.0596924  25.4962292  61.6266441  34.3981628  27.1350594  62.1241455
  35.2623749  26.4877300  61.9751205  34.2576141  27.5727024  61.1358070
  34.6967430  28.3597240  63.0505142  34.0657463  29.1886559  62.7298660
  34.4733620  28.1775990  64.1017227  36.1832199  28.6307068  62.9314308
  36.8063545  27.8605633  63.3860474  36.3974152  28.6763000  61.8636513
  36.4371414  29.9075356  63.4419289  35.9354286  30.6114082  62.9194794
  36.2244568  30.0241928  64.4223633  37.4158516  30.1030293  63.2869873
  31.5080719  27.7567253  60.8629036  31.4987831  28.9992008  60.7728157
  31.1281796  26.9288712  59.8951073  31.0939693  25.9360027  60.0771561
  30.8373413  27.4032784  58.5724297  31.7125301  28.0003948  58.3163147
  30.9844055  26.1694012  57.5799980  31.8467121  25.5434780  57.8096695
  29.6347160  25.3047085  57.5053940  29.9311600  24.3036003  57.1923447
  29.2913342  25.2247295  58.5368004  28.8880024  25.7350235  56.8380508
  31.1618042  26.7994785  56.1736221  30.2311859  27.3555145  56.0601654
  32.0592766  27.4151192  56.2338562  31.4078217  25.7386608  55.0556030
  31.7023315  26.3691826  54.2166672  32.2008820  25.1244526  55.4821091
  30.5605736  25.0675793  54.9144630  29.5959167  28.2348633  58.5028038
  29.6024952  29.1288280  57.6601830  28.6386318  27.9191628  59.3792877
  28.8041248  27.1158104  59.9686394  27.4117031  28.6590271  59.5609856
  26.9150505  28.7608223  58.5960617  26.3580608  27.8058472  60.2839851
  26.8815842  27.2635326  61.0713348  25.3025799  28.7228680  60.8855820
  24.9408722  29.3923817  60.1051788  24.4644871  28.1718082  61.3122406
  25.7301788  29.2759781  61.7218437  25.8427868  26.7868805  59.1883316
  25.1288719  27.3103161  58.5523758  26.6527596  26.5507183  58.4982071
  25.1604748  25.5219002  59.7050095  24.5849972  25.7475853  60.6027832
  24.4944725  24.9870033  59.0279388  25.9244404  24.7813702  59.9418068
  27.6801910  29.9787655  60.2670631  27.3521900  31.0095921  59.7392921
  28.4638271  29.9197121  61.3389053  28.7656765  29.0140972  61.6688271
  28.7388439  31.0976791  62.1065063  27.8263474  31.6790562  62.2386017
  29.2454720  30.6640949  63.4744682  28.5295963  29.9262390  63.8366699
  30.1721058  30.1076183  63.3338089  29.4947414  31.8337631  64.4949722
  29.8626671  31.4212723  65.4344254  30.3219433  32.4006119  64.0677490
  28.2436466  32.5898666  64.8607330  28.3607464  33.8157959  65.2294235
  27.1061306  32.1482735  64.8047104  29.6344833  32.0720978  61.3328285
  29.2513142  33.2455330  61.3020592  30.7003708  31.7045670  60.7319145
  30.8319950  30.7035332  60.7584915  31.6476631  32.5466614  59.9924049
  31.9510403  33.3817787  60.6237907  32.8958702  31.6845188  59.5478401
  32.3499794  30.8286839  59.1507912  33.4384308  32.1451225  58.7222672
  33.8601265  31.2514229  60.6700287  33.2672310  30.7925797  61.4612541
  34.5533752  30.5363712  60.2270775  34.7332153  32.3132095  61.2740707
  35.4123001  32.0876350  62.3006592  34.7014885  33.4911804  60.7988434
  30.9837322  33.2280693  58.7612152  31.5002460  34.2549896  58.4040833
  29.9013634  32.6897087  58.1800423  29.5787525  31.8348846  58.6105156
  29.1687927  33.2143707  57.0711021  29.7332859  33.9638748  56.5164032
  29.0068283  32.0392570  56.0535126  28.7241573  31.0875931  56.5035515
  28.3510857  32.2633400  55.2121506  30.4431953  31.7115479  55.3959198
  30.8744068  32.5242805  54.5035934  31.1420803  30.6638756  55.7921219
  32.0930367  30.5334587  55.4778404  30.7752209  30.0373020  56.4942017
  27.8284817  33.8586082  57.5550537  27.0605659  34.2710075  56.7293510
  27.5553188  33.8039589  58.8605461  28.3432693  33.6490211  59.4731064
  26.3839149  34.4210358  59.4999428  26.4723797  34.0887260  60.5342751
  26.4294128  35.9479065  59.4830399  26.1162281  36.2063217  58.4714890
  25.6481953  36.2919426  60.1608582  27.7652187  36.6031303  59.8221321
  28.6728210  36.2666435  60.8156509  28.5637836  35.6140823  61.5787888
  29.7223129  37.0916481  60.6854935  30.5847321  37.0572090  61.3346863
  29.5982552  37.8583412  59.6006355  30.2395134  38.5651054  59.2699203
  28.3844223  37.5793304  59.0344467  27.8950520  38.1127625  58.2329674
  25.0695724  33.8552475  59.0604935  23.9536858  34.3480835  59.3574409
  25.0501728  32.7789803  58.3367996  25.9694290  32.4499474  58.0783234
  23.8926811  32.0519333  57.8496895  23.4289932  32.6956978  57.1022530
  24.4072838  30.7815514  57.1068039  25.0470467  30.2185764  57.7864075
  23.3120899  30.0319862  56.3795204  23.7158604  29.1478977  55.8860970
  22.5645447  29.6484127  57.0738945  22.9279137  30.6726036  55.5857239
  25.2523899  31.1653404  56.0708389  24.8296642  31.8311138  55.5234375
  22.7407722  31.7573071  58.9197350  23.0663090  31.4442749  60.0665703
  21.4948940  31.6706028  58.4736366  21.3632793  31.9520721  57.5126190
  20.2628822  31.3583794  59.2360039  20.4758835  31.0685921  60.2649612
  19.4288502  32.6356087  59.2703476  19.3274117  33.0278053  58.2584229
  18.4097500  32.4005470  59.5774078  19.9762745  33.7923431  60.2659874
  19.8205242  33.3965569  61.2695770  21.0392151  33.9763222  60.1097565
  19.0894222  34.9896431  59.8902435  19.0957222  35.0345993  58.8011894
  18.0288525  34.7728653  60.0179138  19.4387188  36.2882385  60.5531921
  18.6281757  36.9835548  60.3348923  19.4283962  36.0861778  61.6242485
  20.7819252  36.7164841  60.1048584  21.4766769  36.5313187  60.8141785
  21.1634178  36.2307930  59.3056908  20.8129692  37.6871147  59.8273468
  19.5154152  30.3042412  58.4521866  19.5089188  30.4003353  57.2393417
  18.8488712  29.3880005  59.1370316  18.6639118  29.3917503  60.6174088
  18.1693516  30.2947884  60.9752235  19.6303349  29.2509003  61.1014442
  17.8562489  28.1617737  60.9198570  17.2310333  28.2569885  61.8076324
  18.5305424  27.3970184  61.3053169  17.1698952  27.8168240  59.6179008
  16.2099819  28.3283863  59.6884003  17.0359669  26.7371082  59.5517502
  18.0155869  28.3806648  58.5016174  18.6834621  27.6795692  58.0011063
  17.0726185  28.9350052  57.4072151  16.9395237  28.3741283  56.3478470
  16.5329876  30.1203289  57.6326065  16.4402103  30.4860611  58.5694809
  15.7588310  30.8467388  56.6048431  15.1833706  29.9978256  56.2356491
  15.0506382  31.9650192  57.3138237  14.5091114  31.5466328  58.1622391
  15.8934155  32.5804596  57.6285553  14.0133066  32.7032585  56.4282570
  13.7393274  33.6108055  56.9662094  14.6539688  33.0932961  55.6373596
  12.9185381  31.8815041  55.8038101  12.0759554  32.4445038  55.0594101
  12.8232737  30.6842499  56.0691872  16.3621941  31.2606564  55.2243500
  15.6464500  31.2950153  54.2046051  17.6418056  31.5313969  55.2357903
  18.1317062  31.4067402  56.1101799  18.4413166  31.8540611  54.0355530
  17.8652668  32.6286469  53.5292969  19.9096394  32.1586227  54.4670448
  20.2379417  31.2818871  55.0253067  20.4944191  32.2813034  53.5554085
  20.1500111  33.3527985  55.3416519  19.4322834  34.4261169  55.2353706
  21.1411858  33.3080788  56.0196381  18.5132027  30.7078114  53.0698814
  18.7052689  30.8788147  51.8150024  18.3021946  29.4288750  53.5065918
  18.0889091  29.4686832  54.4930115  18.7727890  28.1847229  52.9042778
  19.7467346  28.3376789  52.4393768  18.8037014  27.0549107  54.0124969
  17.7902584  26.8707180  54.3690186  19.2160187  25.7452946  53.3680916
  18.3893375  25.3231888  52.7966690  20.1001129  25.7808456  52.7315292
  19.5381451  25.0654144  54.1568222  19.7886009  27.4112263  55.1763649
  19.5463028  26.7294941  55.9916191  20.7553062  27.1015549  54.7792702
  19.6925640  28.4557838  55.4726372  17.9094372  27.7712803  51.7701340
  16.7028713  27.5638180  51.8828926  18.5166683  27.5468731  50.6523514
  19.4617634  27.8554363  50.4743271  17.8831310  26.7652493  49.5426979
  16.8449783  27.0780029  49.4307938  18.5448284  26.8813858  48.1977768
  19.5625916  26.5191669  48.3428764  17.8718433  26.0566692  47.1270409
  16.7891178  26.0119724  47.2445259  18.1633968  26.3733501  46.1256371
  18.1856499  25.0146751  47.1892624  18.6002216  28.3403320  47.7304459
  19.1255665  28.5950699  46.8100014  17.6124897  28.7685680  47.5598488
  19.0778122  28.9805450  48.4721603  17.8281155  25.2828159  49.9083328
  16.7510624  24.6799202  49.7397461  18.9703312  24.7265053  50.3100891
  19.8122158  25.2812119  50.2498169  19.2066917  23.3247185  50.6671371
  18.7434750  22.9261131  51.5697136  18.8662968  22.4070282  49.4700165
  18.9337769  21.4149456  49.9164696  17.8392773  22.6546860  49.2016945
  19.8400879  22.5520020  48.2932129  20.0727787  23.6160984  48.2525215
  20.7558861  22.0037518  48.5141983  19.1274700  22.1404591  47.0170059
  18.1441269  22.7242527  46.6026077  19.6555290  21.1842747  46.3022385
  20.4498730  20.6499901  46.6242027  19.2188377  20.6789265  45.5445938
  20.6972446  23.1528645  51.0970879  21.5182972  24.0835171  50.8944588
  21.0341663  21.9291477  51.5772896  20.3783627  21.1617317  51.5441856
  22.4869843  21.5645866  51.7865677  22.9997768  22.2749157  51.1380501
  22.8575191  21.9231510  53.2222824  22.8602562  23.0129395  53.2435951
  22.0254612  21.4950714  53.7813301  24.1634140  21.3920345  53.7486725
  24.1134243  20.3091793  53.6345520  25.0551796  21.6420879  53.1739311
  24.3807621  21.6899948  55.5389900  23.2124767  22.9769173  55.9546089
  23.4907246  23.2419662  56.9746284  23.5155182  23.8445072  55.3684769
  22.1656303  22.6732578  55.9525757  22.7437782  20.1282215  51.3395653
  21.8854179  19.2588902  51.3133202  23.9578075  19.9969692  50.8430252
  24.5331707  20.8269367  50.8576202  24.5416985  18.8797398  50.2396393
  23.9107914  18.0519905  50.5634995  24.5714207  18.9611855  48.6910400
  23.6085606  19.0168171  48.1832008  24.9356079  19.9644547  48.4698601
  25.3638916  17.8432922  47.9597778  26.3429871  17.7096558  48.4197922
  24.6760616  16.4812679  48.1543770  23.6570225  16.5164051  47.7691154
  25.2909698  15.7668285  47.6070518  24.7144470  16.1805744  49.2013779
  25.4716282  18.0867767  46.4356956  24.4760971  18.0468807  45.9936180
  25.6953144  19.1502380  46.3513527  26.2229881  17.4591427  45.9564934
  25.8519535  18.6123581  50.8571167  26.8298035  19.3308430  50.7127151
  25.9691544  17.4745655  51.5139885  25.1147938  16.9407845  51.5864220
  27.2069607  16.9165726  52.0286522  27.9789276  17.6853638  52.0623894
  26.9945774  16.3567314  53.4013100  26.1522026  15.6788406  53.5390396
  27.8490219  15.7133751  53.6113510  26.9010963  17.4505672  54.5354233
  27.6255722  18.1909199  54.1961403  25.5416985  18.0845413  54.7458458
  25.5531807  18.8577423  55.5140457  25.2196331  18.6447983  53.8680725
  24.8003693  17.3197289  54.9773445  27.1665916  16.8933697  55.9285355
  28.0013275  16.1941719  55.8792191  27.4920616  17.7131824  56.5689087
  26.3992977  16.3514614  56.4814301  27.8057022  15.8185768  51.1002426
  27.1211376  15.3185740  50.2070007  29.0749130  15.4087715  51.2426186
  29.6899014  16.0230923  51.7569122  29.7966385  14.2786083  50.5373840
  29.0167313  13.5250235  50.4280472  30.2413387  14.6751242  49.0701561
  30.5986099  13.7574730  48.6028442  29.4354229  15.1573067  48.5168915
  31.2431526  15.6077051  49.0486221  31.6282616  15.6702766  48.1714821
  30.9243355  13.6868067  51.3543510  31.2699108  14.2219667  52.4060249
  31.3422470  12.4891033  51.0334053  30.9379215  12.1314669  50.1797523
  32.2442551  11.6098461  51.7977066  32.9129829  12.2781706  52.3401604
  31.4016800  10.8710594  52.8363914  31.9828606  10.0082436  53.1617813
  31.1295204  11.5304060  53.6605873  30.5991325  10.3282700  52.3369942
  33.0149384  10.6190653  50.8490257  32.6214790  10.3836184  49.6850586
  34.1683121  10.1386805  51.3098106  34.4045219  10.4037018  52.2553635
  35.1160774   9.1748705  50.6925545  35.1494370   9.4463997  49.6374397
  36.5690460   9.3764610  51.1482735  37.1894493   8.5848446  50.7280998
  37.0793533  10.7755318  50.7517166  38.1543922  10.9121809  50.8688393
  36.7949829  11.0327444  49.7313843  36.6144524  11.5192385  51.3989182
  36.6169205   9.3861351  52.6020813  36.6099930   8.4429445  52.7808113
  34.6830864   7.6542277  50.9295158  33.8471909   7.4540858  51.8234253
  35.1177597   6.6719036  50.0901184  35.7559776   6.8650565  48.8417778
  36.8144569   6.6048489  48.8454742  35.7421150   7.8650284  48.4082260
  35.1000671   5.8383961  47.8782654  35.7731209   5.5711646  47.0635948
  34.2270851   6.2489862  47.3708992  34.8222542   4.7035999  48.8358154
  35.7437286   4.1254992  48.9049568  34.0453300   4.0338883  48.4670715
  34.4423180   5.3603454  50.1101303  33.3588715   5.4791784  50.0989113
  34.7845917   4.4515967  51.3312950  34.4005699   3.3426204  51.3229599
  35.6817398   4.9089680  52.2346230  36.0067215   5.8652453  52.2302780
  36.1652908   4.1275077  53.3571320  36.2347832   3.0736682  53.0875168
  37.5706902   4.6565676  53.7161827  37.7393188   4.4749084  54.7776299
  38.2771492   4.1068583  53.0942230  37.9347992   6.1361289  53.4539680
  39.1596947   6.3452706  53.3898315  37.0999146   6.9176512  53.0704308
  35.2645645   4.2242622  54.5647850  35.1984940   3.3235385  55.4072456
  34.4274521   5.2931752  54.5509567  34.6220436   5.8976083  53.7655296
  33.3369865   5.5135846  55.5267448  33.6366692   5.1777534  56.5194778
  33.0812302   7.0218396  55.5555420  32.6397820   7.3525009  54.6153870
  32.2559357   7.1726389  56.2514229  34.3282661   7.8519478  55.9665337
  35.0149460   7.7924142  55.1221199  33.9566574   9.3523674  56.1056976
  33.2694817   9.4266386  56.9485359  34.7676582  10.0255985  56.3834343
  33.4933777   9.7083082  55.1854973  35.0063248   7.5165677  57.2728043
  34.3731880   7.6468015  58.1504593  35.4177399   6.5072703  57.2603378
  35.8820877   8.1653662  57.2869987  32.0319443   4.7717662  55.1994133
  31.5517101   4.9836826  54.0878639  31.4398499   4.1000414  56.1725883
  31.7838192   4.2365723  57.1123466  30.2672443   3.1916897  55.9074402
  29.6879425   3.6104012  55.0845222  30.6647377   1.6955702  55.6190681
  31.1613140   1.3421936  56.5227470  29.7575550   1.1362020  55.3905373
  31.5490665   1.4936290  54.4115028  31.3186321   1.7346218  53.0876656
  30.4203224   2.0383799  52.7400017  32.4312820   1.4983339  52.3488846
  32.4821167   1.8257693  51.3209724  33.4286728   1.2702378  53.2124939
  34.4057693   1.1119676  53.0116577  32.8974724   1.1484647  54.4624023
  33.4562569   0.8868557  55.3488083  29.2604580   3.2010436  57.1006546
  28.2314014   2.6142058  56.9884338  29.6100883   3.7447321  58.2209816
  30.5658150   4.0518565  58.1097946  28.8449459   3.7042017  59.4306526
  28.5616760   2.6582124  59.5479774  29.8007450   4.1485162  60.5946884
  30.1366596   5.1799111  60.4874763  29.2432785   3.8870599  61.4941177
  30.6953869   3.5258477  60.5951080  27.4781361   4.5584483  59.4095650
  26.4060726   4.1710229  59.8469925  27.6094551   5.8115430  58.8883400
  28.5197525   6.1182332  58.5762482  26.4724560   6.8121219  58.8352242
  25.5612469   6.2877316  58.5474434  26.1703224   7.3234587  60.2482491
  25.6672115   6.5027838  60.7595940  27.4327240   7.8388000  60.9765968
  28.1975727   7.0649242  61.0415077  27.9334736   8.7133961  60.5613480
  27.2894535   8.0436058  62.0375557  25.1377754   8.4200420  60.2882195
  24.3441792   8.2137241  59.5700722  24.7314224   8.6164618  61.2803841
  25.5678787   9.3451672  59.9044685  26.6725330   7.8692508  57.7467117
  27.8099461   8.1591883  57.3939857  25.5755978   8.4304762  57.1688805
  24.6575623   8.1235447  57.4571609  25.5972424   9.6789885  56.3946381
  26.3163338   9.6630249  55.5756416  24.1961117   9.7902203  55.7103081
  23.4293518   9.9956684  56.4572792  24.1647949  10.7741470  55.2423248
  23.7345028   8.6779022  54.8754005  22.8842087   7.7191720  55.3965797
  22.6480370   7.7439623  56.4501495  22.3057652   6.7070060  54.6017036
  21.6170578   5.9902625  55.0240326  22.6598301   6.6021781  53.2778130
  22.3439560   5.7798510  52.6529846  23.5679855   7.4962435  52.7230759
  23.8383083   7.3972178  51.6821556  24.1092720   8.5436840  53.4743195
  24.8974476   9.1204672  53.0133438  25.8893394  10.8924360  57.3485336
  25.0916710  11.1471939  58.2639313  26.9014874  11.7544060  56.9681168
  27.7747822  11.6954021  55.8361893  27.0750427  11.4110594  55.0503044
  28.5639381  10.9720001  56.0411911  28.3627052  13.0441484  55.7425613
  27.7261333  13.7823601  55.2547913  29.3213749  12.9832373  55.2274361
  28.5355263  13.4034271  57.2112694  28.7087364  14.4742918  57.3177986
  29.2719193  12.7458735  57.6732750  27.2188702  12.9850197  57.7550812
  27.2821751  12.5371714  58.7468109  26.0873871  14.0605011  57.8000526
  26.0744896  15.0052185  58.5808525  25.0583668  13.8807297  56.9135246
  25.0672607  13.0124693  56.3976326  23.8789330  14.7559042  56.7884598
  24.2149830  15.7795210  56.6229935  23.0886612  14.3460827  55.5376968
  22.8630981  13.2901640  55.3884811  22.1753788  14.9399443  55.5010300
  23.6253777  14.7384691  54.6739464  22.9843044  14.7748957  58.0653000
  22.2573071  15.7594967  58.2631912  23.0049210  13.6818857  58.8715897
  23.3960590  12.8348827  58.4846840  22.2960415  13.5043068  60.1846046
  21.2360954  13.6281891  59.9626236  22.5982094  12.0426464  60.7042274
  22.8882160  11.3411617  59.9219780  23.4298534  12.1735182  61.3965721
  21.3902378  11.4865093  61.5660629  21.2037773  12.3338957  62.2258148
  20.6198177  11.1900158  60.8542747  21.7627354  10.1480227  62.2293015
  22.1284924   9.3798504  61.5479507  22.4243317  10.3712559  63.0662956
  20.5739918   9.5059919  62.8064499  20.1671543  10.0521374  63.6575127
  19.7032642   9.4950676  62.1508446  20.8325100   8.0761843  63.2871246
  21.5727234   7.9338202  63.9593735  19.9689350   7.6223221  63.5485649
  21.2501373   7.5856528  62.5092621  22.6498928  14.6326351  61.1565819
  21.9984894  14.7792835  62.2025528  23.7300434  15.3717461  60.8621025
  24.2257328  15.2803450  59.9868622  24.1975975  16.3788185  61.8195305
  24.2104168  15.8774776  62.7873077  25.6469440  16.7127438  61.6130714
  25.8219528  17.4972019  62.3493500  26.1786995  15.7937956  61.8597870
  25.7631969  17.0409355  60.5801773  23.2353992  17.6321468  61.8029251
  22.7945557  18.0536518  62.8969955  22.8175621  18.0935802  60.6025162
  23.3468132  17.8662395  59.7728729  22.0401917  19.3771915  60.3658447
  22.6569920  20.2571392  60.5484657  21.7516727  19.5486679  58.8834534
  21.1284733  18.7051868  58.5863571  20.9378433  20.7476921  58.4180374
  20.8878574  20.8000870  57.3304443  19.9309139  20.6485100  58.8234482
  21.3806648  21.6484032  58.8431702  23.0628605  19.6012421  58.1038742
  23.6325798  18.7064495  58.3545952  22.9616203  19.7221336  57.0253410
  23.6911240  20.4281063  58.4350548  20.8121357  19.4525414  61.3011627
  20.5231953  20.4913960  61.8387108  20.0899048  18.3557014  61.5447464
  20.3496189  17.5805130  60.9516792  18.9426460  18.3238144  62.4561806
  18.2401905  19.0271873  62.0090561  18.2747059  16.9427948  62.4547348
  18.0646095  16.6698723  61.4205818  19.0359764  16.2566891  62.8259811
  17.1567383  16.7970753  63.4374924  17.5222664  16.8083591  64.4643173
  16.4320030  17.5930595  63.2664223  16.5120163  15.4038515  63.3298874
  17.3383179  14.7185106  63.1411171  15.9123545  15.1614599  64.2072449
  15.6017370  15.3407078  62.2293777  15.9251442  14.7119064  61.5081863
  14.4361134  15.9623919  61.9934769  13.9654837  16.7924595  62.8621979
  14.4573622  16.9197311  63.7350998  13.0383244  17.1930008  62.8689117
  13.8024521  15.6135750  60.9360924  12.8791361  15.9983912  60.7964134
  14.3052292  15.0553427  60.2610435  19.2787685  18.8459911  63.9095154
  18.4113312  19.3371601  64.6529160  20.5468235  18.6981068  64.4018860
  21.2262917  18.3561363  63.7374458  20.9078465  18.8783855  65.7783051
  20.0815849  18.4785137  66.3660965  22.2209339  18.1941586  66.1469193
  23.0341854  18.6336651  65.5693741  22.4352970  18.3487415  67.2043915
  22.2718849  16.7128983  65.8681259  21.6205902  16.4160709  65.0460510
  23.2639618  16.4106369  65.5326843  21.9257374  15.8239641  67.0582275
  21.0203094  14.9234982  66.9692688  22.4347134  15.9831190  68.1900940
  21.0241528  20.3998260  66.0128937  20.9659462  20.8708153  67.1226883
  21.1985455  21.2528267  64.9978256  21.3359566  20.9589863  64.0413361
  21.3358688  22.6732273  65.1597214  22.0017796  22.8746948  65.9988098
  22.0617428  23.2935848  63.9536247  21.5804405  22.9095592  63.0541954
  22.0053043  24.3652859  64.1443405  23.4721565  22.9714794  63.8564186
  23.9653053  23.1315613  64.8152084  23.8060665  21.5996437  63.3716583
  23.4765110  21.5534763  62.3336983  24.8403778  21.5329494  63.0342369
  23.4665642  20.7670174  63.9877510  24.1792316  23.9152927  62.9103394
  23.8233967  23.7000332  61.9027977  23.7870369  24.9316788  62.9456787
  25.2625389  23.8385258  63.0033607  20.0798931  23.4770756  65.5490952
  18.9702473  23.1921310  65.1169052  20.2214565  24.5811405  66.3045273
  21.1561813  24.7240181  66.6594543  19.0065899  25.3425407  66.7998581
  18.3466339  24.6288071  67.2929535  19.4936028  26.3393250  67.8562241
  20.1323109  25.8813267  68.6114655  20.1018639  27.0702553  67.3234406
  18.2863884  26.9029465  68.4402618  17.9647350  26.1666374  68.9656067
  18.3342552  26.1277809  65.7120819  18.9252396  27.1034641  65.2729645
  17.1641960  25.5843334  65.3494873  16.8111877  24.7522736  65.8002167
  16.3321304  26.0353642  64.2818832  15.3137655  25.8416958  64.6188202
  16.4755592  27.1044235  64.1249084  16.3795452  25.3176079  62.9383087
  15.6564159  25.6825695  62.0144882  17.2984829  24.3945580  62.7158127
  17.8706169  24.0869637  63.4892120  17.6358299  23.7580242  61.4214668
  17.3832626  24.4161263  60.5900764  19.1811485  23.5099773  61.4034538
  19.4827900  23.0158558  62.3270073  19.4353409  22.8683395  60.5597725
  20.0177631  24.7147026  61.2223129  20.3138676  25.5698891  62.2248344
  20.0752907  25.5248451  63.2771912  21.0455189  26.6499367  61.7635612
  21.2036247  27.5308170  62.2317009  21.3220806  26.5275135  60.3985710
  21.7890835  27.3962975  59.3383713  22.0312920  28.4464779  59.4080544
  21.9390488  26.8230820  58.0804749  22.4453621  27.3605976  57.2923584
  21.5479527  25.5126743  57.8042412  21.7482548  25.0276718  56.8602829
  20.9470806  24.7356796  58.7702980  20.4983692  23.8069019  58.4502525
  20.7288666  25.2677097  60.0668030  16.8099575  22.4568882  61.1362495
  17.0475826  21.9002399  60.0532074  15.8115416  22.1016121  61.9625282
  15.7258205  22.5267506  62.8746758  14.9885950  20.8970013  61.7802696
  15.6237144  20.0262108  61.6176453  14.1158190  20.7290726  63.0324860
  13.5102882  21.6238003  63.1770477  13.4251080  19.9332066  62.7538910
  14.9167051  20.4727421  64.3168259  14.1614132  20.2210808  65.0613403
  15.6162710  19.6387882  64.2599716  15.6398687  21.7394161  64.8016052
  15.1688337  22.8554745  64.7219620  16.7859306  21.5619850  65.3141861
  17.0988007  20.6022892  65.2795792  17.3937778  22.3509598  65.4819412
  14.0761108  20.7579327  60.5137253  13.7938070  19.6147156  60.0910339
  13.8025036  21.7779446  59.6920967  14.2122478  22.6544991  59.9816895
  13.0578032  21.7380676  58.3941612  12.5166311  20.8083363  58.2185707
  11.9928970  22.8529186  58.4147568  12.5324717  23.7949123  58.3167419
  11.3021727  22.7204342  57.5820160  11.0179491  22.7547970  59.6428452
   9.9484510  21.8411350  59.5902672   9.5746670  21.3721390  58.6920891
   9.1971731  21.5196571  60.7637215   8.2938290  20.9338493  60.6788788
   9.5125732  22.1443233  62.0367851   8.9116163  21.9304447  63.1904526
   8.0346718  21.5635204  63.0565376  10.5997629  23.0141563  62.0514107
  11.0240879  23.3500004  62.9860573  11.3820267  23.2845078  60.9440079
  12.3056316  23.8222122  61.0996590  13.9589977  21.9136848  57.1665306
  13.3806648  21.6071033  56.1402435  15.1813211  22.4859886  57.2733345
  15.5075960  22.5495892  58.2270622  16.1097336  22.4962234  56.1883278
  15.8356409  23.2759209  55.4776611  17.5064926  23.0252228  56.7330093
  17.6406288  22.5717468  57.7150803  18.7130547  22.8726368  55.8212814
  19.0004120  21.8212337  55.8301010  18.4270096  23.2836609  54.8531189
  19.5046349  23.5318756  56.1775246  17.4829426  24.5781841  56.9359245
  17.5730972  25.1212902  55.9951744  16.5909386  24.8232746  57.5124321
  18.2311249  24.9129410  57.6544342  16.3805542  21.1659927  55.5361099
  16.6931458  20.2178783  56.2676201  16.1927586  21.0451832  54.2064896
  15.7755690  22.0769157  53.3245277  16.3123817  23.0242500  53.3744125
  14.7371397  22.2670288  53.5958710  15.7631445  21.4507504  51.8918839
  16.6091347  21.6702690  51.2405663  14.8436670  21.7879505  51.4133911
  15.6221113  19.9799557  52.0709915  16.1929379  19.3395481  51.3985825
  14.5899649  19.6948242  52.2746468  16.3468304  19.8313484  53.4595490
  15.8127880  19.0124874  53.9415894  17.8500843  19.6098862  53.2406082
  18.6764240  20.3570709  52.6982231  18.2052498  18.3884640  53.6743774
  17.3910332  17.8483067  53.9300766  19.6237564  17.8065777  53.4422798
  20.2812653  18.5844460  53.0540733  20.2962265  17.2066517  54.7590561
  20.2847862  16.1204681  54.8495102  21.7932510  17.4874134  54.6028366
  22.2126465  17.2587624  55.5825958  22.3335152  16.9039402  53.8573341
  21.9402065  18.5554867  54.4424400  19.7519836  17.7525749  56.0623932
  18.7235107  17.4147758  56.1898193  20.3385429  17.2854500  56.8534966
  19.8709221  18.8356266  56.0932465  19.5716248  16.8291912  52.2683716
  18.5775738  16.1302452  52.0227852  20.7157383  16.6314735  51.6037941
  21.4466572  17.2110405  51.9910431  21.1609058  15.7516184  50.5722809
  20.5324726  14.8645554  50.6515961  21.0256824  16.4147911  49.1678658
  21.5194016  15.7784386  48.4334297  19.5638943  16.5749168  48.7218475
  19.1308651  15.5838318  48.5864258  18.9937725  17.1882648  49.4196053
  19.6450558  17.0566826  47.7474670  21.6452637  17.6542473  49.0410843
  21.6720943  18.0054493  49.9341354  22.5538197  15.1615410  50.9094772
  23.2501831  15.7659655  51.7311020  22.8813152  14.0022554  50.3933792
  22.2997799  13.4816246  49.7523956  24.1553440  13.4124775  50.7595825
  24.9872723  14.0731430  51.0035515  24.0012360  12.5448418  52.0113449
  23.4881706  13.0755014  52.8133850  23.5641270  11.5708675  51.7913246
  25.6267567  12.3474712  52.7719955  26.1182404  11.2443180  52.2006874
  24.6387901  12.6340990  49.5432777  23.8325310  12.0139723  48.8732948
  25.9791088  12.4575825  49.3579979  26.6974926  12.8144321  49.9717445
  26.4326935  11.6999788  48.1131859  25.7638664  10.8516788  47.9677238
  26.4530411  12.6146851  46.9288864  26.6425457  12.0689125  46.0045929
  25.4677887  13.0696363  46.8269348  27.5481777  13.7420549  47.0070419
  27.3960075  14.4415016  47.8290596  28.5250378  13.2893772  47.1771278
  27.6202412  14.7043324  45.4830704  28.9382973  15.9195890  45.9124832
  29.8838539  15.4731426  46.2202301  29.0743599  16.5373001  45.0247765
  28.6156750  16.5913696  46.7079239  27.8320045  11.0712233  48.4018478
  28.5836143  11.5827093  49.2073936  28.0987854  10.0052109  47.6235199
  27.4121857   9.8086195  46.9093552  29.5287209   9.6302376  47.4756012
  29.9009476   9.5322256  48.4953804  29.6675034   8.2914429  46.6840515
  28.9301929   7.6623096  47.1827164  29.5110855   8.4094629  45.6118088
  30.9967403   7.5774717  46.8528481  31.0292988   6.7396898  46.1563110
  31.8153362   8.2771683  46.6842461  31.0136261   7.0128775  48.2666969
  30.5171947   5.9214406  48.5874023  31.4573803   7.8135304  49.1937904
  31.9568233   8.6859741  49.0963058  31.3695393   7.4230556  50.1211052
  30.3315010  10.7212896  46.7562828  29.8322544  11.1896152  45.7781372
  31.4750576  11.1894302  47.2925186  31.8518162  10.8156757  48.1518593
  32.4014435  12.0864687  46.4405136  31.8601532  12.7643147  45.7804909
  33.3018150  12.8537588  47.4010849  32.7504501  13.5036688  48.0805779
  33.8781204  12.2279177  48.0824776  34.2053719  13.9300489  46.7084885
  35.1638756  14.0031309  47.2223282  34.6230049  13.4703417  45.8127480
  33.5927658  15.3627748  46.4047775  34.3517609  16.1853199  45.8074074
  32.4918175  15.7521000  46.8828354  33.2926979  11.2118816  45.5440102
  33.6071358  10.0390739  45.9364128  33.5701447  11.7327003  44.3665123
  33.1676788  12.6311693  44.1409531  34.0792732  10.8792200  43.2346497
  33.3320808  10.1111050  43.0351410  34.2911110  11.7762203  42.0618401
  33.2828026  12.1816034  41.9776611  35.0088158  12.5860615  42.1928177
  34.7718201  10.9254103  40.8696404  35.8549461  10.8034859  40.8785744
  34.1929817  10.0095987  40.7499237  34.4149857  11.6923599  39.3026924
  36.0374451  12.4448032  39.1701622  36.1704216  13.1820040  39.9619598
  36.8826180  11.7706394  39.3090286  36.2206306  12.9685078  38.2319260
  35.4125252  10.1981964  43.6463509  36.3062897  10.7761984  44.1360359
  35.5933113   8.9400911  43.2614250  34.8820572   8.5123901  42.6858444
  36.8034172   8.1341200  43.5476112  37.1770821   8.3360481  44.5514526
  36.4480362   6.6776285  43.4258499  35.6532326   6.3604703  44.1009789
  36.1304321   6.4025149  42.4200974  37.6664696   5.8238659  43.9418793
  38.5037155   6.3354955  44.7664528  37.7346382   4.6839056  43.5215912
  37.9406204   8.4977560  42.6108665  37.9450264   8.1933279  41.4027863
  38.9433289   9.0999260  43.1167068  39.0117874   9.1161928  44.1242561
  40.0484581   9.7446861  42.4544983  40.0528831   9.4208012  41.4137383
  39.8646698  11.2653627  42.4764099  40.0050774  11.7116470  43.4608994
  41.0862160  11.8603191  41.7871857  41.1569633  11.4351549  40.7860184
  40.9404373  12.9396782  41.7443733  41.9919243  11.6368494  42.3509712
  38.6246872  11.8871861  41.8460579  38.1655922  11.1516485  41.1855164
  37.9655037  12.2302980  42.6434593  38.9104271  12.6658163  41.1388130
  41.2379646   9.3407717  43.2676620  41.2347679   9.2097826  44.4894981
  42.2900848   8.9206219  42.5898285  42.1830635   8.8168306  41.5908928
  43.6117439   8.3013611  43.1466942  43.2558289   7.4325876  43.7004585
  44.4488907   7.6039977  42.0986481  43.8206711   7.0323029  41.4155617
  45.1974678   8.5759544  41.0758133  44.5897675   9.4138660  40.7341805
  46.0936546   8.9171104  41.5940361  45.4998169   8.1463213  40.1207657
  45.4006310   6.7789841  42.6532249  44.9278183   5.9469638  42.7293282
  44.4438591   9.2226238  44.0221024  44.6960068  10.4011517  43.6651535
  44.7938805   8.6701727  45.1806755  44.4723358   7.7221985  45.3150406
  45.5816536   9.2472630  46.2399712  45.6688423   8.4705343  46.9997025
  46.5632935   9.5439749  45.8705788  44.9108429  10.4394264  46.8841095
  45.6135178  11.2242689  47.5931435  43.5868988  10.5956783  46.8631706
  43.0864296  10.0470114  46.1786308  42.8643913  11.4461794  47.8316307
  43.3113899  12.4083042  47.5814056  41.8288269  11.4748526  47.4926949
  43.0572357  11.1068268  49.3182411  43.3796768   9.9958210  49.7204056
  42.8023911  12.1003151  50.1625977  42.5907516  13.0108118  49.7800980
  42.7737579  12.0751448  51.6691780  43.7178993  11.7028084  52.0667496
  42.4429703  13.5616283  52.1592941  42.9412231  14.3007698  51.5319862
  41.4144897  13.6971064  51.8246765  42.5772629  13.8653297  53.6912193
  41.7454987  13.4054232  54.2248459  43.9481697  13.4725170  54.2803841
  44.8438110  13.8229055  53.7673988  43.9343224  13.7742071  55.3277130
  44.1059608  12.3952627  54.2281990  42.2918320  15.3077974  53.8424263
  41.2861061  15.5654860  53.5104256  42.4688835  15.6633196  54.8574905
  42.9535065  15.8610792  53.1759644  41.7102356  11.1663160  52.2145691
  40.5145683  11.3280487  51.9935074  42.1643829  10.1023569  52.9296913
  43.1518593   9.9988852  53.1148491  41.3182678   9.0925045  53.6318169
  40.7187462   8.4531727  52.9837990  42.2453423   8.0803614  54.2764702
  43.0078201   8.5250254  54.9160042  41.5879173   7.4746041  54.9001274
  43.0225258   7.1296945  53.3562737  42.3205147   6.6118522  52.7027283
  43.6763992   7.7510633  52.7443466  43.7748604   6.0105190  54.1523056
  43.1280365   5.7323184  54.9843674  44.1076279   5.2081327  53.4938660
  45.1060181   6.5058069  54.6315155  45.6647415   6.9557443  53.8108521
  44.8718414   7.3107262  55.3281975  45.7419014   5.4816432  55.5211449
  46.6919212   5.7664752  55.7120285  45.1961975   5.3729892  56.3640594
  45.7549324   4.6013675  55.0261269  40.3069572   9.6749916  54.6206703
  40.6589813  10.6861448  55.2530441  39.1447334   8.9841776  54.7455750
  38.9973564   8.3242102  53.9953613  38.1075249   9.2272825  55.8228798
  37.3325653   8.5186796  55.5306168  38.7867088   8.7446537  57.2234001
  39.7026024   9.3102436  57.3947105  38.2007790   8.9199800  58.1256485
  39.0736961   7.2277851  57.3181229  38.1272812   6.7361598  57.0929375
  39.8798180   6.8938999  56.6648293  39.5237503   6.7929611  58.7542000
  40.1748657   7.5564966  59.1798363  38.6834831   6.7157445  59.4441948
  40.2309532   5.4788828  58.6694984  39.6976204   4.7112479  58.1087914
  41.1458702   5.5838618  58.0863914  40.5813637   5.0030580  59.9814911
  39.7502174   5.0100112  60.5552979  41.0848541   4.1314435  59.8984909
  41.2951851   5.4458752  60.5422707  37.5886650  10.7159681  55.9410286
  37.4481850  11.3381996  57.0200500  37.3238602  11.2473812  54.7340431
  37.1511307  10.6677971  53.9251251  37.0233192  12.7255745  54.6469460
  37.3874512  13.0968466  55.6048927  38.0347633  13.2436543  53.5824814
  39.0431862  13.3224916  53.9886475  38.2484436  12.5357885  52.7816238
  37.6397324  14.9658089  53.0651512  37.5963974  15.5005341  54.2887077
  35.4997902  13.0279369  54.4528351  34.7819443  12.3761501  53.6692123
  35.0644531  14.1357021  55.1125069  35.7626953  14.7042017  55.5700760
  33.7142258  14.6243639  55.0235023  33.1929970  13.9748926  54.3202133
  33.0219612  14.4818363  56.3424797  33.7452126  14.5931807  57.1503220
  31.9103413  15.5303049  56.6335106  31.3728504  15.0745811  57.4650879
  32.4887047  16.4118519  56.9100494  31.2120342  15.7364092  55.8223457
  32.4340897  13.0174456  56.4940300  31.3642712  13.1288805  56.3174820
  32.9598083  12.3214417  55.8403473  32.5758591  12.5778399  57.9315834
  32.1693077  11.5693493  58.0075188  33.6517639  12.5200462  58.0964775
  32.0122643  13.0990076  58.7054405  33.6985855  16.0975380  54.4980774
  34.6440964  16.8503952  54.7235451  32.6553764  16.4184341  53.7310066
  31.9133892  15.7406874  53.6299171  32.6456451  17.5550919  52.8148994
  33.3772392  18.2926674  53.1448288  32.8930206  17.2499504  51.3388481
  32.3513374  16.3191547  51.1706200  32.3850250  18.0321236  50.7747154
  34.4123840  17.0881367  50.9288750  34.8649559  18.0790977  50.8931274
  35.0335045  16.3691826  51.4631195  34.3918419  16.5809669  49.5270348
  34.0958099  15.5446711  49.6899948  33.6874390  17.0957184  48.8736191
  35.7321053  16.6248550  48.8967896  35.9519463  17.5275440  48.5006599
  36.6279030  15.6874647  48.9852333  36.4713516  14.6057701  49.6943436
  35.6102333  14.4932013  50.2100067  37.2030640  13.9127235  49.6281662
  37.7431259  15.7910967  48.3288574  37.8854485  16.5256977  47.6504745
  38.4917946  15.1186905  48.4152603  31.1901417  18.1635818  52.8586388
  30.2731991  17.4773808  53.2059097  31.0431995  19.4248066  52.4664993
  31.9217777  19.9182796  52.3980331  29.7555885  20.2105198  52.4989929
  28.8736820  19.5743923  52.4235535  29.5865555  20.9774551  53.8585625
  29.5476608  20.3284206  54.7334061  30.7300148  21.9570751  54.0334320
  30.6390038  22.5934162  54.9137077  31.6514091  21.3747368  54.0368919
  30.7259216  22.7332840  53.2681961  28.2444077  21.7143612  53.8278046
  28.1801186  22.5441837  53.1239815  27.3966408  21.0671215  53.6031418
  28.0296955  22.0462246  54.8436127  29.7315140  21.1428394  51.2980576
  30.8125935  21.6316280  50.9655838  28.5400047  21.4175682  50.6917763
  27.8012543  20.7501640  50.8618393  27.9860268  22.6534386  50.0718384
  28.6437950  23.4937191  50.2940331  28.1995525  22.6128254  48.5350227
  29.2418270  22.3457966  48.3604927  27.5283546  21.8567848  48.1275978
  27.8849716  23.9077644  47.8625603  26.9602489  23.6240616  47.3600655
  27.8053112  24.7598991  48.5375595  29.1177616  24.4343452  46.6347198
  28.9921265  22.9724331  45.6103401  29.9844723  22.6165295  45.3334236
  28.3214188  22.2323208  46.0467834  28.4900723  23.1778679  44.6649055
  26.5627918  22.9376945  50.4154854  25.6236324  22.2511082  50.0367661
  26.4482403  23.9288998  51.2870331  27.2822361  24.4713154  51.4612007
  25.1591702  24.5865631  51.4975357  24.3794460  23.8632278  51.2589569
  25.0454292  25.0428581  52.9388924  23.9895039  25.2367210  53.1274185
  25.3426685  24.2633762  53.6404305  25.7702141  26.3925877  53.3234787
  26.7881870  26.3177414  52.9410820  25.2685852  27.2802410  52.9380684
  25.9475746  26.6641140  55.1633263  26.9155254  28.1623898  55.4137993
  26.4808426  28.9140968  54.7549400  26.8926392  28.4401760  56.4675598
  27.9454098  27.9040089  55.1674728  24.9671364  25.7014561  50.4285583
  25.9179688  26.3745651  50.0227242  23.7168407  25.8154697  49.9512367
  22.9340591  25.3266087  50.3615608  23.2877560  26.9115791  49.0653534
  24.2292252  27.3967209  48.8077240  22.6568527  26.4715900  47.7781334
  21.7881184  25.8836555  48.0743484  22.1968555  27.6045704  46.7373886
  21.7067127  27.1665134  45.8679237  21.5039978  28.3007221  47.2100601
  23.0854321  28.1744366  46.4657516  23.5384121  25.7104836  47.0799866
  23.8855648  25.0142403  47.6424217  22.3887768  27.8907051  49.7246056
  21.3274994  27.4191170  50.2583504  22.7285652  29.2101269  49.7988853
  23.5759716  29.5274296  49.3502007  22.1140976  30.1940746  50.7157402
  21.0661831  29.9549637  50.8968468  22.8491325  30.1511898  52.0701942
  22.3673878  30.8399696  52.7641716  22.7863197  28.8227978  52.8663483
  21.7615490  28.4579353  52.9357224  23.4084072  28.1238995  52.3071976
  23.1704082  28.9074574  53.8829155  24.3015995  30.5819721  51.9159851
  24.2978001  31.6236210  51.5949707  24.7693253  30.5426006  52.8997459
  24.8364868  29.9464073  51.2102585  22.1374149  31.5912876  50.1053009
  23.0321999  31.9308834  49.3832626  21.1730480  32.4090042  50.5557175
  20.4877853  32.0058250  51.1785812  21.0852318  33.8349419  50.2965584
  21.2180557  34.1325493  49.2564201  19.6157379  34.2428284  50.7083931
  19.3611755  33.8121567  51.6768036  19.6129589  35.3145065  50.9073944
  18.5675697  33.8679428  49.6603775  19.0043106  34.1895180  48.7148895
  18.4548855  32.7847061  49.7051468  17.1748104  34.5189781  49.6387100
  16.4646130  34.4436874  48.6458244  16.8897934  35.2730942  50.6357269
  17.5086365  35.3930702  51.4248657  15.9435225  35.6045456  50.7574768
  22.1341896  34.5736465  51.1175385  22.2264156  34.2959442  52.3299904
  22.9047203  35.3990936  50.5187225  22.7799911  35.5234833  49.5242043
  23.9251251  36.2756310  51.0938911  23.5560398  36.7101402  52.0229149
  25.1143513  35.3717422  51.5538788  24.6909828  34.5569992  52.1412926
  25.8595963  34.8120766  50.3425674  26.2648182  33.8362961  50.6104355
  25.2804928  34.8268738  49.4192467  26.6904202  35.5012856  50.1914864
  26.0864792  36.0418053  52.3206520  26.7949333  35.4211540  52.5063629
  24.2337017  37.4108734  50.1889534  24.2290001  37.3499146  48.9534111
  24.6055794  38.5101089  50.8161469  24.5108566  38.5632744  51.8202896
  25.1884918  39.7020454  50.1750298  24.7422848  39.7813263  49.1837082
  24.7629700  40.9978600  50.9610863  24.7798290  40.6553802  51.9957466
  25.4182434  41.8451347  50.7589874  23.3560543  41.5086479  50.8263245
  22.9203568  42.1173096  51.8204651  22.7539463  41.2785721  49.7567406
  26.6839237  39.6495476  49.9174385  27.2855682  40.5598412  49.3406410
  27.3637295  38.5563812  50.2143898  26.8977528  37.8200912  50.7251167
  28.8179684  38.4275665  50.2342453  29.1961403  39.3956604  50.5626984
  29.3328743  37.5163002  51.3062592  29.0242901  36.4816704  51.1565323
  30.8715839  37.5052452  51.2078400  31.2702122  36.9455566  52.0539742
  31.2554703  36.9777489  50.3346405  31.3968220  38.4564095  51.2945709
  28.9547577  37.9827309  52.7304764  27.9075356  38.2100334  52.9298706
  29.2932091  37.1988640  53.4080467  29.5457859  38.8728333  52.9461441
  29.2844296  37.9779549  48.8099251  28.9752045  36.8984032  48.3190727
  30.1794720  38.7711105  48.2067375  30.8469276  39.9799385  48.6567230
  31.7442970  39.5503693  49.1020317  30.2796211  40.5838928  49.3648911
  31.2345333  40.6953735  47.3938980  31.9561672  41.4778290  47.6286469
  30.3294659  41.1868057  47.0369034  31.7971420  39.5653076  46.5977478
  32.8348999  39.3404160  46.8438911  31.8885117  39.8442993  45.5480232
  30.7880650  38.4319878  46.9052544  29.9757061  38.3403740  46.1842957
  31.5521069  37.1189957  46.9317627  32.2019501  36.6617432  47.8697968
  31.4850044  36.4716148  45.7097435  31.0076237  36.9047432  44.9321785
  32.0290565  35.0951233  45.4144821  31.5297718  34.3788643  46.0670166
  31.6921940  34.8491325  43.9455070  30.6120358  34.9638443  43.8550301
  32.0166130  35.6731987  43.3100815  32.1797905  33.4986115  43.4391594
  33.1860466  33.3316040  43.8234177  31.6463814  32.7430649  44.0159836
  32.1262932  33.4686432  41.9506874  33.0449104  33.9139824  41.2604027
  30.9224586  33.0199814  41.3961334  30.1469307  32.7349396  41.9770088
  30.8064175  33.1901627  40.4073601  33.5433998  35.0773239  45.8142052
  33.9552650  34.0905266  46.3862991  34.2948341  36.1288719  45.5529213
  33.8093147  37.0039978  45.4168129  35.7462654  36.1506119  45.9262810
  36.1436081  35.1477547  45.7697563  36.4450607  37.2143059  45.0291061
  37.5300980  37.1224060  45.0775948  36.0840759  37.0550957  44.0130157
  36.0633850  38.6809235  45.3169403  37.0037231  39.4564552  45.3988380
  34.8018646  39.0797081  45.3712807  36.0169106  36.4825325  47.3872871
  37.2064362  36.3679008  47.7723007  35.0042076  36.7925873  48.1567917
  34.0614052  36.7653923  47.7955666  35.1654091  37.0208359  49.5844078
  36.2417068  36.9755745  49.7506485  34.5728836  38.4347839  49.8885193
  33.4833527  38.4568329  49.8654022  34.8462830  38.6963387  50.9107437
  35.0932465  39.5556259  48.9545822  36.1810570  39.4990997  48.9149208
  34.6956100  39.3417358  47.9624939  34.7470551  40.9751854  49.4615555
  33.8223457  41.2741737  50.2297211  35.5162163  41.8772736  48.9006500
  36.3272514  41.5485268  48.3964119  35.5451622  42.8190117  49.2645035
  34.4118080  35.9952469  50.5237389  34.5643272  36.2069778  51.7167168
  33.6965942  35.0116730  49.9565086  33.8319550  34.7957840  48.9791794
  33.1281433  34.0278320  50.8604088  32.5482941  34.5050163  51.6504555
  32.1988144  33.0026627  50.0889168  32.6675453  32.5836945  49.1984863
  31.7452335  31.7849617  50.8951797  32.6246300  31.1758766  51.1044006
  31.1751423  31.9903126  51.8012314  31.1149693  31.1558723  50.2666016
  30.9124336  33.7577667  49.6357727  30.2237778  33.7900887  50.4800529
  31.1939354  34.7843971  49.4014740  30.1513882  33.1599808  48.5299187
  29.3207130  33.8282280  48.3029251  30.7775860  32.8690948  47.6864929
  29.7792740  32.1621590  48.7622566  34.1409149  33.3319092  51.7025719
  35.1467628  32.8347321  51.1527328  33.9151192  33.2208710  53.0439339
  33.0164299  33.4791985  53.4256744  34.7091637  32.3075104  53.8767242
  35.7465439  32.3413200  53.5438499  34.4272270  32.7883987  55.3061295
  33.3785286  33.0398521  55.4645691  34.6615639  31.9765835  55.9947166
  35.2628021  33.9923592  55.6779366  36.3010635  33.7076950  55.5074081
  35.0557022  34.8456345  55.0320816  35.2382545  34.3968201  57.1496811
  34.2425537  34.3158264  57.5857124  35.9818611  33.8571739  57.7361336
  35.6569252  35.8560944  57.3136597  35.4888000  36.4516525  56.5154457
  36.2144890  36.3997993  58.3569221  36.3724785  35.7949867  59.5106659
  36.7413216  36.1767159  60.3699341  35.8102608  34.9589424  59.5816879
  36.6095543  37.6220360  58.4397202  37.0924377  37.8541451  59.2959023
  36.5864754  38.2283211  57.6322632  34.3761978  30.8567104  53.6739693
  33.5171700  30.2942638  54.3632202  35.0442238  30.2328339  52.7088928
  35.6582069  30.7808037  52.1233482  35.0442734  28.7303696  52.6309433
  34.0300255  28.3708134  52.8045044  35.4423027  28.3012772  51.2442551
  36.4987984  28.5306892  51.1053810  35.4400291  27.2171535  51.1312485
  34.5821342  28.7679520  50.0436859  33.1381950  28.5980167  49.8713684
  32.9012260  29.2194843  48.7467575  31.8913212  29.4474392  48.4393044
  34.0357666  29.6822567  48.1626396  33.9507904  30.4398575  47.5001259
  35.0383339  29.5290146  49.0681839  36.0360985  29.9407921  49.0318832
  35.9757423  28.1308041  53.7391281  37.0815010  28.6636047  53.9447784
  35.4470367  27.1479416  54.5044250  34.4911613  26.9134941  54.2776260
  35.8941193  26.7808838  55.8317604  36.7517967  27.4241142  56.0286064
  34.8673286  27.0955334  57.0035667  33.9688644  26.5189114  56.7836342
  35.2221375  26.7676830  58.4132538  35.4679451  25.7058220  58.4248886
  35.9571571  27.4320450  58.8676376  34.2885056  26.7904720  58.9753151
  34.3497734  28.5277538  57.0078087  33.8199921  28.8182411  57.9150238
  35.1663475  29.2487106  57.0469131  33.8828964  28.8314514  56.0708466
  36.2668266  25.2387695  55.8382416  35.4303932  24.3579788  55.7463722
  37.5462341  25.0002422  56.1699142  38.2566833  25.7175045  56.1399841
  38.1076012  23.5975113  56.2603531  37.2995872  22.9027119  56.0312958
  39.0531883  23.3814240  55.0570107  39.7227821  24.2414513  55.0469360
  39.6293526  22.4739723  55.2377434  38.3691101  23.3352280  53.7127686
  37.9698906  24.4713917  53.0125084  38.0719604  25.4008427  53.5529709
  37.4151726  24.3773155  51.7437859  37.0002975  25.2721672  51.3038635
  37.3507118  23.1560726  51.0489883  36.6761742  22.9774494  49.8777084
  36.8247910  22.1358871  49.4403419  37.8396378  22.0140858  51.7072525
  37.7664146  21.0404186  51.2457199  38.2849808  22.1399612  53.0455704
  38.8002739  21.2640686  53.4112015  38.7646141  23.4256916  57.5976944
  39.4819069  24.3098545  58.1026917  38.4733162  22.2162342  58.1624489
  37.9040756  21.5548992  57.6538239  38.9632835  21.7620449  59.4600601
  39.5698738  22.5586052  59.8909340  37.7927246  21.5975685  60.4463310
  36.8340836  21.5099850  59.9350243  37.9850845  20.7398701  61.0908852
  37.5890160  22.7916679  61.3596306  38.5432739  22.9136257  61.8720894
  37.0986519  24.0520687  60.6647835  36.1541939  23.9598656  60.1285095
  37.1150169  24.8802853  61.3732262  37.8687592  24.4281921  59.9913101
  36.4788704  22.3769932  62.3758545  36.1182480  23.3165665  62.7944984
  35.6833000  21.8274097  61.8727379  36.8907967  21.6769428  63.1027260
  39.7563782  20.4677773  59.3740845  39.8449707  19.7440224  58.3790627
  40.3972130  20.1911621  60.5239754  40.2761269  20.8528481  61.2773743
  41.3101997  19.0208321  60.6883049  41.9495468  19.1224194  61.5652390
  40.5259895  17.7636051  61.0284653  39.9381905  17.5802994  60.1290245
  41.1836815  16.8952961  61.0682220  39.5755882  17.9479752  62.2920227
  38.7885971  18.6683064  62.0687065  39.0123901  17.0237331  62.4211807
  40.2394485  18.2868996  63.6203957  39.6391678  18.9588394  64.4208679
  41.4357758  18.1314964  63.7285347  42.2589684  18.8514175  59.4783554
  42.7340393  19.8470192  58.8519173  42.5537682  17.6243839  59.0790443
  42.2752647  16.8301888  59.6374321  43.4591179  17.3216896  57.9324036
  44.4164734  17.7961502  58.1479454  43.8057671  15.8164339  57.9720612
  42.8849106  15.3016720  57.6979408  44.6480179  15.6857595  57.2926178
  44.2029648  15.2216883  59.3818741  45.0055161  15.8101072  59.8265953
  43.3492012  15.1823435  60.0583649  44.6599922  13.7448025  59.4418030
  43.7509003  13.2111216  59.1646042  45.5026703  13.6072149  58.7642593
  45.2040520  13.5065613  60.8177032  46.1812782  13.9892473  60.8296623
  44.5090523  13.8361473  61.5900040  45.4613876  12.1095133  61.2205467
  45.8175888  11.5298042  60.4741135  45.9680786  12.0441370  62.0918083
  44.5442734  11.7493467  61.4425468  43.0418472  17.7809620  56.5522575
  43.8905563  17.8749065  55.6588058  41.7463570  18.1599903  56.4406586
  41.2535515  18.0800571  57.3186417  41.2532387  18.8466511  55.2486420
  41.5436707  18.2988224  54.3521881  39.7548141  18.7154598  55.1452599
  39.2729034  19.3788567  55.8634377  39.4745483  19.1219807  54.1735115
  39.4470215  17.6702862  55.1765404  41.8365555  20.2747784  54.9796791
  41.6822472  20.7094784  53.8341789  42.4698296  20.9832516  55.9705009
  42.3563271  20.5866032  56.8923950  43.1906967  22.2592583  55.7483711
  42.4300117  22.9959087  55.4898872  43.8788071  22.7309952  57.0883713
  43.2415543  22.6297302  57.9668655  45.1885681  21.9918919  57.4782333
  45.8734283  22.0887623  56.6357994  45.6184464  22.3839417  58.3999748
  44.9379311  20.9616070  57.7308044  44.2668800  24.1629429  57.0219040
  45.0993805  24.2696285  56.3264427  43.4055023  24.7421303  56.6892281
  44.6356125  24.7081585  57.8907394  44.1913376  22.2323551  54.6036263
  44.2420464  23.1583805  53.8198738  44.8126144  21.0456104  54.4620667
  44.7163429  20.3566742  55.1943245  45.9078522  20.8321609  53.4995422
  46.5398445  21.7199860  53.4782448  46.9575615  19.7906094  53.9357147
  46.5619431  18.7971973  53.7242279  48.3653488  19.8223820  53.2805710
  49.1464310  19.7701263  54.0390434  48.3736992  18.9249668  52.6619568
  48.5237198  20.6348171  52.5713692  47.2363892  19.8074474  55.4472580
  47.8593216  18.9805069  55.7881851  47.8521500  20.6695251  55.7037010
  46.3469086  19.7859116  56.0769043  45.4028358  20.6850071  52.0228920
  46.2040367  20.7656574  51.1050224  44.0304794  20.4687901  51.9005890
  43.4866943  20.4176083  52.7501640  43.3462639  20.4934692  50.5828667
  43.9797249  19.9081879  49.9163322  41.9289436  19.9305305  50.5425415
  41.2835503  20.6885090  50.9864159  41.6542473  19.9830418  49.4890327
  41.6521263  18.5097008  51.0909081  41.7099228  18.4935722  52.1792603
  40.1599617  18.1290054  50.8207703  39.4381676  18.8719063  51.1602058
  40.0132523  18.1336498  49.7406998  39.8401566  17.1476898  51.1712608
  42.4500809  17.3992786  50.4522858  42.1411095  16.4257622  50.8329430
  42.2850418  17.3597050  49.3755798  43.4973183  17.6406422  50.6343155
  43.3557320  21.9467258  49.9814034  43.3388786  22.0579014  48.7592621
  43.2250023  23.0175228  50.7652626  43.2371750  22.8395748  51.7593880
  43.0265160  24.4317665  50.3802452  43.4251289  24.6481819  49.3890991
  41.5620270  24.8374634  50.3829079  41.2044106  24.6347771  51.3924255
  41.4907455  25.9162598  50.2442818  40.7980614  24.0555077  49.3607483
  40.8845177  22.9711971  49.4307213  39.7432480  24.2934761  49.4980354
  41.0934753  24.4224968  47.9344101  42.1780090  24.3600311  47.8450584
  40.5517578  23.8189735  47.2061195  40.7028046  25.9013405  47.8543549
  41.4674797  26.5422020  48.0114326  39.6305542  26.4644737  47.3319817
  38.5179520  25.8294868  47.1063728  37.7719841  26.1954861  46.5321999
  38.5259399  24.8339901  47.2767372  39.7141647  27.7362442  47.0492592
  38.9116173  28.2653465  46.7393074  40.6234741  28.1559505  47.1800423
  43.9464645  25.3975277  51.0583649  43.5122375  26.2043438  51.8737755
  45.2680283  25.4449940  50.7439117  46.0178909  24.4042568  50.0419617
  46.0112534  24.5427399  48.9608154  45.5219612  23.4836483  50.3495979
  47.4631729  24.4592934  50.6870270  48.1644211  24.0356197  49.9681015
  47.4245148  23.8866196  51.6136627  47.6281509  25.9399796  50.8995667
  47.8640938  26.4183292  49.9489822  48.3902550  26.3013992  51.5899849
  46.2187538  26.4570541  51.2651558  46.0972519  26.5823269  52.3410988
  46.1333771  27.9465599  50.7609673  46.6502953  28.8792992  51.3088341
  45.3271103  28.1933861  49.7656326  44.7966728  27.4819355  49.2833786
  44.8167725  29.5209789  49.3967781  45.7031898  30.1547489  49.4233627
  44.2584000  29.4850349  47.9885025  43.8079071  30.4423103  47.7262383
  45.1519165  29.3113518  47.3888702  43.2360268  28.3551636  47.6792068
  43.3258057  27.2598057  48.1911087  42.2531738  28.6601849  46.8762283
  43.8177338  30.0023499  50.3977051  43.8040848  31.2344627  50.6362038
  43.0435600  29.1338272  51.0396957  43.0409698  28.1627350  50.7620773
  42.1360245  29.6876431  52.0576668  41.7631721  30.6498089  51.7065010
  41.0032310  28.7257881  52.2341576  41.2480507  27.7305088  52.6050873
  40.3720245  29.1336746  53.0236549  40.0647812  28.5427227  50.9868813
  40.7121925  28.3121986  50.1408195  39.0411415  27.4168835  51.3269157
  38.4332848  27.6981850  52.1868439  38.2995071  27.3231030  50.5336418
  39.5081673  26.4586945  51.5546494  39.2810745  29.7478657  50.4615173
  38.5378799  30.1432877  51.1539116  39.9196014  30.5625248  50.1198769
  38.6795807  29.3781433  49.6310921  42.7913857  29.9035492  53.3856621
  42.3979301  30.8134117  54.0681496  43.8701973  29.0975151  53.7173424
  44.1006165  28.3220634  53.1126251  44.5259514  28.9797020  55.0740433
  43.7577019  29.1372871  55.8310509  45.1589088  27.5822372  55.2873001
  44.4202232  26.8012829  55.1068878  45.9674530  27.4362679  54.5710220
  45.5931091  27.5718479  56.5877800  44.8297234  27.5167217  57.1672630
  45.5057259  30.1355400  55.1186752  46.3906517  30.2234955  54.3064651
  45.2963791  31.0142326  56.1118774  44.5083275  30.8254967  56.7147446
  46.1754761  32.1354675  56.4246101  45.5910378  32.7177315  57.1369972
  47.5117264  31.8136673  57.1414757  48.1806908  31.2793770  56.4668465
  47.9540443  32.7610435  57.4495888  47.3670425  30.8828068  58.4007111
  47.1548805  29.8828182  58.0224152  48.7935143  30.7365971  58.9324226
  49.2398643  31.7233677  59.0555725  48.6503105  30.1415691  59.8343811
  49.4352951  30.0451183  58.3864555  46.3582726  31.4783516  59.3936043
  46.3161469  30.7668209  60.2182579  46.7466965  32.4210434  59.7790375
  45.3682671  31.5736389  58.9476051  46.4954681  33.0650063  55.1861496
  47.6856194  33.2795448  54.8527451  45.4647636  33.7030792  54.6022301
  44.5272713  33.6158676  54.9677391  45.5829315  34.7463531  53.5449219
  46.4449196  34.5483475  52.9078407  44.3524895  34.6778221  52.6031837
  44.2887955  33.6674652  52.1991806  43.0756607  35.1968536  53.3015556
  42.9655571  34.8103867  54.3147812  43.1230965  36.2849731  53.3445740
  42.1630363  34.8883286  52.7916260  44.6682281  35.6069260  51.6376839
  45.5170898  35.3377914  51.2790794  45.9211731  36.1663933  54.0488777
  45.4604683  36.5727539  55.1010399  46.6963272  36.9717789  53.3380508
  47.3464584  36.5171089  52.7129936  46.8604317  38.4541397  53.6940193
  47.2443428  38.5755043  54.7069283  47.8493881  39.2478027  52.7706947
  47.8827019  40.2852249  53.1034851  48.8270111  38.8381271  53.0246964
  47.5896759  39.3263893  51.2627258  47.6976662  38.3125572  50.8772545
  46.5475349  39.5678825  51.0536041  48.4969444  40.2557373  50.4932480
  48.1561317  40.4639053  49.4790421  48.5930710  41.1810303  51.0613060
  49.8952827  39.6507683  50.3513298  50.2039680  39.2465744  51.3154068
  49.9429855  38.8025322  49.6684570  50.8655815  40.6587753  49.9231834
  51.8292961  40.3661385  49.8475952  50.6841049  41.1521454  49.0607681
  50.9259415  41.2951431  50.7051659  45.5041504  39.2227554  53.6304893
  45.3952065  40.3182182  54.1876411  44.5023041  38.6782684  52.9131546
  44.6541214  37.7169876  52.6429939  43.3545341  39.4895325  52.3645859
  43.7450447  40.4231148  51.9595833  42.6884117  38.6706238  51.2334480
  43.5091019  38.4551659  50.5492325  42.1742668  37.7568855  51.5315094
  41.6619263  39.5592346  50.4633026  41.1275749  40.5997238  50.9467125
  41.3479271  39.2523422  49.2032967  41.9079170  38.5636597  48.7213974
  40.6711121  39.8035851  48.6952057  42.3936043  39.8243179  53.5696678
  41.8405533  38.9351845  54.2818222  42.1745834  41.1393318  53.7200508
  42.6385841  41.8572235  53.1820602  41.3380890  41.6727104  54.7540321
  41.3295746  40.9624672  55.5808220  41.9256020  43.0307236  55.1382446
  41.3723221  43.4902763  55.9572601  43.4054222  42.8106232  55.4553986
  43.7854462  43.6628723  56.0187378  43.5027580  41.9848900  56.1602325
  44.0659790  42.5945473  54.6157150  41.7653084  43.9381752  53.9940491
  42.2201691  43.4538307  53.3011513  39.8923187  41.6871338  54.4504509
  39.0340042  41.6264191  55.3618927  39.4613991  41.7570686  53.1612167
  40.0227547  41.6652718  52.3266182  38.0168915  42.0071411  52.8837738
  37.7656364  42.8662033  53.5058556  37.8394966  42.4391632  51.3778725
  38.2616463  41.6649094  50.7372284  36.7813606  42.5136566  51.1270828
  38.4773750  43.8158913  51.1010475  39.5433731  43.7634888  51.3224106
  38.4667854  44.1797600  50.0736313  37.7677803  44.8930397  51.9596825
  36.5117912  44.9963799  51.7397881  38.4055634  45.6501617  52.7191124
  37.0237617  40.8758087  53.1628189  35.8078575  41.0803032  53.0127335
  37.4741211  39.6348457  53.3836212  38.4823647  39.5921555  53.3420448
  36.7674103  38.4382591  53.8036880  35.9031410  38.2721901  53.1605988
  37.7436142  37.2641716  53.6455574  38.5948105  37.5451241  54.2657471
  37.4053040  36.3808556  54.1872177  38.1212120  36.9052353  52.2250023
  37.6144981  37.5351868  51.4939079  39.6007614  37.1746445  51.9837379
  40.2071533  36.3455315  52.3483849  39.7765694  37.1676712  50.9080315
  39.9673462  38.0962372  52.4358253  37.8456650  35.4402046  51.8388290
  36.8850441  35.1920891  52.2902107  37.7599602  35.3072510  50.7603683
  38.4384651  34.7142067  52.3952599  36.1970901  38.6248055  55.1956978
  36.8815575  39.0684090  56.1338844  35.0564651  38.1482315  55.4668694
   8.3892002  34.4409370  48.2624397   8.6763477  33.9909515  49.1198540
   8.6737309  35.4082680  48.2040100   7.3826351  34.3584061  48.2732010
   8.7697706  33.7305794  47.1228600   8.4634037  32.6845207  47.1256142
   8.0968523  34.4252777  45.9834938   7.0434847  34.1507149  45.9275208
   8.0782356  35.5064659  46.1206093   8.6280890  34.0171394  44.5932693
   8.0608864  34.4174728  43.7529640   9.6643581  34.3435631  44.5055161
   8.5339861  32.1898994  44.4150162   7.0040412  31.9599819  43.4961014
   6.6010623  30.9695492  43.7076454   6.3334794  32.7103653  43.9148788
   7.0659170  32.2948494  42.4606628  10.2743902  33.7826805  46.9310532
  10.8968067  34.8141632  46.8098679  10.9152203  32.5778618  46.9755974
  10.3549891  31.7374802  46.9775429  12.3645420  32.4553795  46.9957390
  12.8315792  33.1301270  46.2783127  12.8910036  32.8320160  48.4672203
  13.9561548  33.0630531  48.4539070  12.5859404  33.8071365  48.8469353
  12.6224451  31.8639469  49.5438347  11.5541277  31.6500301  49.5760269
  13.0864820  30.9373741  49.2058525  13.3678455  32.4590378  51.0744171
  15.1295404  32.0414696  50.7234573  15.7614594  32.8363228  51.1196671
  15.3215809  31.0268860  51.0725174  15.2613468  32.0693970  49.6418152
  12.6426439  31.0149364  46.5451355  11.7463350  30.1683846  46.5074158
  13.8721743  30.7148361  46.2197609  14.5552588  31.3662701  46.5791054
  14.3529310  29.4095173  45.7332878  13.6759357  29.0161381  44.9749794
  15.7254820  29.4458084  44.9579811  16.5434952  29.8016911  45.5843201
  16.2180347  28.0518932  44.5363541  15.4092150  27.4121933  44.1832314
  17.1149139  28.0540333  43.9169159  16.4082298  27.4816551  45.4456139
  15.6806774  30.2091084  43.6327553  15.4765644  29.5485725  42.7900620
  14.7645760  30.7906971  43.5296860  16.9227238  31.1098976  43.3711662
  16.6004944  31.8648434  42.6539955  17.1416759  31.6231556  44.3075027
  17.7349415  30.4616833  43.0421982  14.4751196  28.5021858  46.8846436
  15.1842175  28.7781219  47.8534508  13.9796562  27.2869453  46.7534103
  13.5153131  27.0845776  45.8796043  14.0042105  26.2363930  47.7747993
  14.9377089  26.3348656  48.3288612  12.7012033  26.2430229  48.6909294
  11.9379587  26.0923595  47.9274788  12.5653286  25.4163494  49.3882446
  12.2758455  27.4912434  49.4401703  12.1566753  28.2890892  48.7071342
  11.3493671  27.2648849  49.9679031  13.3148613  27.9714527  50.4779816
  13.8816786  27.1072845  50.8244400  14.1467953  28.4867592  49.9979324
  12.7136183  28.8591862  51.4278717  11.7470188  29.0969467  51.2568283
  13.1885309  29.2775764  52.5959969  14.3265572  28.8909531  53.0741539
  14.8402033  29.5238228  53.6705971  14.9067049  28.3316536  52.4652901
  12.4147806  30.0318565  53.3031006  11.6607704  30.4809608  52.8032265
  12.6983442  30.3260479  54.2267609  14.1923113  24.8427372  47.2213478
  14.1019201  24.5720520  46.0096588  14.5154457  23.8724213  48.0427589
  14.6905184  24.0871010  49.0140305  14.7001963  22.4851055  47.6181526
  14.9439106  22.3018684  46.5716743  15.5534878  22.0868378  48.1671333
  13.4254608  21.6740913  48.0555458  12.8426409  21.9363213  49.0699425
  12.9362774  20.8194771  47.1204529  13.5495291  20.7367516  46.3222160
  11.8611898  19.8504639  47.3440437  11.6941319  19.9546089  48.4161186
  10.5779448  20.1371365  46.6044655  10.7853947  19.9986935  45.5433846
   9.4281912  19.0756683  46.9781952   8.7337208  19.0808430  46.1380844
   9.8255730  18.0752068  47.1492767   8.9275408  19.4334774  47.8778725
  10.1252670  21.6519489  46.7705002  10.1939697  21.8293839  47.8437653
  10.8628759  22.2795372  46.2703323   8.7263412  22.0616283  46.2596474
   8.5603113  21.5315971  45.3217735   7.9737887  21.6956444  46.9580879
   8.5558481  23.1318455  46.1427460  12.4437532  18.4243107  47.0703773
  12.9901428  18.0782185  46.0388107  12.2895489  17.5675812  48.0509987
  11.8061600  17.8573055  48.8891487  12.7711105  16.2168865  47.9897881
  13.4983578  15.9136505  47.2366180  13.6436195  15.9026423  49.2122993
  13.1768837  16.0621357  50.1843185  13.8647280  14.8354225  49.1961517
  15.0231876  16.5313835  49.1242142  15.5011044  16.3406982  48.1633110
  14.7615919  17.5705910  49.3235054  15.9318361  15.9657736  50.1905403
  16.7802734  16.6496353  50.2147865  15.4076462  15.9847660  51.1460342
  16.4585953  14.6258364  49.8813019  16.3629169  14.3231773  48.9224777
  16.8396626  13.7423582  50.7941132  16.8871346  13.8685865  52.0731773
  16.9574795  14.8189278  52.4078484  17.0930252  13.1433172  52.7452583
  17.1645737  12.5451250  50.3136520  16.9907246  12.3193398  49.3446846
  17.4128036  11.8322382  50.9846764  11.6655846  15.1669378  47.7183685
  10.4956160  15.3511810  48.0468559  12.0402269  13.9752436  47.2530861
  12.9686337  13.9364586  46.8572884  11.3434286  12.6968613  47.3829193
  10.8573160  12.6084261  48.3545036  10.6007118  12.5741673  46.5946159
  12.1724520  11.4735775  47.1601982  13.3524866  11.6010141  46.7259026
  11.5229969  10.3466721  47.2317162  10.5505819  10.3562145  47.5045166
  12.1679392   8.9781446  47.3078880  12.9557562   8.9297619  46.5561562
  12.9456902   8.9167194  48.5809021  12.2094116   8.7386942  49.3646812
  13.5428276   8.0050364  48.5619049  13.5516176   9.8036251  48.7662430
  11.3050404   7.7253680  47.1460876  10.0804014   7.7761474  47.4743118
  11.8740301   6.6037850  46.6990852  12.8504934   6.5993261  46.4410133
  11.0821524   5.3334994  46.3412628  10.4044628   5.2247233  47.1880264
  10.3974447   5.5246439  45.0363464   9.7787457   6.4178095  45.1233521
  11.3229618   5.6640844  43.7737427  12.0279846   4.8381877  43.6792030
  10.7204132   5.9605870  42.9151840  12.0001402   6.4977221  43.9597168
   9.6403332   4.3920369  44.7964745   8.7516861   4.6074691  44.5040779
  12.0694237   4.1850390  46.3215027  13.2923298   4.3810835  46.3134727
  11.5121899   2.9918513  46.3631859  10.5400124   3.1526785  46.1415901
  12.2205400   1.7609838  46.1480293  13.2489033   2.0204742  45.8965645
  12.3668489   1.0447866  47.5023499  12.8883553   0.0938299  47.3936653
  13.2733240   1.9061732  48.4548607  13.2116241   1.6288632  49.5071945
  14.2913637   1.7105832  48.1180534  12.8499718   2.9105775  48.4615974
  11.0665483   0.8082900  48.0329781  10.8046732   0.0156845  47.5588455
  11.6627941   0.8686624  45.0042229  10.4603014   0.8423840  44.7341080
  12.5471029   0.2323041  44.2995262  13.4615021   0.4798855  44.6497803
  12.4108210  -0.9917367  43.5156860  11.3487644  -1.1106989  43.3012466
  13.1922531  -0.9653819  42.1895714  12.9452114  -1.8464358  41.5972786
  12.6986561   0.3156679  41.3396568  13.3083715   0.1910811  40.4447670
  11.6513805   0.2990366  41.0379333  12.9536448   1.3106080  41.7045898
  14.7275248  -0.8658836  42.3357048  15.0220938   0.0622408  42.8255157
  15.0545731  -1.7340057  42.9079819  15.2267904  -0.8692045  41.3667755
  12.8275280  -2.1742122  44.3741798  13.6407070  -1.9870572  45.2746429
  12.2459698  -3.3527145  44.0896454  11.5631466  -3.4769676  43.3558769
  12.6720734  -4.6519699  44.5409851  13.1864862  -4.5991344  45.5005112
  11.4850368  -5.6239500  44.5948563  11.0689507  -5.8534217  43.6138802
  11.8289862  -6.5145078  45.1208916  10.2940264  -5.0161581  45.3522072
  10.0201435  -4.0231214  44.9958839   9.4371300  -5.6721158  45.1987495
  10.6759748  -4.9515271  46.7949066  10.9925451  -3.8621383  47.3001633
  10.6826763  -6.0365467  47.5454025  13.6409674  -5.3384190  43.6553421
  14.3924475  -6.1440063  44.1524773  13.5984364  -5.0081182  42.3665314
  12.8932590  -4.3485889  42.0701447  14.4591370  -5.6459317  41.3670616
  15.2436380  -6.2399645  41.8358727  13.6220131  -6.6641197  40.6011429
  12.7367754  -6.1542926  40.2209702  14.1649961  -7.0540648  39.7402039
  13.0818377  -7.8255877  41.4087868  13.8782539  -8.4295340  41.8436089
  12.4171524  -7.5267301  42.2193298  12.1695013  -8.6981039  40.5158310
  11.2931185  -8.1057425  40.2528458  12.6739426  -9.0114412  39.6017914
  11.6821270  -9.9384022  41.1438560  12.1399593 -10.7662783  40.7901459
  10.7178030 -10.0972853  42.0277672   9.9380894  -9.1417398  42.4439964
   9.9029703  -8.2129211  42.0488243   9.3413239  -9.3456326  43.2329216
  10.4614182 -11.2904654  42.5210228  10.8008709 -12.1677456  42.1532555
   9.6964045 -11.4547176  43.1596756  14.9839773  -4.5995035  40.4172058
  14.2294559  -3.6762342  40.0706062  16.2480774  -4.7089858  40.0806313
  16.6719780  -5.5190072  40.5099030  16.9578438  -3.7542214  39.1924477
  16.7658596  -2.7258525  39.4985542  18.4664001  -3.8761346  39.5373344
  18.5337124  -3.4849682  40.5524979  18.8981056  -4.8759546  39.4916077
  19.2598343  -2.9101849  38.6888580  18.6913662  -1.9653246  38.1478348
  20.4783936  -3.1449487  38.4967690  16.5276814  -4.1046658  37.7742004
  17.1934052  -4.9019713  37.1012421  15.4558239  -3.5465217  37.2712059
  14.9765902  -2.9193528  37.9013634  15.0424662  -3.5255690  35.9041252
  15.8517027  -3.8505039  35.2501717  14.0152922  -4.6254215  35.7331161
  14.4833879  -5.6032829  35.8461342  12.7524996  -4.4601908  36.6594620
  11.9927149  -5.2288861  36.5182953  13.1045055  -4.5110903  37.6898041
  12.2549076  -3.5098212  36.4663162  13.5839243  -4.5628896  34.4422951
  13.0116320  -5.3130741  34.2653618  14.5932074  -2.1258199  35.3633766
  14.0778780  -1.3714174  36.1966667  14.8618908  -1.7836438  34.1190948
  15.2708902  -2.4959016  33.5312958  14.3575773  -0.5805466  33.4510155
  14.8727627   0.2932382  33.8499947  14.8010273  -0.6289452  31.9717979
  14.3391743  -1.5046462  31.5157890  14.4712467   0.2346389  31.3942451
  16.3467522  -0.7777212  31.7312813  16.4273930  -0.1300371  30.8582954
  16.9474049  -0.1940611  32.4288902  16.8203754  -2.2212851  31.4912548
  17.8448620  -2.5275130  30.9062824  16.1345444  -3.1483109  31.9508018
  12.8448277  -0.3797103  33.6230965  12.3378429   0.7356052  33.8049774
  12.1418943  -1.5811361  33.7540474  12.6858158  -2.4294834  33.8215485
  10.6680069  -1.7861254  33.8070602  10.1717539  -1.2626883  32.9898415
  10.3436613  -3.2609873  33.6848335  10.9040270  -3.6291568  32.8254509
  10.8400011  -3.7360141  34.5310593   8.8755274  -3.7077169  33.6924438
   8.6942158  -4.7646699  33.4973106   8.5004807  -3.5583024  34.7049255
   7.8955269  -2.9796951  32.7507248   6.6579823  -3.2620878  32.8568687
   8.2951307  -2.2512360  31.8442593  10.0479946  -1.2814330  35.0810776
   8.9070187  -0.8136060  35.1827965  10.8019133  -1.2984885  36.1250038
  11.6928329  -1.7721108  36.0797653  10.3757849  -0.8643674  37.4519958
   9.2887850  -0.8329223  37.5264473  10.9653521  -1.7912190  38.5700417
  12.0004177  -1.9921826  38.2937202  10.9403133  -1.2056028  39.4890251
  10.1727858  -3.0908666  38.6907539  10.0684271  -3.5150456  37.6921120
  10.7687206  -3.7928827  39.2739639   8.6858263  -2.9877737  39.2263260
   7.6929178  -3.3384604  38.5238914   8.4949570  -2.5765793  40.4138565
  10.8549948   0.5264765  37.7564392  10.0564880   1.3601280  38.1474533
  12.1292877   0.8761132  37.4227333  12.6875458   0.1627840  36.9759560
  12.8261499   2.1150746  37.8589668  12.6738129   2.1457472  38.9378357
  14.3497515   2.1655226  37.5582962  14.3406916   1.8064446  36.5291786
  14.9064274   3.5846527  37.7992172  14.5264120   3.8188503  38.7936249
  15.9901485   3.5868065  37.6824036  14.5049944   4.2101092  37.0018768
  14.9760885   1.0875194  38.4406509  15.1886044   1.5646433  39.3973579
  14.3617611   0.1878164  38.4758720  16.3296928   0.6186508  37.8168945
  16.1177502   0.0748339  36.8963280  16.9608784   1.4800997  37.5986900
  16.8509502  -0.1057213  38.4427338  12.1383839   3.3500721  37.3499756
  11.6487713   4.1513057  38.1262321  12.0343580   3.4282441  36.0266495
  12.4031553   2.6738594  35.4654045  11.3917656   4.5671701  35.3751297
  11.8771963   5.4906220  35.6908722  11.5536423   4.5153742  33.8683052
  10.9222689   3.7384565  33.4371834  11.1761265   5.4271126  33.4053612
  12.9834490   4.3421478  33.2890472  13.4582720   3.4645965  33.7278519
  12.8754606   4.0771756  31.7800102  13.7742529   4.0167203  31.1663074
  12.1974077   3.2294750  31.6812744  12.4320583   4.9666185  31.3323650
  13.7727613   5.5842614  33.7006378  13.3316193   6.4527507  33.2115402
  13.8843842   5.8000045  34.7632294  14.7633591   5.5228009  33.2500420
   9.9480400   4.7556176  35.8310890   9.5744438   5.9010086  35.9549446
   9.1931925   3.7223284  36.0452309   9.6242943   2.8666213  35.7258263
   7.8069992   3.7434006  36.3562889   7.2933626   4.2946305  35.5686111
   7.1481352   2.3745267  36.3645172   7.4647985   1.8630215  35.4555664
   7.5322399   1.8337729  37.2294731   5.6148458   2.4636884  36.4774208
   5.3021021   1.4939457  36.8645782   5.4266686   3.2115533  37.2477341
   4.9142203   2.7899592  35.1582031   4.6554632   3.8889236  34.7922096
   4.7752061   1.7360094  34.3200569   5.0995851   0.8094040  34.5573120
   4.7677274   2.0248837  33.3522797   7.6608815   4.3673797  37.7415619
   6.9879026   5.3854036  37.8797798   8.5175247   3.8846622  38.7061272
   9.1869192   3.2163904  38.3519745   8.4917603   4.3674078  40.1057014
   7.4217520   4.3677821  40.3135223   9.1586561   3.3366287  40.9573784
  10.1419325   3.2307029  40.4990692   9.4041204   3.7822635  41.9213600
   8.4517756   1.9940935  41.1426697   7.4200077   2.2631280  41.3688889
   8.6312838   1.4262797  40.2297211   8.8582382   1.2225584  42.3834686
   9.9266577   1.0397718  42.2687111   8.6673298   1.8943454  43.2203407
   8.0628338  -0.1056957  42.5644760   7.1192260   0.0584622  42.0441322
   8.6093245  -0.8602850  41.9987564   7.8636522  -0.4835840  43.9229622
   7.2280674   0.0141367  44.5299339   7.4995971  -1.4256849  43.9262505
   8.7428741  -0.4794957  44.4200058   8.9248705   5.8109779  40.2474403
   8.3301630   6.5712514  40.9663391   9.9077902   6.1835976  39.4222717
  10.2331076   5.4175076  38.8501053  10.4900436   7.5199561  39.3194160
  10.7029247   7.8026767  40.3503609  11.8304777   7.4944072  38.5639229
  11.6888466   7.3253541  37.4964638  12.4960375   8.8955402  38.7224159
  11.9050074   9.6069326  38.1456032  12.6188002   9.2335234  39.7513924
  13.4619408   8.7350073  38.2434998  12.7266989   6.5841641  39.1238098
  12.5194273   5.6918588  38.8367043   9.4158287   8.4857826  38.6063881
   9.1331444   9.5455761  39.0888596   8.7172441   8.0114698  37.5894203
   8.8762808   7.0670662  37.2686234   7.6333141   8.7279501  36.9386063
   8.0347347   9.7059336  36.6730614   7.1894584   8.0876818  35.6028481
   7.9530644   7.5004234  35.0928154   6.3950682   7.3710451  35.8113594
   6.6947594   9.1946125  34.6263924   7.5595546   9.8207846  34.4069901
   6.5551944   8.6905527  33.6700668   5.4833474  10.0785313  34.8432541
   5.6636844  10.8421249  35.5998955   5.2245688  10.6020193  33.9228706
   4.2486238   9.2606306  35.2715378   4.3316975   8.7933407  36.2527847
   3.4543753   9.9822454  35.4626961   3.9677174   8.2140760  34.3054619
   3.7459679   8.5202885  33.3688927   4.8127446   7.6769681  34.1729965
   3.2034698   7.6173224  34.5881462   6.4151983   8.9488068  37.8632011
   5.9550791  10.0869284  38.0005646   5.9185324   7.8554745  38.5084114
   6.4560390   7.0133715  38.3599205   4.9562292   8.0025835  39.5925560
   4.0507207   8.4744091  39.2110596   4.5764894   6.6260166  40.0701256
   5.4898849   6.0962262  40.3405342   3.9807689   6.8132739  40.9635201
   3.8394420   5.7306352  39.1381073   2.8283505   6.1354938  39.1815109
   4.3050609   5.8290205  38.1574860   3.6770101   4.2929583  39.4705544
   4.1455507   3.7632322  40.4335709   2.8046856   3.6718822  38.7701912
   2.2872751   4.1558514  38.0503540   2.7456574   2.6799922  38.9512138
   5.4270425   8.9199820  40.7379150   4.5976572   9.6568079  41.2564735
   6.7068410   9.0542564  41.0998993   7.4168839   8.4214516  40.7600365
   7.1889820   9.9772482  42.1573486   6.5517478   9.8657141  43.0346184
   8.6228247   9.7034311  42.6141205   8.7187939   8.6780872  42.9712791
   9.3229532   9.8964138  41.8013000   9.0289087  10.5302715  43.8630409
   8.8744240  11.6007309  43.7275772   8.2856455  10.1619635  45.1389580
   8.5748396   9.1556978  45.4421196   8.7191029  10.7282476  45.9632988
   7.2028961  10.1518822  45.0138512  10.5252686  10.2043457  44.0841827
  10.6220045   9.2216635  44.5457726  11.0233450  10.1523972  43.1160278
  10.9036913  10.9842176  44.7450180   7.1348705  11.4286165  41.6752892
   6.5325565  12.2843065  42.3776321   7.6399579  11.6081295  40.4522057
   7.9773111  10.7819691  39.9791832   7.6937141  12.9002733  39.7711983
   8.2076244  13.4937181  40.5273857   8.3977575  12.9084063  38.4650383
   8.1733694  12.0623999  37.8154030   8.2532740  13.8601265  37.9537086
   9.9059916  12.7145491  38.7114601  10.0373554  11.7704477  39.2401543
  10.7092867  12.6284170  37.3911438  11.7407808  12.7040405  37.7352448
  10.5779982  11.5997019  37.0555725  10.4464455  13.4216623  36.6913033
  10.6725664  13.7454357  39.5215454  10.6042776  14.7615585  39.1330566
  10.3991404  13.5675793  40.5615959  11.7406387  13.5670700  39.3970108
   6.3229723  13.5227518  39.7141800   6.1582003  14.6308937  40.1925163
   5.3371706  12.8198843  39.2153931   5.4440837  11.9052458  38.8005409
   4.0117555  13.4001646  39.1307259   4.1886830  14.3673496  38.6602478
   2.9954724  12.5879040  38.2348366   2.1182296  13.1631298  37.9387589
   3.5634956  12.2667856  37.3617172   2.4581144  11.2941790  38.8459816
   3.2704599  10.7624741  39.3414536   1.6333783  11.5049114  39.5267944
   1.8601764  10.4152880  37.7516899   1.3656267  10.9872761  36.8217278
   1.9302233   9.1701145  37.8288040   3.4284585  13.7072067  40.5289879
   2.7247138  14.7041311  40.7225800   3.6863809  12.8641253  41.5255051
   4.3094816  12.1042938  41.2920494   3.1748106  12.9879637  42.8562202
   2.1105368  13.2123079  42.9275665   3.2964220  11.5748663  43.5218391
   2.9581411  10.8118048  42.8208389   4.3656268  11.3802862  43.6057396
   2.5238419  11.2516193  44.8264198   2.5942318  10.2441092  45.2363815
   3.0385330  11.8447437  45.5823288   0.9911703  11.5610704  44.8520508
   0.7365337  12.5781631  44.5540848   0.5475542  10.9746132  44.0474548
   0.2860483  11.1820822  46.1444511  -0.7867715  11.1057339  45.9674492
   0.5463813  10.1534519  46.3939438   0.5845549  12.2206211  47.1693344
   0.1742051  11.9434471  48.0496140   1.5606650  12.3477230  47.3955231
   0.1144741  13.0924463  46.9717369   3.8033862  14.0264835  43.7549782
   3.0808690  14.7902098  44.3776512   5.1160345  14.3574820  43.6245651
   5.6791401  13.6891241  43.1182899   5.6653185  15.6665792  44.0302620
   5.4720702  15.7632895  45.0986290   7.1197629  15.7928085  43.6472893
   7.2779450  15.5127010  42.6058388   7.6233430  17.1965523  44.0013428
   8.7091789  17.2479420  43.9211922   7.2608724  17.9528999  43.3051720
   7.2578230  17.4867744  44.9863625   7.8932490  14.6730509  44.4561424
   7.6096349  14.6373100  45.5079918   7.5840383  13.6815290  44.1254120
   9.4264145  14.7857237  44.3585281   9.8153572  13.8469019  44.7527809
   9.8011589  14.8178825  43.3354797   9.8733120  15.6622753  44.8276100
   4.8686562  16.8614254  43.4111557   4.6803136  17.9335575  44.0632896
   4.4407797  16.7207317  42.1132507   4.6412573  15.8335848  41.6740685
   3.7536035  17.8461609  41.4735794   4.2085700  18.8101749  41.7011490
   3.7781949  17.7092190  39.9743652   3.5021198  16.6670952  39.8135529
   2.9294915  18.6962070  39.2127991   2.9445620  19.6700859  39.7021141
   3.2732041  18.7691154  38.1809845   1.9132075  18.3028011  39.1905594
   5.2001777  17.8377228  39.4909248   5.5144267  18.8788986  39.5637321
   5.8965316  17.2828884  40.1196938   5.5269728  17.1864338  38.1034203
   5.0237117  17.7497673  37.3176155   6.5845890  17.3013248  37.8660393
   5.1330967  16.1816845  37.9503250   2.3000553  18.0058746  42.0875015
   1.8243870  19.0619774  42.3763885   1.6138059  16.9080906  42.1561508
   2.0029209  16.0343857  41.8316002   0.2843893  16.8176041  42.7296638
  -0.3492555  17.4134483  42.0727310  -0.0873598  15.3844929  42.8432846
  -0.2731110  14.9334898  41.8685036   0.6489720  14.8054218  43.4005966
  -1.4182421  15.1067162  43.6188126  -1.5722048  14.0288544  43.6698914
  -1.2433275  15.5263453  44.6094818  -2.7010305  15.7991762  43.0651627
  -2.7129276  16.8624306  42.4226761  -3.7203324  15.0874815  43.0229912
   0.3347905  17.4521255  44.2014694  -0.5314273  18.2612400  44.5840874
   1.3142978  17.1760178  45.1031914   2.0205348  16.5351391  44.7706223
   1.4399669  17.6789932  46.4868546   0.5435935  17.5011978  47.0809975
   2.5093410  16.7622223  47.1797218   2.2775328  15.6978712  47.1407204
   3.4648178  16.8575554  46.6638908   2.9077499  17.2385139  48.6296234
   3.8074453  16.6916676  48.9117699   3.1274195  18.3045082  48.5704384
   1.8314434  17.0138969  49.7235680   1.6615891  17.9088860  50.5369110
   1.1106614  16.0303154  49.6301537   1.7600811  19.2445431  46.4291992
   1.1272247  20.1245022  47.1068382   2.7862961  19.5773602  45.6227531
   3.1584051  18.8986168  44.9739494   3.4730861  20.8605328  45.7409172
   3.2910476  21.1778297  46.7677002   4.9919648  20.7175026  45.7302856
   5.2773256  20.0463638  44.9201965   5.4648523  21.6647224  45.4709587
   5.5340209  20.2585850  47.0681801   5.6173353  21.0629539  47.9589920
   5.8696952  18.9990444  47.2752075   6.1894388  18.7703762  48.2055702
   5.6980586  18.2869949  46.5797768   3.0769691  21.9033394  44.7828941
   3.4222002  23.0457497  45.0350113   2.4559710  21.4968052  43.6523819
   2.3668411  20.5076294  43.4688454   2.0271571  22.3236866  42.4636612
   1.9047606  21.6622181  41.6060028   0.7668789  23.1349812  42.7808609
   0.9123264  24.2096310  42.8907471   0.2271763  23.0834866  41.8352547
  -0.0977371  22.6013470  43.9093666  -0.5304388  21.3303642  44.0931320
  -0.3349801  20.6456337  43.3768616  -1.2217875  21.1974010  45.2599258
  -1.6453381  20.2566719  45.5793533  -1.2109374  22.4401760  45.8412819
  -1.6861019  22.6413727  46.7095222  -0.5368919  23.3295670  44.9872437
  -0.4708332  24.3840656  45.2110138   3.0818839  23.1571541  41.7099190
   2.7988949  24.0388832  40.8949471   4.3652735  22.9696388  41.9864426
   4.6807151  22.3491096  42.7182503   5.4062648  23.4545536  41.0951347
   5.4348850  24.5440464  41.1119423   6.7400584  22.8758717  41.6182747
   7.5361190  23.1805916  40.9389114   7.1937070  23.5294743  42.9348717
   7.8618588  22.8484573  43.4620247   7.5917192  24.5324039  42.7805328
   6.3960943  23.4768791  43.6759186   6.7193069  21.4732304  41.7017708
   6.2324996  21.1075630  40.9595413   5.2280173  23.0450306  39.6834641
   4.7379818  21.9240627  39.3989258   5.6391916  23.8856068  38.7597809
   6.0737433  24.7145176  39.1394844   5.6780872  23.7075348  37.2873573
   5.3800492  22.6902752  37.0334702   4.6625261  24.6357460  36.6544533
   4.5015783  24.2758846  35.6382370   3.7303886  24.4669418  37.1936455
   4.9652867  26.0984745  36.7186203   5.0382528  26.4053612  37.7619781
   5.9950523  26.2658825  36.4029350   4.0184736  27.0273323  36.0654449
   4.2382984  26.9957829  34.9983063   3.0317953  26.6775360  36.3691025
   4.0759406  28.5032291  36.5463295   3.2780943  29.0378551  36.0308495
   3.6322193  28.5370312  37.5413513   5.3532691  29.1685352  36.4501228
   5.9884138  28.8892307  37.1840706   5.7523136  29.0990448  35.5249023
   5.1445951  30.1553707  36.5021858   7.1096988  23.9167843  36.7140427
   7.9118013  24.4284840  37.4799728   7.3890519  23.5350132  35.5038643
   6.5064073  22.8787537  34.5816383   5.9762354  23.6352348  34.0030594
   5.7456021  22.2626133  35.0608559   7.3735905  22.1281319  33.5829086
   6.8728094  21.9667263  32.6283073   7.6452608  21.1753559  34.0373497
   8.6257114  22.9697666  33.4696770   8.4513674  23.8054028  32.7918739
   9.4671688  22.3575077  33.1453514   8.7466631  23.3645725  34.9082451
   9.1103916  22.5450115  35.5280190   9.5997229  24.5641251  34.9780540
  10.7427368  24.5454235  35.4400024   9.1213961  25.7151680  34.5102959
   8.1757946  25.6597996  34.1597672   9.8979683  26.9551563  34.4493103
  10.7722349  26.6743031  33.8620377   9.1661921  28.0467129  33.6570511
   8.1834307  28.2655926  34.0746269   9.7131758  28.9892941  33.6358109
   9.0778465  27.6506958  32.1513596   8.8495941  28.6487274  31.7772808
  10.0320435  27.2853565  31.7717094   7.9175668  26.7016830  31.9233227
   7.0056934  26.5491180  32.7496414   7.9004822  26.0887222  30.8939590
  10.3601732  27.4169846  35.8923683  11.2131758  28.2584419  35.8841934
   9.6648226  27.0176926  36.9754791   8.8990965  26.3656254  36.8828850
  10.0217285  27.2102814  38.3643456   9.9594641  28.2933083  38.4705315
   8.9449892  26.7477512  39.3786087   9.0499096  25.6671295  39.4752998
   9.2155485  27.2020130  40.3317833   7.4953265  27.0317440  39.1225967
   6.5989723  26.3692875  39.7546272   7.1647820  28.0991173  38.5607948
  11.3150187  26.5741119  38.6998062  12.0109024  27.0940685  39.6164207
  11.5971889  25.3439331  38.1234512  10.9552135  24.9683533  37.4401436
  12.6942434  24.5387421  38.4813042  12.8733320  24.5807877  39.5556679
  12.4667263  23.1471558  38.0291405  12.4698935  23.1759586  36.9395218
  13.5358829  22.2360077  38.6479568  13.3135204  21.1828270  38.4763031
  14.5273008  22.3870506  38.2209015  13.6009226  22.4318638  39.7182388
  11.1574354  22.5200596  38.5254097  10.2864647  23.1734962  38.4750938
  10.8949680  21.6447239  37.9312706  11.2393475  22.2421398  39.5761948
  14.0829020  25.0661716  37.8973122  14.3113937  25.2065830  36.6955872
  14.9866295  25.3342514  38.8662529  14.7128391  25.1627579  39.8231888
  16.3474274  25.8314285  38.6803246  16.3432598  26.5011597  37.8203545
  16.8349438  26.5278282  39.9634514  16.7554321  25.8188629  40.7875557
  18.3855553  26.8061275  39.7754288  18.6861572  27.4034042  40.6362381
  18.9068317  25.8711109  39.5702171  18.4651184  27.4533291  38.9019890
  16.0128307  27.7587299  40.4183922  16.5077000  28.1278343  41.3167076
  16.1717072  28.5371265  39.6720963  14.9714155  27.4722767  40.5650253
  17.2432384  24.6358528  38.2404175  17.9502602  24.7304077  37.2274857
  17.1741009  23.5221558  38.9519539  16.5587482  23.4280319  39.7473030
  17.8460808  22.3064060  38.4863853  17.7769279  22.1544304  37.4092484
  19.4095078  22.4340229  38.7394333  19.8007336  21.4636326  38.4338417
  19.9023399  23.2756996  38.2528152  19.7508926  22.5882473  40.2385445
  19.4404564  23.5941715  40.5211143  19.1913929  21.8990746  40.8710823
  21.2711506  22.3193893  40.4988098  21.8387070  22.9355469  41.3722878
  22.0265255  21.5500526  39.7856674  23.0330048  21.5497227  39.8699646
  21.5896645  21.0544128  39.0217323  17.2166214  21.1579666  39.3110466
  16.4345970  21.3143597  40.2671509  17.5329227  19.9217777  38.8922997
  18.1418457  19.8767624  38.0877571  17.1450958  18.6664524  39.5694427
  16.7579460  18.8325176  40.5747490  15.8989258  18.1143723  38.8508186
  15.1721230  18.9177017  38.9713249  15.9834499  17.9924374  37.7709579
  15.3062048  16.7733746  39.3944893  16.1821136  16.1436176  39.5503387
  14.8401375  16.9681396  40.3603859  14.0707493  16.0006523  38.4157600
  12.9627504  17.3817101  38.0566444  11.9082794  17.1062431  38.0389938
  12.9709635  18.1752014  38.8039093  13.2263451  17.7991905  37.0848770
  18.3542881  17.7561588  39.5916328  19.2436924  17.8843193  38.7290535
  18.4797955  16.9017830  40.5849876  17.6520023  16.8263741  41.1587219
  19.6459236  16.1130409  41.0543175  20.2621479  15.7592678  40.2277527
  20.5264454  16.9375744  42.0253296  19.9397354  17.2096901  42.9027252
  21.2593098  16.2769737  42.4886017  21.2624550  18.2119083  41.4843407
  20.5949268  18.9073334  40.9755287  21.8091393  19.0570068  42.6716423
  22.3831978  19.9560280  42.4473114  20.9434013  19.4515057  43.2035866
  22.3022194  18.3816929  43.3708725  22.4276772  17.8186798  40.5368347
  21.9792557  17.4820480  39.6021156  23.1134815  18.6608162  40.4442062
  22.9949417  16.9867535  40.9542236  19.1317577  14.7778549  41.5492210
  18.4237938  14.7592134  42.5831909  19.4769039  13.6611996  40.9225540
  20.1585445  13.6203537  40.1783791  18.9774284  12.3781662  41.3326187
  18.1659813  12.5106392  42.0482330  18.2792358  11.6820927  40.1051979
  18.7933140  11.9121227  39.1719742  18.4683208  10.6274223  40.3052444
  16.7667198  11.8746977  39.9578362  16.2821655  11.9601469  40.9304657
  16.5119019  13.2964611  39.4270821  15.5220079  13.3921146  38.9809227
  16.5329304  13.9500036  40.2991714  17.2680759  13.6681328  38.7355957
  16.1775074  10.7920341  39.0691757  16.4429722   9.8529921  39.5547943
  15.0878811  10.7646961  39.0610046  16.5560818  10.8566160  38.0490723
  19.9949837  11.5253143  42.0533028  21.1621876  11.6288939  41.7602501
  19.5270214  10.5814400  42.8967400  18.5529633  10.3589773  43.0444603
  20.4448109   9.5749664  43.4460907  21.3711643   9.6869564  42.8826790
  20.7045631   9.8957376  44.9782600  20.9877853  10.9351521  45.1441002
  19.8198643   9.5343761  45.5024986  21.7493629   9.0925579  45.3141556
  21.4439240   8.5128212  46.0157356  20.0351620   8.1021214  43.2161522
  18.8046532   7.8904858  43.0510101  20.9508057   7.1125321  43.1952209
  21.9215870   7.3604245  43.0678101  20.6426048   5.6563559  43.1048088
  19.6783848   5.5445380  43.6006775  20.5538921   5.2552552  41.5750008
  21.5257053   5.4809079  41.1359596  20.4367275   4.1718273  41.5513382
  19.7761536   5.7568402  40.9991226  21.7420616   4.8014221  43.8357582
  22.9173985   5.1436477  43.7659760  21.3068810   3.7571356  44.5281982
  20.3479118   3.4505734  44.4475784  22.2430401   2.8780706  45.2662315
  22.8039703   3.4895437  45.9730301  21.4560509   1.9173108  46.1746712
  22.1944752   1.2077962  46.5480614  20.6825905   2.5139780  47.3416748
  20.2195168   3.4518859  47.0350952  19.7293987   2.0932834  47.6618996
  21.2868881   2.8706710  48.1757545  20.5802517   1.1508342  45.3736649
  21.0883427   0.4174097  45.0193558  23.2621231   2.0594411  44.3829651
  22.9693813   1.7225456  43.2502899  24.4503422   1.7430634  44.9060783
  24.9580345   2.2808948  46.1335564  24.3493328   2.0141711  46.9975243
  25.0033894   3.3692827  46.0954170  26.2936459   1.6194301  46.4757690
  26.1553993   0.7807800  47.1581573  26.8732376   2.4088700  46.9542618
  26.8509846   1.1960354  45.1165085  27.2410469   0.1787929  45.1506920
  27.6770668   1.8614767  44.8657532  25.6770058   1.3873513  44.1334381
  25.8556919   2.2065032  43.4369049  25.5340900   0.0920006  43.3166466
  26.3971596  -0.2653964  42.4689445  24.4834747  -0.6760408  43.5597496
  23.8576336  -0.4590104  44.3221931  24.2076588  -1.9758226  42.9234276
  25.1519184  -2.4812145  42.7208214  23.3602085  -2.8965855  43.8148270
  22.9360676  -3.6317971  43.1309624  24.0491962  -3.4404013  44.4610939
  22.2075024  -2.2230313  44.6500092  22.2900944  -0.9889705  44.9973068
  21.1373043  -2.9406238  44.8756561  23.4070168  -1.7601097  41.6209259
  23.3273525  -2.7187057  40.8501816  22.7906208  -0.6071258  41.3361244
  22.8558044   0.0746944  42.0783997  21.7390270  -0.4598229  40.2787437
  21.2198143  -1.3930532  40.0605736  20.7303028   0.6285911  40.7517204
  21.2408314   1.5804234  40.8982697  20.0586109   0.7810878  39.9069290
  19.9435692   0.2979900  42.0575218  20.5684395  -0.0247347  42.8902817
  19.2405834   1.4788171  42.5450211  19.9807816   2.1876352  42.9162102
  18.6378517   1.8982437  41.7394829  18.6075497   1.2878385  43.4115639
  18.8945045  -0.8211998  41.8690338  18.1037807  -0.5329887  41.1763649
  19.2965431  -1.7936434  41.5847473  18.4232121  -1.0928811  42.8135757
  22.5080376  -0.1633446  38.9976730  23.1969872   0.9018666  38.9264793
  22.3358459  -0.8981289  37.8662834  21.7509727  -1.7194798  37.9246330
  23.1707191  -0.8250683  36.6352272  23.4925747   0.2120126  36.7300072
  24.2694683  -1.8700169  36.6307831  23.6749744  -2.7815428  36.5691681
  24.9545345  -1.8297342  35.7839279  25.0882854  -1.7879450  37.8864822
  25.7107830  -0.7228068  38.3863831  25.7359219   0.2207085  38.0268707
  26.4692097  -1.0980906  39.4540520  27.0936546  -0.4312085  40.0300179
  26.2253685  -2.3505697  39.6447639  26.6667252  -2.8878293  40.3773346
  25.4242172  -2.8470154  38.6053810  25.2313976  -3.8932593  38.4193840
  22.2627029  -0.9236376  35.3648987  22.7948208  -0.9720009  34.2020798
  20.8932209  -1.0400052  35.4267082  20.4121342  -0.7855825  36.2775459
  20.0774899  -1.0690181  34.2383080  20.5428734  -1.7528081  33.5284119
  18.7914314  -1.6882154  34.7199402  18.2897491  -0.9423630  35.3364868
  18.1644993  -1.9897236  33.8808060  19.0632954  -2.6113529  35.2318077
  19.7109375   0.1880423  33.4775085  19.7546005   0.1516149  32.2671776
  19.5842991   1.3411227  34.0954742  19.5543346   1.3482535  35.1050072
  19.1791859   2.6166968  33.4434814  19.8318310   2.7289808  32.5777168
  17.7397060   2.6195068  32.9094353  17.6712570   1.8052076  32.1880951
  16.7613411   2.2955108  34.0636559  16.9170151   1.3259110  34.5366631
  16.6175804   3.0938621  34.7917175  15.7647820   2.2112432  33.6302185
  17.3766499   3.8707945  32.1264000  16.6602669   3.5481434  31.3708954
  16.8833389   4.6417904  32.7182693  18.3126507   4.2669926  31.7326622
  19.4278316   3.6641507  34.4345970  19.0596161   3.5148194  35.6437073
  20.0236568   4.7718658  33.9890747  20.2424622   4.8209805  33.0042839
  20.0042572   6.0458865  34.7193031  20.4577732   5.9467702  35.7055054
  20.8963852   7.1181378  34.0537376  20.4520416   7.2312512  33.0648689
  20.7260571   8.0976582  34.5005455  22.3170166   6.7106094  33.8627396
  23.1522961   6.6946783  34.9907990  22.8070297   6.9578915  35.9796906
  24.5418148   6.5030322  34.7296104  25.2106190   6.6321640  35.5677185
  25.0297546   6.1213956  33.4805527  26.0564060   5.8535376  33.2789612
  24.1443863   6.1954665  32.3865623  24.5578613   5.9498634  31.4195480
  22.8038483   6.4928007  32.5845947  22.1844711   6.5821242  31.7043686
  18.4900532   6.6027789  34.9528618  17.9133110   6.8503275  33.9469719
  17.9793262   6.7992139  36.1839371  18.7068748   6.5202823  37.4053421
  19.6388950   7.0815625  37.4717293  19.0059738   5.4738035  37.4646873
  17.7813320   6.9438348  38.4983940  18.0167732   7.9961491  38.6574593
  17.8615227   6.4302411  39.4564590  16.3248768   6.9204197  37.8913803
  15.5408440   7.5858517  38.2527580  15.8254662   5.9633307  38.0419464
  16.5850620   7.1873603  36.4600563  15.9420128   6.5880265  35.8155479
  16.3317013   8.6370039  36.0936852  15.2263947   9.0725765  35.8006248
  17.4178505   9.4485188  35.9699669  18.3163204   9.0534821  36.2082977
  17.4278088  10.7869644  35.3670731  17.0330582  11.5845566  35.9964600
  18.9281406  11.0911770  35.0867043  19.4284401  10.4264336  34.3824921
  19.1353836  12.0856981  34.6916351  19.4817963  11.0591335  36.0250740
  16.6281834  10.7017546  34.0674438  16.0137081  11.7526741  33.7559242
  16.5791473   9.5886402  33.3259468  17.0826321   8.7630682  33.6175537
  15.7814684   9.3284369  32.0847321  16.0525990  10.1167364  31.3824654
  16.2060509   7.9707026  31.6742458  17.2623310   7.7921109  31.8754368
  15.6609869   7.2256479  32.2538147  16.0401287   7.7504220  30.1262188
  14.9768620   7.8451309  29.9057751  16.5096416   8.4756517  29.4616070
  16.4930897   6.3837643  29.6897850  17.4825325   6.0792136  30.0308895
  15.9053764   5.5939298  30.1576061  16.4071445   6.2541490  28.1842937
  15.3904915   6.3132896  27.7956829  17.1109314   6.9882870  27.7920876
  16.8862305   4.9174714  27.8061008  16.3069153   4.2106423  28.2360840
  16.5905018   4.7691169  26.8518238  17.8664722   4.7261438  27.9565048
  14.2392664   9.5098104  32.2877197  13.4716063   9.5069637  31.3305340
  13.7621288   9.4391174  33.5289803  14.4163628   9.3823805  34.2963524
  12.3220387   9.4719810  33.8756752  11.8582869   8.7140751  33.2443161
  12.1580858   9.0685816  35.3422394  12.6749029   9.7638273  36.0037804
  11.1204824   9.0490370  35.6755524  12.6984243   8.1314440  35.4760857
  11.5933037  10.8101988  33.6887970  10.3782272  10.8082933  33.4636154
  12.3098898  11.9516954  33.7354546  13.2662859  11.8785086  34.0517578
  11.7273550  13.2898197  33.6012383  10.8782721  13.2694340  34.2844238
  12.6996908  14.4364510  33.8874130  13.2889404  14.6411676  32.9935570
  11.9781837  15.8004885  34.0729637  11.6030865  16.0377254  33.0774117
  11.0862665  15.6297197  34.6758080  12.7281199  16.4988384  34.4444504
  13.6571054  14.1179123  34.9927902  13.1332598  13.7984896  35.8937111
  14.4097509  13.3886032  34.6932335  14.1960878  15.0196695  35.2833595
  11.1840858  13.4976959  32.1894798  10.1138401  14.0621624  31.8805904
  11.9339399  13.0376911  31.1731396  12.8097115  12.5857267  31.3941689
  11.4808741  13.1429920  29.7479401  11.2410431  14.2023802  29.6569557
  12.6511679  12.8240709  28.8187218  13.2228489  11.9870110  29.2194881
  12.4144278  12.3840075  27.8500118  13.5890760  13.9788866  28.6599312
  13.1258621  14.8067904  28.1231728  13.8149652  14.4710703  29.6058865
  14.9291239  13.6139660  27.9660950  15.2377310  12.5950165  28.1997700
  14.9618578  13.7639780  26.8869629  16.0264683  14.2962112  28.6323814
  15.7717733  14.9028358  29.3986950  17.3296432  14.3701296  28.1701889
  17.7670288  13.7211218  27.1146793  17.0834160  13.2191486  26.5662231
  18.6950436  13.9343061  26.7778740  18.1328182  15.1686535  28.7854671
  18.9928398  15.3073721  28.2743702  17.8752117  15.6097126  29.6567955
  10.2250128  12.2687082  29.4350109   9.6136026  12.4116659  28.3569126
   9.7248363  11.4385338  30.3523235  10.1847105  11.3178587  31.2434216
   8.4563761  10.7904072  30.2281456   8.2986937  10.4127197  29.2179031
   8.4338312   9.4860935  31.1144981   8.1280909   9.6028137  32.1542091
   7.5561776   8.9664335  30.7300682   9.6557932   8.5524225  31.1484833
  10.6073084   9.0839825  31.1612206   9.6302490   7.9418087  32.0510368
   9.7595177   7.5696497  30.0001488   9.9802876   6.3182182  30.1805248
   9.6922741   8.0551243  28.8174648   7.2752299  11.6037941  30.6856689
   6.0730090  11.1879454  30.5521297   7.4551530  12.7185612  31.3623543
   8.3792763  13.0899801  31.5301151   6.3950968  13.6797476  31.5214901
   5.4722214  13.1212168  31.6778374   6.5924559  14.4817295  32.8609123
   7.4833865  15.1096716  32.8552856   5.8023100  15.2281532  32.9423218
   6.6288323  13.7322235  34.2405128   6.1225867  12.7739773  34.1239586
   8.1019754  13.4966764  34.6550293   8.0833502  12.8805256  35.5539856
   8.6948376  13.0522432  33.8555946   8.5985775  14.3972826  35.0161324
   5.9348826  14.5126266  35.3835716   6.0510426  13.9336720  36.2997704
   6.3518190  15.5113287  35.5134239   4.8456731  14.4756508  35.4024315
   6.3154092  14.7158518  30.3357563   7.3015327  14.8591480  29.6183071
   5.1847248  15.3613310  30.1101513   4.4952116  15.1495056  30.8171196
   4.9788628  16.3875904  29.1001282   5.5910726  16.1842670  28.2215157
   3.4649875  16.4306908  28.7214165   3.0830653  15.4153671  28.8279686
   2.8833723  17.1038570  29.3512344   3.4636917  16.9272614  27.3754101
   3.6190939  16.1736412  26.8013821   5.3883510  17.7390518  29.6724682
   5.0405331  18.1239395  30.7811432   6.0218439  18.6206760  28.8822823
   6.2488017  18.4222469  27.9183235   6.3272233  19.9660358  29.2565632
   6.5664945  20.6186600  28.4169598   5.5107493  20.4002972  29.8335266
   7.5852737  19.9883595  30.1818027   8.2510290  21.0654697  30.1533794
   7.9856720  18.9307175  30.8157177   7.4302015  18.0932961  30.7143211
   9.2176886  18.8647404  31.6851997   9.3176737  19.8199806  32.2005844
   8.9567480  17.8059883  32.7084274   8.7318840  16.8157730  32.3121872
   9.8937893  17.6666317  33.2475319   8.0860348  18.1435127  33.8258209
   6.7514386  18.1367226  33.7092438   6.3009768  17.8823128  32.7612152
   6.2346673  18.8180351  34.8728142   5.2987018  18.8457222  35.2513657
   7.1740851  19.0614357  35.7894707   7.0392904  19.7877464  36.9732628
   6.0959516  20.2214260  37.2706413   8.1450920  19.9656715  37.8044472
   8.0090513  20.4431324  38.7635727   9.3584194  19.3954945  37.3953972
  10.2855568  19.5256729  37.9337921   9.5060167  18.8158741  36.1010628
  10.4398050  18.3665771  35.7967987   8.4256840  18.6086102  35.2325478
  10.5638885  18.6171074  30.9426765  11.6120720  18.7010670  31.5865192
  10.5300198  18.2613583  29.6817722   9.6749039  18.0401459  29.1919327
  11.7207623  17.8402195  28.9794254  12.0511217  16.9074516  29.4364910
  11.3746061  17.4786129  27.5545044  12.3120899  17.1029968  27.1444588
  10.7011957  16.6300354  27.4339218  10.9070139  18.6391602  26.7087669
   9.9229221  18.9998970  27.0079880  11.6489897  19.4320698  26.8029308
  10.8076591  18.2175846  25.2409592  11.0531931  17.0500031  24.8855267
  10.4602804  19.0877533  24.2683105  10.1435223  20.0268517  24.4628887
  10.2385702  18.7778034  23.3329620  12.9117222  18.8131924  29.0333748
  14.0888958  18.4159718  28.8988934  12.7828379  20.0804348  29.0615177
  11.8342018  20.4151363  29.1518841  13.8682585  21.1130733  29.0505619
  14.6558781  20.8582516  28.3414555  13.3081408  22.4313602  28.3962173
  12.7026491  22.8746128  29.1867924  14.1041117  23.1373043  28.1592045
  12.4723997  22.2448215  27.1131210  13.1763067  22.3507843  25.9277630
  14.2468481  22.4783993  25.9914513  12.3867865  22.4226952  24.6687660
  12.8512783  22.6992950  23.7338123  10.9727869  22.2811203  24.7544746
  10.2228794  22.2201996  23.6119385  10.8050461  22.5120811  22.9066105
  10.3193827  22.2249527  26.0070133   9.2576942  22.0273819  26.0205460
  11.0231810  22.1532192  27.1617012  10.5836020  22.0062408  28.1371841
  14.5829916  21.2819939  30.3812046  15.5880089  22.0209312  30.4969120
  14.0622787  20.7009411  31.4552517  13.1393833  20.3099823  31.3306980
  14.6209908  20.9386864  32.7794647  14.7509823  22.0201054  32.8210793
  13.7334671  20.3924465  33.8732719  13.2860794  19.4463768  33.5684814
  14.4382668  20.1486225  35.2445412  15.2016020  19.3873405  35.0836983
  14.9342175  21.0622692  35.5722313  13.7242718  19.8704681  36.0197487
  12.6524639  21.4070244  34.2487946  12.0553274  21.6828289  33.3796196
  11.9549360  20.8555279  34.8791962  12.9420071  22.2556438  34.8685608
  16.0006943  20.2021828  32.8418198  15.9902754  19.0744572  32.5038910
  17.0775928  20.9002056  33.1601181  17.0743656  22.2829247  33.6194000
  16.3211651  22.2865334  34.4072952  16.8681412  22.9553585  32.7866898
  18.4545918  22.4198265  34.2806740  18.3007641  22.0504780  35.2945900
  18.7293472  23.4744873  34.2632866  19.4185944  21.4655933  33.5472755
  20.3414822  21.1697674  34.0461388  19.7578011  21.8972912  32.6056366
  18.4720173  20.3108463  33.3093796  18.7836151  19.7316780  32.4401398
  18.5085335  19.3761501  34.5170517  18.0290642  19.7640724  35.5874596
  19.0831833  18.1657486  34.4027977  19.2967243  17.8978844  33.4526672
  19.0508633  16.9944439  35.3558846  19.1310749  17.3263226  36.3910294
  17.6731033  16.2398243  35.2994385  16.8828411  16.9551182  35.0715332
  17.6967525  15.2012024  34.1411057  18.1222897  15.7757740  33.3183746
  18.1322651  14.2972059  34.5668030  16.6535873  14.9638882  33.9323311
  17.2787189  15.5658646  36.5896568  17.0296059  16.2917061  37.3637352
  16.3829041  14.9541740  36.4826431  18.0464497  14.8776445  36.9432678
  20.2377739  16.0918446  35.2112579  20.7710342  15.8667965  34.0956039
  20.5763855  15.4637337  36.2829742  19.9491405  15.5602131  37.0686989
  21.6268826  14.3961058  36.3652039  21.4660091  13.6668520  35.5712204
  23.0151501  15.0618801  36.2082481  22.9369450  15.5805817  35.2527733
  23.4991665  16.0095310  37.2772980  22.8704166  16.8997059  37.2963753
  23.3825626  15.6065655  38.2833443  24.5124187  16.3639851  37.0881462
  23.9017582  14.0183077  36.0499611  24.7523861  14.4619045  36.0145111
  21.5938301  13.3356247  37.5655174  20.9574947  13.6845522  38.5399628
  22.3012981  12.2360525  37.5003510  22.8938007  12.1143408  36.6915092
  22.2654839  11.1255484  38.5570602  21.4977360  11.2898989  39.3131371
  21.9565945   9.7421322  37.8429260  21.2284050   9.8936634  37.0461273
  22.8466244   9.2134542  37.5016823  21.0031013   8.7595224  39.0349274
  22.0121040   8.4861717  39.8668556  23.6199017  11.0152607  39.2996216
  24.5949821  11.3150978  38.6365051  23.6703320  10.6224108  40.6014709
  22.8338451  10.7348785  41.1562119  24.9380150  10.3895006  41.2492676
  25.6201038  10.1255484  40.4410706  25.5381470  11.7230568  41.8709831
  26.3084545  11.4442205  42.5899963  26.1730404  12.2417040  41.1526413
  24.6050301  12.5514040  42.7086639  23.6459885  12.0333920  42.7096825
  24.9280090  12.5954218  43.7487869  24.3340111  14.2983599  42.2090034
  23.6563454  14.0751734  40.5200462  24.5231647  13.6395435  40.0231018
  22.8515358  13.3419523  40.5727005  23.5121880  15.0533180  40.0611877
  24.7803783   9.1411695  42.0784378  23.6727905   8.9190950  42.5682716
  25.8455372   8.4665003  42.4234924  26.7485580   8.8027210  42.1208229
  25.7062683   7.2479262  43.2488441  24.8066883   6.7006259  42.9672127
  27.0020370   6.5110774  42.9770546  27.1800575   6.3869400  41.9088783
  27.8728333   7.0319915  43.3751297  27.0066414   5.0845580  43.5145988
  26.9326439   5.0975938  44.6020088  26.1648922   4.5822930  43.0378494
  28.3194027   4.3703427  43.1877937  28.4666595   3.7326927  42.1606140
  29.2900982   4.4328532  44.0757294  29.9433022   3.6901367  43.8712845
  29.1300354   4.6478152  45.0495224  25.4300785   7.6571755  44.7371101
  26.0303249   8.5992670  45.2759209  24.4711285   6.9904823  45.3919983
  23.9756870   6.3262305  44.8145866  24.3632984   6.9387321  46.9026566
  24.0222569   7.9129324  47.2529755  23.2658081   5.9075432  47.3393440
  22.5999489   5.9773831  46.4791985  23.7021809   4.9238605  47.5126839
  22.6378155   6.1901889  48.6641273  21.9622574   5.3782463  48.9333305
  23.3931904   6.2489929  49.4477425  21.8174019   7.4884238  48.6456528
  21.7937965   8.1870842  49.6765327  21.1940289   7.7494097  47.6130676
  25.6410542   6.6572366  47.6096001  26.5110874   5.9404020  47.0960808
  25.8182507   7.1489716  48.8339233  25.0702610   7.7351975  49.1759033
  27.0648289   6.9419494  49.6529846  27.9746952   7.0089407  49.0565300
  27.1193867   7.9889045  50.7514267  27.3149071   8.9684153  50.3150406
  26.1626854   8.0165243  51.2730179  28.2616959   7.6126237  51.7756958
  28.2817287   6.5492573  52.0143471  29.1711731   7.9854460  51.3045731
  28.0853176   8.4812307  53.3708496  29.5062199   7.7592068  54.2960205
  29.6914864   8.4020472  55.1565628  29.2618256   6.7585154  54.6523781
  30.4096889   7.6239033  53.7014313  27.0528069   5.4399047  50.1791039
  25.9595661   4.8950758  50.4660416  28.1557789   4.7052526  50.2610245
  29.0554161   5.1258850  50.0771217  28.1932850   3.2433219  50.5680656
  27.2785950   2.8451998  50.1288147  29.4575901   2.6902072  49.9236603
  29.3509197   2.9044955  48.8602676  30.2960701   3.3166492  50.2279968
  29.6392136   1.2214000  50.0336571  30.7584972   0.7515785  49.7615166
  28.6192093   0.4764419  50.3024254  28.0158978   3.0232043  52.0777588
  28.7884789   2.3715410  52.7578888  26.9340420   3.5402408  52.7171440
  26.2262077   4.0544581  52.2125130  26.5957394   3.2152879  54.1335106
  27.4901142   3.2745385  54.7537422  25.6810265   4.3334832  54.6374474
  24.7860527   4.4427352  54.0249214  25.1857662   4.1638432  56.1154785
  24.6972427   3.1965706  56.2330971  25.9315948   4.4346738  56.8628006
  24.4571342   4.9334888  56.3701172  26.4004402   5.7142239  54.5093193
  26.6556396   5.8488493  53.4581985  25.6972942   6.4968133  54.7943535
  27.2244263   5.7491837  55.2220078  25.9219398   1.8288255  54.3463974
  24.7767506   1.5920157  53.9394455  26.5943012   0.9073498  55.0518646
  27.4176483   1.2434262  55.5306664  26.2761974  -0.5445778  54.9047852
  26.2077236  -0.7803799  53.8428001  27.3424416  -1.4008603  55.4780655
  27.4758472  -1.3537694  56.5588455  27.1560402  -2.9413810  55.1742439
  27.8521976  -3.5265045  55.7751503  26.1378021  -3.2604375  55.3967171
  27.3773308  -3.1495407  54.1274376  28.6292000  -1.0715744  54.9501266
  28.6877060  -1.5613773  54.1265564  24.8856640  -0.8401899  55.4226685
  24.1206799  -1.5910025  54.7920418  24.5617447  -0.2492681  56.5652809
  25.3137016   0.2292389  57.0403481  23.2269955  -0.5813073  57.1611023
  23.1393833  -1.6656801  57.0935783  23.3484592  -0.3991871  58.2288971
  22.0291138   0.2642305  56.5774994  20.9116154   0.0035173  56.9188805
  22.3077049   1.1796938  55.6036034  23.2881451   1.1876274  55.3611717
  21.3625202   1.9919001  54.8101158  20.8523788   2.6811888  55.4829750
  21.9652481   2.6634777  54.1987228  20.4075184   1.1318653  54.0442657
  20.5964794  -0.0651072  53.7637787  19.3497620   1.8102412  53.5513535
  19.3342400   2.8187578  53.4988670  18.2762794   1.2310954  52.7893829
  17.9445324   0.3429283  53.3271599  17.1091614   2.1701717  52.6965828
  17.0699081   2.7359443  53.6274223  17.1893291   2.8834713  51.8762932
  15.7319717   1.5086247  52.3599930  15.7975779   1.0527799  51.3720665
  15.2891912   0.4992793  53.3793564  14.3581028   0.0404748  53.0466805
  16.0047665  -0.3209373  53.4368019  15.1565590   0.9061822  54.3818245
  14.6583109   2.5565512  52.2770004  13.7327185   2.0622334  51.9819756
  14.6365004   3.1163270  53.2120285  14.9677267   3.2041175  51.4566231
  18.6416359   0.7775980  51.3437920  19.2505474   1.6011426  50.6931152
  18.2703209  -0.4500820  50.9280968  17.6879005  -1.0116394  51.5326958
  18.6013432  -1.0244671  49.5863304  19.5511074  -0.5965328  49.2655182
  18.6525364  -2.5411069  49.8240433  17.6870899  -2.9316201  50.1457748
  18.9725151  -3.0109515  48.8940125  19.6255016  -3.0649443  50.8938675
  19.4356384  -2.6689765  51.8914948  19.5877171  -4.1492381  50.9986458
  21.1216145  -2.9355996  50.5551300  21.4176960  -3.5312874  49.6916504
  21.3780727  -1.8944136  50.3595276  21.8862820  -3.5350261  51.7828598
  21.5900230  -4.5680022  51.9653168  22.9348183  -3.6162572  51.4963722
  21.8636303  -2.5852821  52.8795624  21.7122307  -1.6606113  52.5025215
  21.1492615  -2.8489811  53.5430717  22.7319603  -2.5037827  53.3889389
  17.6392746  -0.5880513  48.4453888  16.4682980  -0.3043926  48.6990166
  18.1712608  -0.5294994  47.1774139  19.1621456  -0.7118300  47.1066971
  17.4264183  -0.4014700  45.9543991  18.1647396  -0.1239280  45.2020950
  16.7492447  -1.7200346  45.5203705  15.8711996  -1.6581725  46.1632614
  16.4004612  -1.5060030  44.5101013  17.5463943  -3.0307825  45.6296043
  18.5386333  -2.8355062  45.2228813  17.7826118  -3.3020468  46.6585503
  16.8337173  -4.2045584  44.9021988  15.7455053  -4.2041774  44.9646187
  16.9657345  -4.0509162  43.8311882  17.2649479  -5.5973802  45.3778267
  18.3219681  -5.5431499  45.6383400  16.6928139  -5.8246431  46.2773438
  17.0835419  -6.5821028  44.3440437  17.0706882  -7.4590545  44.8449364
  16.1524506  -6.4650879  43.9705696  17.7595501  -6.5970054  43.5937843
  16.6196785   0.9149767  45.8848801  15.5455027   1.0255827  45.2907295
  17.0989170   1.9461876  46.5471420  17.9469643   1.8718300  47.0906372
  16.4601593   3.2550633  46.7045517  15.3960409   3.0468154  46.5932655
  16.6272659   3.8277805  48.1854210  16.1489315   3.1007307  48.8416939
  17.6867371   4.0022502  48.3729897  15.8457556   5.5163260  48.2735291
  14.7038956   5.2570677  47.6302299  16.8412495   4.2361941  45.5712280
  18.0339832   4.3821549  45.2727242  15.8975754   4.8303123  44.8745766
  14.9730091   4.5717902  45.1883316  15.9895391   5.9273901  43.8616028
  17.0410900   6.0279446  43.5928497  15.1942692   5.5362864  42.6178780
  14.2252483   5.1449800  42.9276848  15.0324421   6.6701951  41.6257324
  14.4002028   6.4101276  40.7767715  14.3918276   7.3786211  42.1509438
  16.0054798   7.0155921  41.2764511  15.9566908   4.4538431  41.8631325
  15.7323523   4.5450277  40.8003769  17.0208664   4.6497474  41.9944878
  15.6939707   3.0096362  42.3355255  16.2276649   2.9118330  43.2808876
  14.6394434   2.7344573  42.3168297  16.0202618   2.2342646  41.6423912
  15.4495525   7.1673994  44.5779877  14.3958511   7.1372962  45.2427063
  16.1996384   8.3225813  44.4795532  17.0327892   8.2561569  43.9125023
  15.9424191   9.5738745  45.2616043  14.9095716   9.6291771  45.6055031
  16.9552040   9.6998520  46.4997673  17.7905865   9.0024481  46.4376221
  17.3599586  10.7102880  46.4423981  16.2712059   9.5046148  47.8595200
  15.6128626  10.3605738  48.0079079  15.7517653   8.5478420  47.8059692
  17.2275448   9.4515448  48.9745636  17.8854752  10.3196287  49.0152855
  16.6296406   9.4717283  49.8857193  17.9709587   8.1624470  48.9401474
  18.2468643   7.7049208  48.0830345  18.3697987   7.5624061  50.0003510
  18.4599419   8.0924559  51.1628723  18.9383717   7.5782199  51.8886566
  18.2247562   9.0429316  51.4106293  18.8388176   6.3792596  49.8633080
  19.3337955   5.9171805  50.6126938  18.8547211   5.9920616  48.9306107
  16.2041779  10.8239527  44.3419571  16.7988472  10.6866150  43.2685127
  15.5125341  11.8801203  44.7065659  14.9636354  11.8752518  45.5543785
  15.4322758  13.0905266  43.9204407  16.3851528  13.0733843  43.3914490
  14.3419409  13.1588745  42.8241997  14.6477509  12.3684511  42.1387711
  12.9311075  12.6544085  43.2731171  12.3377352  12.4063864  42.3930626
  13.0368805  11.8159266  43.9614906  12.5380955  13.5326309  43.7853317
  14.2415342  14.4310179  41.9259262  13.7290449  14.1155443  41.0171165
  13.7477007  15.2538996  42.4427376  15.2520313  14.7091036  41.6264877
  15.3033323  14.3407536  44.8090019  14.5505934  14.2715111  45.7849655
  16.1923695  15.2490206  44.5368156  16.8206940  14.9802790  43.7931137
  16.1548691  16.6622963  44.7995186  15.4753561  16.8955994  45.6192322
  17.5434799  17.0699539  45.1896935  17.6436329  16.4776363  46.0992165
  18.2593555  16.8276749  44.4042511  17.6664333  18.6034927  45.5357323
  18.6017036  18.7985554  46.0604401  17.7417297  19.1376514  44.5885735
  16.4286442  19.4481602  46.5573692  17.1319847  19.2227268  48.2289429
  17.9846649  19.8686104  48.4384041  16.3372154  19.3677406  48.9606628
  17.5746441  18.2299633  48.3100166  15.7052393  17.4103298  43.5541878
  16.1398869  17.1697121  42.4204254  14.9896049  18.5224094  43.8401451
  14.6472158  18.5966892  44.7874336  14.4438639  19.4740696  42.8777313
  15.0265751  19.3621063  41.9633942  13.0784502  19.0499516  42.3296356
  13.1088734  18.0791359  41.8349724  12.3300581  18.9153423  43.1105957
  12.3735495  20.0885715  41.3586349  12.2850246  21.0068378  41.9391975
  12.9398203  20.1272869  40.4280777  10.6185741  19.7058601  40.7667351
   9.7973270  19.9048214  42.3962440   8.7279987  19.6991863  42.3476944
  10.1289654  19.1423283  43.1010284   9.9585066  20.8638592  42.8885536
  14.5583992  20.8666096  43.4314919  13.7811966  21.1783047  44.2995186
  15.4341803  21.6242638  42.8472595  16.1324310  21.2156467  42.2426300
  15.7014103  23.0113640  43.2842522  15.4925537  23.1650581  44.3429565
  17.1886539  23.2988300  43.1762657  17.4060764  23.2649746  42.1087074
  17.7324200  24.7525482  43.4991608  17.6320305  24.9539661  44.5656738
  18.7369118  24.9731922  43.1380348  16.9865589  25.4495640  43.1171150
  17.8848553  22.3747463  43.9341660  17.8011150  22.6217594  44.8580589
  14.8649836  23.9518623  42.4053001  15.1265917  24.0271072  41.1881332
  13.9986019  24.7257900  43.0039597  13.9211206  24.6210651  44.0055199
  12.7246437  25.2411842  42.3646317  13.0581770  25.4789371  41.3545189
  11.6428556  24.1610413  42.3172989  12.1866941  23.3493328  41.8341141
  11.2731295  23.6351185  43.7038612  10.5135918  22.9052887  43.4235878
  12.2059097  23.2389011  44.1051521  10.8737545  24.4227352  44.3428154
  10.4078445  24.5491486  41.6084900   9.8909636  23.6194935  41.3704262
   9.7845087  25.1692848  42.2526817  10.6660414  25.1263046  40.7206154
  12.3438234  26.4727592  43.1112595  12.6301432  26.5419731  44.2873116
  11.8109379  27.5202446  42.5157127  11.5680208  27.3731728  41.5464554
  11.3832979  28.7908134  43.1342850  11.9201965  28.9386139  44.0713005
  11.8493929  29.9938412  42.1962128  12.9177256  30.0139618  41.9808960
  11.3448381  29.9125710  41.2334480  11.5020885  31.3742428  42.8403130
  10.4181910  31.4062519  42.7296753  11.8546581  31.4174309  43.8708153
  12.2188139  32.4867287  42.1528282  13.4109707  32.6189232  42.2843971
  11.5651455  33.3383179  41.3644638  12.0205326  34.0391388  40.7973900
  10.5712442  33.2690582  41.1987419   9.8736734  28.7208462  43.5424614
   8.9783964  28.3175011  42.7609558   9.5615301  28.9976234  44.7798882
  10.2850914  29.3117313  45.4106789   8.2776680  28.6415062  45.4842491
   7.4888902  28.7031364  44.7344971   8.3207655  27.2279263  46.0622253
   8.7131023  26.4761314  45.3774071   9.1345730  27.1382179  47.3377228
   9.1709375  26.0868969  47.6232033  10.1861906  27.4218941  47.2961311
   8.6441851  27.6901321  48.1396027   7.0196276  26.8096085  46.5911713
   6.4063210  26.8993931  45.8581009   7.9782434  29.7679844  46.5028114
   8.9163818  30.4076900  47.0382118   6.6676860  29.9723301  46.8277969
   6.0198135  29.5246563  46.1953773   6.2031717  30.8418827  47.9112892
   7.0703206  31.4137630  48.2416039   5.2557988  31.8297424  47.2110023
   5.6321683  32.2712097  46.2882080   4.3935313  31.3006248  46.8052521
   4.8331847  32.9980698  48.1915932   5.7447886  33.6157532  48.7259178
   3.6591005  33.4267464  48.2761993   5.6800990  30.0548210  49.1415024
   5.1045790  30.6404705  50.0207596   5.8961048  28.7324638  49.1995811
   6.4911413  28.2645378  48.5309448   5.5683184  27.8941364  50.3635712
   4.5718536  28.2071552  50.6753197   5.3275275  26.4061508  50.0068130
   6.2576308  25.9681606  49.6446228   4.8595176  25.6648731  51.2758751
   3.9400544  26.0976658  51.6700478   4.7644219  24.5961533  51.0837975
   5.6258860  25.6627884  52.0509720   4.2490578  26.1464195  48.9653091
   3.2855053  26.4833355  49.3476143   4.5128531  26.7509937  48.0975533
   4.2575798  25.1110878  48.6245499   6.7721672  27.9595089  51.3462677
   7.8801346  27.8210258  50.9321175   6.5220704  28.3518124  52.5621185
   5.2619967  28.8521156  53.1762848   4.5952449  28.0745640  53.5490494
   4.7113419  29.3366890  52.3700180   5.6428785  29.8321018  54.2818451
   5.0006804  29.7836227  55.1612396   5.7512894  30.8808899  54.0054626
   7.1026702  29.3169308  54.6496201   7.1245708  28.7310505  55.5685158
   7.7453585  30.1826267  54.8096886   7.6737394  28.5357895  53.4824944
   8.3900595  29.2160492  53.0218048   8.3194752  27.1812744  53.8343430
   7.6515465  26.1369781  53.7131157   9.5654230  27.2109890  54.3470802
   9.8776655  28.1096916  54.6861038  10.4231310  26.0094070  54.6145821
  10.7764473  25.6441078  53.6503067  11.6286993  26.5121231  55.3783875
  12.2337255  27.2375374  54.8344955  11.3334913  26.8954353  56.3551292
  12.6338673  25.3233929  55.5863380  12.2455654  24.6232395  56.3260078
  12.8659515  24.7419720  54.6940460  13.8619785  25.8995628  56.2213554
  13.9527617  25.8397636  57.4485550  14.8761787  26.4089603  55.4394646
  15.6756363  26.7846184  55.9292145  14.7188711  26.4936829  54.4453926
   9.7446661  24.8739243  55.3153343   9.8144150  23.6922894  54.9913330
   9.1049385  25.2344475  56.4307938   9.0375271  26.2276020  56.6016655
   8.4355288  24.2443295  57.3017769   9.1130915  23.4088879  57.4779739
   8.1666784  24.9164658  58.6991577   7.9645977  24.1901398  59.4863777
   9.0385942  25.3848991  59.1557083   7.1120524  25.9840794  58.5918236
   6.3367152  26.1831245  59.5883102   6.9923334  26.7698364  57.6131516
   7.1409016  23.6136684  56.6991043   6.6891942  22.5341606  57.0796280
   6.4380393  24.3493748  55.7926636   6.8697395  25.2087536  55.4841156
   5.0965500  23.9321651  55.2021408   4.5619326  23.4063320  55.9932137
   4.2072759  25.1114597  54.9352989   4.6876016  25.7197552  54.1689034
   3.2577477  24.7557774  54.5353165   3.9954653  26.0102978  56.2252960
   3.6775901  25.3528976  57.0345421   4.9217858  26.5382004  56.4518967
   2.8909364  27.0880413  56.0771942   1.8469497  27.0339890  55.4131470
   2.8588736  28.1995659  56.8431396   3.6058254  28.3226185  57.5117378
   2.0788655  28.8378086  56.7772598   5.2262888  23.0236397  53.9727440
   4.3263826  22.3020325  53.5146866   6.4018412  22.9240093  53.3554230
   7.1713963  23.4761066  53.7062416   6.7014689  21.9570179  52.2670441
   5.9402256  22.1162090  51.5033264   8.0385628  22.2709732  51.6490707
   8.8058653  22.3535137  52.4188347   8.4203959  21.2190342  50.6271286
   8.3284569  20.1982765  50.9982109   7.7804089  21.3363590  49.7526283
   9.4615088  21.4003868  50.3601265   7.9732261  23.5701790  50.8705635
   7.2508607  23.4723282  50.0601845   7.6075530  24.3651028  51.5205498
   9.3627434  24.0449867  50.3064079   9.4878378  25.1276493  50.2890892
  10.1272211  23.7238884  51.0139160   9.6511288  23.6974277  49.3143692
   6.5472841  20.5384350  52.7324638   6.9718823  20.1865330  53.8326225
   6.0412679  19.6316833  51.8572731   5.7269559  20.0332413  50.9854584
   6.0585237  18.1645126  52.0422440   6.5731449  18.0139370  52.9912376
   4.6051273  17.5903416  52.0137558   4.0326586  18.0493774  51.2077370
   4.6372743  16.5071278  51.8966064   4.0676050  17.9420109  53.4975624
   4.8396902  17.8037815  54.2544518   3.6245964  18.9369278  53.4530640
   2.9907537  16.9421482  53.8606987   3.3999257  15.9537907  54.0700531
   2.6173236  17.4121437  54.7705078   1.8600471  16.8914795  52.9728279
   2.0087647  17.1703682  52.0135574   0.5753661  16.7665997  53.2860146
   0.0753092  16.4647942  54.5024300  -0.9180383  16.4293613  54.6816177
   0.7738973  16.2116375  55.1865234  -0.2732284  16.8486290  52.3507004
  -1.2560302  16.7576790  52.5650291   0.0618092  16.9918575  51.4087143
   7.0386796  17.5468369  50.9333954   6.9096589  17.6705055  49.7564278
   8.0777340  16.8709984  51.5276260   8.1716185  16.9970589  52.5253181
   8.9878368  16.0076141  50.7467461   9.1258545  16.4676208  49.7682571
  10.3511238  16.0105133  51.5053635  10.2311525  15.5588818  52.4901161
  11.0587177  15.3455181  51.0101891  10.9173794  17.4067974  51.6007233
  10.8433228  18.4638691  50.6021347  11.3299284  19.6073551  51.1804123
  11.3375330  20.5806351  50.7123604  11.5692778  19.3316097  52.4584846
  11.7792530  20.0637398  53.1218033  11.3882923  18.0224590  52.7431870
  11.4248896  17.5952320  53.7344170   8.4616661  14.5696030  50.7386665
   8.1146555  14.0537891  51.8082352   8.3199701  13.9681778  49.5844460
   8.8111372  14.3969336  48.8130684   7.5199656  12.7839251  49.3901711
   6.7239261  12.6225548  50.1170692   6.7163239  12.8610764  48.0706596
   7.4356055  12.9303923  47.2546158   5.8293395  11.6746550  47.6163254
   4.9086094  11.7560120  48.1940193   5.6077332  11.7998724  46.5564613
   6.3273058  10.7340784  47.8518066   5.7709351  14.1333323  47.9882698
   6.4125924  15.0011797  48.1406441   5.3753972  14.1998940  46.9747505
   5.0540047  14.1810513  48.8079262   8.2409019  11.4714069  49.4581261
   9.0526133  11.0950699  48.6144371   8.0399590  10.6169758  50.4995804
   7.2614560  10.7726030  51.1239319   8.6613503   9.2828951  50.5611763
   9.3568420   9.1017199  49.7416840   9.5198202   9.1624918  51.8194351
   8.8248758   9.1995811  52.6583481   9.9250231   8.1506624  51.8299942
  10.7239132  10.1052217  51.8916321  10.5382481  11.5130959  51.9766541
   9.5433435  11.9072266  52.1223526  11.6452026  12.3687315  52.2134056
  11.4715395  13.4274979  52.0899010  12.9741631  11.8784657  52.2560577
  14.0384445  12.7973948  52.3706703  14.8144989  12.4094810  52.7815971
  13.1668024  10.4749212  52.2334595  14.1751661  10.0952196  52.3071823
  12.0508575   9.5777493  52.0777969  12.1167145   8.5032663  51.9908676
   7.5947099   8.1263676  50.4370155   6.5999265   8.1291342  51.1699219
   7.6603427   7.3954577  49.3345184   8.4746485   7.4892168  48.7444191
   6.7913480   6.2641015  48.8621864   5.8544359   6.2629795  49.4192276
   6.3871922   6.4386024  47.3724480   7.2294912   6.2128949  46.7184677
   5.6490126   5.6767640  47.1218605   5.7113695   7.7729802  47.0234566
   6.4146218   8.5717945  47.2588959   5.2699447   7.6892185  45.5987778
   4.7233758   6.7813163  45.3436699   4.5607567   8.4768705  45.3443031
   6.1306849   7.7205024  44.9307518   4.4109550   8.1510382  47.7368774
   3.7116811   7.3242726  47.6120796   4.6677885   8.3073769  48.7845840
   3.9035032   9.0430079  47.3694725   7.6101985   4.9442177  49.0931892
   8.7464809   4.9179115  49.5300980   6.9928646   3.7807672  48.7728577
   6.0142612   3.9139123  48.5614014   7.5101652   2.4196556  48.9846535
   6.6803880   1.7143352  49.0303993   8.3081198   2.0010302  47.7020798
   9.2428465   2.5614069  47.7211838   8.5261574   0.9425638  47.5599251
   7.5653644   2.3755512  46.3984222   7.4130974   3.4518118  46.3173103
   8.1034966   2.0933990  45.4934921   6.0913844   1.8121513  46.3785820
   5.2234454   2.2498894  47.1554070   5.7836881   0.8376182  45.5963097
   8.2234211   2.1620910  50.2867622   7.7390890   2.6235139  51.3219452
   9.3067780   1.3493282  50.3461418   9.7550268   1.0575272  49.4893875
  10.1172953   1.1421632  51.5687103   9.4214544   0.9415727  52.3833733
  11.1170969  -0.0218818  51.4032173  11.7913933   0.2071884  50.5780182
  11.6439409  -0.2685015  52.3250160  10.2277498  -1.3009254  51.0905304
   9.5823841  -1.5281358  51.9390450   9.5696497  -1.1233113  50.2399673
  11.0154142  -2.5440559  50.7178955  11.4735842  -2.4322479  49.7352104
  11.8069897  -2.7447643  51.4398537  10.2224112  -3.8745632  50.7510986
  10.0320749  -4.2440195  51.7587585   9.2268381  -3.7299969  50.3315315
  11.0021982  -4.9624801  50.0682487  11.1887550  -4.8848524  49.0786667
  11.9223976  -4.9540157  50.4844971  10.6555643  -5.9028559  50.1932983
  10.9420900   2.4097588  51.9772110  11.4917812   2.4169326  53.0586281
  10.9726181   3.4786170  51.1587448  10.2150841   3.4652994  50.4908562
  11.6232920   4.7357745  51.4485626  12.6022062   4.4802666  51.8542099
  11.9438972   5.5798903  50.2299805  12.5402975   4.9796987  49.5428238
  11.0135841   5.8245525  49.7173767  12.5062599   6.4565463  50.5514145
  10.8480930   5.4709659  52.6186790  11.4493771   6.4131970  53.2352715
   9.6289396   5.0548453  52.9581757   9.1577415   4.3217692  52.4476166
   8.7487574   5.6939168  53.9951515   8.3888865   6.6052465  53.5175858
   7.5061364   4.8224435  54.2722893   7.3749290   4.5539379  53.2240524
   7.5803089   3.5333700  55.1537094   6.6624761   2.9531090  55.0589027
   8.4266281   2.9142537  54.8561554   7.7809782   3.9227896  56.1518021
   6.3373289   5.7038679  54.7280502   6.3260484   5.8212175  55.8116570
   6.2404890   6.5998292  54.1148834   5.3869333   5.2428489  54.4591446
   9.3993187   5.9716940  55.3246727   8.9898853   6.8204627  56.1376381
  10.3372841   5.0418811  55.7008858  10.5292902   4.3053956  55.0369415
  11.0984087   5.0923762  56.8901443  10.4878969   5.4677944  57.7113838
  11.5778046   3.7637239  57.4521828  12.0435238   3.8797755  58.4308243
  10.5102749   2.6941378  57.5202179   9.5993357   3.0799561  57.9778671
  10.1807861   2.3876247  56.5274506  10.9493523   1.9261839  58.1570549
  12.7139187   3.2034614  56.5671501  12.7403183   2.1151273  56.6213379
  12.5046520   3.4594104  55.5284996  13.7006817   3.6238959  56.7611427
  12.2333689   6.1367364  56.9640083  12.8008776   6.3653131  58.0651588
  12.5090466   6.7445474  55.8528519  12.1382618   6.4189363  54.9716034
  13.5376625   7.8167500  55.6443748  14.3339405   7.7536058  56.3860321
  14.1579638   7.6475401  54.2959480  13.3777695   7.9842529  53.6132889
  14.9381037   8.3841782  54.1039925  14.6237278   6.3458052  53.6835213
  13.7923470   5.6527171  53.8121490  15.2051229   6.4654880  52.2803688
  14.6869221   7.1611366  51.6203346  16.2490101   6.7785249  52.3005371
  15.1159115   5.4656596  51.8555260  15.8100615   5.8678665  54.6583443
  16.5883141   6.6303954  54.6895523  15.3034353   5.8650188  55.6234474
  16.1819534   4.8435745  54.6334038  12.9421473   9.2317123  55.9050407
  13.7355967  10.1563034  55.9188995  11.6235809   9.3931570  56.0722237
  11.0207968   8.6008615  56.2425728  10.9711447  10.6781540  55.8215752
  11.4082947  11.0066729  54.8786659   9.4652109  10.4712200  55.5461349
   9.0704937  11.3626080  55.0585632   9.2686243   9.5852308  54.9424171
   8.6656246  10.2117634  56.8252983   9.1461592   9.4297667  57.4132347
   8.5987892  11.0696735  57.4943466   7.2529206   9.7883787  56.4094582
   6.7162595  10.5368605  55.8264732   7.4135780   8.9443884  55.7386551
   6.4120531   9.5234737  57.5597801   5.8478985  10.3199816  57.8194046
   6.2329645   8.3355017  58.1544037   6.8833032   7.2697306  57.9255028
   7.7248654   7.2672234  57.3670502   6.5535722   6.4134974  58.3476944
   5.2040668   8.2389393  58.9514122   4.9755540   7.4097829  59.4809303
   4.5374675   8.9965677  58.9931679  11.3458796  11.7058105  56.9941673
  11.6411314  11.2002192  58.1337090  11.3011408  13.0496607  56.7480164
  11.3322458  13.5997639  55.4310913  10.3281775  13.7712240  55.0430870
  11.9573965  13.0050449  54.7650604  11.9446869  14.9190226  55.5872078
  11.5156431  15.7390280  55.0113525  13.0177107  14.8433485  55.4111519
  11.8687563  15.3314266  57.0621262  10.9887190  15.9289589  57.3000107
  12.7946024  15.7883406  57.4116173  11.6795626  14.0568657  57.7628784
  12.7024164  13.8564463  58.0817871  10.8764277  14.0144348  59.0418739
  11.3406734  14.0457020  60.2084465   9.5558310  13.8603439  58.8776169
   9.2734213  14.0710878  57.9310799   8.4758339  13.9277744  59.9206352
   8.5404930  14.8839846  60.4398460   7.0873914  13.9204082  59.2213364
   7.0425644  13.0361509  58.5855827   6.2325935  13.8709621  59.8958549
   6.8307486  15.0765591  58.2267570   7.4809542  16.1746006  58.4038506
   5.9747863  14.9628611  57.3555260   8.5465631  12.7901611  60.8707733
   8.1294842  13.0290203  62.0534210   9.0402994  11.6240301  60.3868980
   9.3592548  11.6664743  59.4295197   9.2495232  10.3761978  61.1871681
   8.3927898  10.1587067  61.8249855   9.3738232   9.1943827  60.2212219
   8.5464697   9.0868387  59.5197792  10.2906504   9.3862944  59.6638069
   9.5449333   7.7941375  60.8527679  10.1856709   8.0319023  61.7018967
   8.2087278   7.4372606  61.4628525   8.3885050   6.5462809  62.0644684
   7.8055916   8.3065557  61.9823799   7.5372348   7.0810590  60.6816216
   9.9160748   6.7616057  59.8782959  10.9130087   7.0555696  59.5499687
  10.0741339   5.8000789  60.3667488   9.2002449   6.8856220  59.0657043
  10.5238285  10.4863424  62.0219841  10.4538622  10.0397043  63.1724319
  11.5804071  11.0275335  61.5499878  11.4615784  11.4358921  60.6338959
  12.8416901  11.2134972  62.3100243  13.0247345  10.2503977  62.7865028
  13.9928932  11.7290401  61.4015274  14.1341553  10.9590359  60.6430817
  13.6790762  12.5832129  60.8015213  15.1059504  11.9310255  62.2112732
  15.2829208  11.0687513  62.5943756  12.5679588  12.3482313  63.3749466
  13.0291824  12.1942234  64.5015564  11.7157888  13.3466196  63.1457138
  11.3607645  13.4325285  62.2040749  11.2164059  14.3713217  64.0859680
  12.0881796  14.8858118  64.4902115  10.2962656  15.3923025  63.3451881
  10.8624611  15.8041801  62.5097961   9.4709692  14.8237591  62.9165344
   9.6800184  16.5656834  64.1919174   9.0916214  16.0138931  64.9250107
  10.6924849  17.4862061  64.8505249  11.1693144  18.1228561  64.1052704
  10.2704659  18.0749760  65.6649857  11.3802071  16.9314957  65.4888306
   8.8880386  17.3420467  63.1920624   8.3847923  18.1983528  63.6410522
   9.5827303  17.6220417  62.4001617   8.0791149  16.7868423  62.7172050
  10.5115833  13.6995506  65.2386093  10.6088076  14.1165304  66.3933029
   9.7145939  12.7514296  64.8856201   9.7673330  12.4134569  63.9353065
   8.9033785  11.9962120  65.8686829   8.3675108  12.6091843  66.5933914
   7.8217158  11.1610060  65.1233826   8.2879686  10.5062666  64.3871613
   6.9653053  10.3002253  66.1209488   7.6198072   9.7940874  66.8305664
   6.3640232  11.0018482  66.6991272   6.4429655   9.5161228  65.5728226
   6.8862195  11.9250908  64.3760986   7.3899570  12.3660088  63.6880302
   9.7707586  11.0098944  66.6568985   9.5864830  10.9503622  67.9068756
  10.5853510  10.2154942  65.9970474  10.5614614  10.2125616  64.9873352
  11.3482094   9.1818171  66.6757355  10.7118053   8.6286888  67.3664932
  12.0655699   8.2749720  65.5770187  12.4658508   8.9459438  64.8169708
  12.9057426   7.7499399  66.0315018  11.0980749   7.2782593  64.8836441
  10.7234125   6.6051173  65.6547470  10.2647343   7.7645454  64.3765182
  11.8406906   6.4412370  63.8115044  12.1611824   7.0758023  62.9852409
  12.7127390   6.0705070  64.3501968  10.9918976   5.2597961  63.2918510
  10.3006964   4.9875345  64.0894852  10.4025068   5.6035748  62.4418335
  11.7905245   4.0320907  62.9551430  12.3384199   3.7937005  63.7694397
  11.2384615   3.2099984  62.7564087  12.4595575   4.1741881  62.2119713
  12.2880650   9.8154221  67.7270584  12.4329147   9.3421078  68.8514023
  12.8696871  10.9634075  67.3542175  12.8609858  11.1823397  66.3682709
  13.7613096  11.7571573  68.2695236  14.6407871  11.1437931  68.4654922
  14.3196583  13.0094357  67.5216827  13.6264524  13.2671537  66.7209702
  14.3582058  13.8606539  68.2014236  15.7251015  12.6855803  66.9819183
  16.6779270  12.6338043  67.7006989  15.9944057  12.4889097  65.7016983
  15.2688751  12.5233479  64.9999008  16.9951477  12.3884439  65.6093903
  13.1804533  12.1523151  69.6439438  14.0308161  12.4958591  70.4838333
  11.8978844  12.0922670  69.8890533  11.2785254  11.7390375  69.1737061
  11.1968727  12.2632303  71.1858444  11.7315969  12.1456776  72.1283722
  10.5236959  13.6576786  71.2183990   9.9376831  13.8793049  72.1103516
  11.5784206  14.7860146  71.1701813  12.0429201  14.7158279  70.1866074
  11.1060991  15.7373056  71.4152451  12.3642988  14.6931744  71.9197693
   9.7505255  13.9072428  70.0793762   8.9960241  13.3156414  70.1277084
  10.1528530  11.1912575  71.3790512   9.1310253  11.4751310  72.0170364
  10.4072218   9.9696856  70.8385849  11.2135954  10.0285568  70.2332840
   9.7179022   8.6813116  71.2096939   8.8165398   8.8681517  71.7934189
   9.3055267   7.9310851  69.8769989   8.5806246   8.5972204  69.4091492
  10.0887775   7.7183638  69.1494217   8.6561270   6.5432911  70.1046524
   8.2845373   6.1477051  69.1593781   9.4044275   5.8194504  70.4274521
   7.5140533   6.6035104  71.1798859   6.5771661   7.4406896  71.0311813
   7.4659719   5.7884855  72.1126175  10.6848421   7.7169700  71.9979706
  10.3732805   7.1483359  73.0251160  11.9099779   7.5822420  71.4445114
  12.0136662   8.0507784  70.5557938  12.8665924   6.4690495  71.7760544
  12.3127184   5.5343642  71.8637314  13.8377943   6.2879286  70.5359879
  14.3028517   7.2228098  70.2232285  14.6336012   5.6384120  70.9005814
  13.1399231   5.6712432  69.3353043  12.1699429   6.1069450  69.0956955
  14.0524731   5.9420266  68.0670166  13.5695543   5.7373328  67.1115112
  14.2681017   7.0061069  68.1636505  14.9735346   5.3640599  68.1425171
  13.0020037   4.1429925  69.5112076  13.9438267   3.5943356  69.5052643
  12.5316410   3.8251846  70.4417267  12.4475384   3.6852095  68.6920013
  13.7246647   6.6198897  73.0652237  14.5937147   7.4833417  73.1057739
  13.4640074   5.7851462  73.9984894  23.3075066  11.5651789  29.8421192
  23.0278091  10.5237436  29.6982098  24.1355171  11.5755911  30.5476799
  22.7489262  12.5899391  29.1540241  23.1023006  14.0865650  29.3525352
  22.4964695  14.9488077  28.6975002  24.0247707  14.4651957  30.1164036
  21.8947296  12.2827730  28.1337643  20.7641335  11.3947687  28.4935055
  21.1161766  10.4572554  28.9410820  20.1186676  10.9305038  27.2095642
  20.8127365  10.9928904  26.3741589  18.7889404  10.6468496  27.1243477
  17.9509468  10.7858219  28.3445454  16.8936825  10.5290413  28.3189850
  18.4314556  11.4686518  29.4249668  17.9417706  11.5972357  30.3878803
  19.7207184  12.1778011  29.4284763  19.6364079  13.2481194  29.2037487
  20.3615627  12.1614847  30.7236652  20.6013889  11.2326193  30.8862133
  18.0870342  10.1721773  25.8654213  18.6743450   9.8525877  24.8833199
  16.8453026  10.1506596  25.9395294  39.9494972  19.9807758  47.3916702
  40.8178329  19.5846672  46.8695374  40.0479698  20.9661541  47.8420677
  38.7552795  19.2506428  47.5573502  37.6030617  19.7646160  48.3396759
  37.6223373  20.9149456  48.7559929  36.6681862  19.0925007  48.5646477
  38.5814133  17.9800587  46.9870758  38.1565857  17.8618088  45.5329323
  38.0225906  16.8112583  45.2473106  39.1803856  18.4577141  44.5684242
  40.0581093  17.8210144  44.4804039  38.9855232  19.6790924  44.0545921
  37.7719040  20.4330158  44.4267502  37.7441597  21.5143528  44.3069649
  36.6876259  19.9017830  45.0877724  35.8148193  20.4865437  45.3702469
  36.7127304  18.3870964  45.5152626  36.1779404  18.1750259  46.4491882
  36.1213531  17.6415920  44.4069901  35.4546356  17.0580864  44.8091583
  40.0778694  20.4284134  43.3611832  41.2042656  19.9345303  43.3024178
  39.9779892  21.5755119  42.9731140  16.9579678   9.7497206  55.3815155
  16.1259975  10.4272757  55.5611534  17.2133465   9.0298738  56.1561966
  17.4994469   9.6886377  54.1859322  17.0917187  10.6544733  53.0899429
  16.2596092  11.5228777  53.4291954  17.5715408  10.5667334  51.9835587
  18.5767307   8.8361788  54.0297318  19.8022766   8.9360456  54.8398056
  20.6617336   8.4945774  54.3205452  19.5932598   8.2391872  56.1813316
  19.0913944   7.2741528  56.1622467  19.9065819   8.7416658  57.3788185
  20.5198555  10.0600605  57.5641022  20.9035606  10.3798304  58.5310173
  20.7597218  10.7640295  56.4803009  21.3102455  11.6999502  56.5474129
  20.2076283  10.4749193  55.0780334  19.3258343  11.1256313  55.1250000
  21.1783314  10.9149113  54.0481606  20.9126968  10.4762440  53.2212753
  19.6974602   7.8840375  58.6011810  19.9585724   8.3441477  59.6725235
  19.1962242   6.7852077  58.4856644  12.5218372   7.8261147  18.1090603
  39.4545631  51.2992363  46.6505547  44.8512154  58.5936089  85.1188583
  14.8952160  48.9499702  29.7788906  48.8875008  63.6071587  38.7706413
  76.2903290  36.5858231  55.9904633  52.0456848   4.6847687  80.8741150
  16.5500278  61.2461243  59.7682877  82.1969070  39.3778877  78.2768707
  46.8299561  11.0958300  23.9661713  47.6054649  11.4727240  23.5505142
  46.4412842  11.8231831  24.4520969  65.7030106  25.3537540  85.6617584
  66.3726578  24.8302822  86.1019592  66.1903076  26.0640335  85.2442932
  53.0198555  44.5981712  34.0386734  53.7731857  44.1822433  33.6194725
  52.5315895  44.9930992  33.3162766  56.3302422  14.7132092  30.9077435
  55.4177055  14.6555014  30.6245880  56.2845192  15.0832500  31.7893391
  20.1380253  27.4105244  17.4576244  20.0413685  27.3549442  16.5069408
  20.9047318  26.8715630  17.6523361  21.3038635  40.2584686  10.4540930
  21.0260334  39.8652496  11.2813911  20.9035034  39.7081642   9.7809591
  52.8562622  62.3650131  64.7832108  52.3878670  61.6689682  64.3223801
  52.2207603  63.0776672  64.8502350  40.1827507  31.1411514  59.9349823
  40.4685516  31.6303368  59.1634598  40.9771957  31.0329895  60.4578514
  64.5874252  23.9458637  16.3647614  63.7443542  23.8773022  15.9166965
  64.7361832  24.8873577  16.4524612  58.8069305  49.6199570  72.4525833
  59.2993317  48.9932404  71.9224854  58.6992455  49.1855011  73.2986832
   6.6417866  55.0477180  56.9054794   7.0998583  54.2120514  56.8156776
   6.3858352  55.0827141  57.8271637  56.0409088  58.2976723  62.0662613
  55.5129509  59.0246887  61.7362061  55.4001694  57.6588554  62.3786736
   7.8080716  25.8236160   8.5793715   7.0982904  26.4477272   8.7307930
   7.4406505  25.1872444   7.9659672  43.8511086  31.9296989  33.2453232
  43.4812355  31.5294609  34.0322380  44.6735039  32.3211899  33.5396500
  69.0628357  37.8547020  80.7524796  68.6892776  38.6920204  80.4775543
  69.3687592  38.0107498  81.6459579  12.0118618  33.3765717  70.9787292
  11.7813873  33.3282509  71.9065094  11.5427389  32.6452942  70.5770035
   0.1790228  60.2897911  59.8289185  -0.0053630  61.2261505  59.9028625
  -0.0875598  60.0628052  58.9380531  57.7853050  48.5734978   1.1723981
  58.3024445  48.8369560   1.9335735  58.3208847  48.8254509   0.4201295
  36.9902229  34.3470726  85.5820541  37.3828201  34.1966667  86.4419785
  37.3603973  33.6611252  85.0264664  82.2914200  39.3931847  17.2100296
  81.7174454  39.1234741  16.4930592  83.0631943  38.8338051  17.1223717
  64.9983902  69.8077621  12.9192286  64.3627319  70.4939423  12.7159481
  64.7399368  69.0704117  12.3662872  81.5309982  12.6960630  77.3044662
  80.6269531  12.9981642  77.3920059  81.5782318  11.9176579  77.8595200
  14.7545042  64.8226776  13.0329628  13.9656506  64.2936935  12.9141636
  15.0032158  65.0842819  12.1464300  40.8985291  40.0159760  33.6384811
  40.8614426  40.4739571  32.7987747  40.6725807  40.6839294  34.2857933
  57.8919907  28.2034206  77.6664505  58.8431931  28.1165314  77.7288742
  57.7574959  28.9531384  77.0867386  35.8195877  52.2932396  16.4106503
  35.7963257  53.1474686  16.8419037  34.9788628  52.2308273  15.9573059
  61.9427948  14.7536745  22.6099472  61.5464630  15.3311825  23.2623577
  62.5626907  14.2202196  23.1073284  31.4631577  59.3225098  80.0260849
  30.9669514  60.1064987  80.2613983  31.8246059  59.5183144  79.1616516
  17.3077316  41.2051659  34.3235779  18.0468140  41.8035393  34.4328384
  16.8265209  41.5534477  33.5730019  43.4838486   4.9163723  22.9596691
  42.6714134   5.2104750  22.5477448  43.1980858   4.4344454  23.7357597
  56.6319237  21.3944569   5.6472006  56.8500862  20.5602989   6.0629148
  55.8580780  21.2028790   5.1174006  41.0885658  51.8186302  76.8770676
  41.3337440  51.2517891  77.6083755  40.5857506  52.5261650  77.2805634
  69.3499832  69.2807541  81.5659485  69.4021225  68.4698334  81.0600586
  69.0367279  69.0057831  82.4276276  82.5795593  60.9375076  50.5248032
  83.4513779  61.2416229  50.2724609  81.9958115  61.3076973  49.8626633
  53.0675659  -0.1959551  30.3794308  52.8515053   0.5697547  30.9116306
  52.5066566  -0.1173141  29.6077900  64.6987610  66.5783691  39.5912819
  64.0138016  66.5294037  40.2581139  64.5241165  65.8354416  39.0135345
  36.5634003  62.0837708  48.6645088  36.2783203  62.1083488  49.5779419
  36.2821045  61.2250175  48.3488350  51.4911003  29.4368916  62.1210480
  51.4287186  28.4842968  62.0510178  52.3546753  29.6471329  61.7657013
  34.3369141  49.4137573  30.0588665  34.9272881  48.7807503  29.6502171
  34.6263657  50.2623177  29.7236156  76.8924713  31.2293339  28.0918598
  76.1529770  31.8357906  28.1317844  77.3558731  31.3619118  28.9188519
  12.5341845  68.4458160   0.4822482  13.2973051  68.9577408   0.7502338
  11.8615904  68.6626282   1.1278818  32.0701523  24.1680927  83.0073547
  32.7648010  24.3600712  82.3774033  31.3323746  23.8798828  82.4699097
  81.6181107  32.4196358  30.5142422  81.4950714  32.6215706  31.4417725
  81.1688156  31.5836983  30.3894615   2.6983545  44.5706139  29.9417496
   3.4194100  45.1182747  29.6312962   1.9642235  45.1763344  30.0436630
  64.5957489  33.9987984   9.0938091  65.3850250  33.4596634   9.0426998
  64.7268753  34.5423508   9.8707151  48.8168831  48.0546532  84.0001526
  49.2350960  47.4722557  83.3660049  49.2377243  47.8431511  84.8334579
  55.5854683  43.7973175  33.1847687  56.2054482  44.3721619  33.6335564
  55.7753143  42.9247131  33.5293694  63.8016510  70.9620056  44.7659760
  64.2727127  71.6220627  45.2745476  63.5810661  70.2818146  45.4023056
  52.8169136  33.7708740   1.9690562  53.3058205  33.3172340   2.6556509
  52.6801567  34.6527557   2.3151932  26.7671967   0.9223195   1.7328303
  26.0352993   0.3125916   1.8265822  26.3542309   1.7826988   1.6590910
  10.2831812  37.1863403  52.5936279   9.5785637  36.8269310  53.1326714
  10.6906910  37.8535690  53.1458740  56.2435303  63.2322235  46.6290932
  55.4404106  63.3437195  47.1378174  56.2666054  62.2985382  46.4194946
  70.1420898  56.0314827  47.3459549  69.8778763  55.6664886  48.1904640
  70.4345016  56.9198189  47.5499001  65.4631958  40.7634506  34.7500687
  65.6124191  41.4830666  34.1367836  66.2787781  40.2626381  34.7346954
  55.5635338  37.2530518  72.4549026  54.9871178  37.8536186  72.9274445
  54.9678993  36.6615982  71.9948730  67.0196228  34.2989922  28.7305737
  67.5887833  34.9534760  28.3256702  66.3636398  34.1049500  28.0610485
  56.5209389  43.0271187  78.6339340  56.1472397  42.9584618  79.5124969
  57.3886490  42.6304359  78.7110672  11.5790482  68.6279907  75.3314438
  11.0344391  68.6184464  76.1185532  11.3271618  69.4311142  74.8756256
   1.2601810  41.2564087   0.0658108   1.2158381  41.7502251  -0.7529770
   1.5542766  41.8952293   0.7151572  77.4706039  43.2165718  55.5753899
  78.1532974  42.7477493  55.0954323  77.6847763  43.0736427  56.4973106
  85.8652420  48.6727524  60.5920639  85.4317169  47.9933281  60.0756645
  85.8086700  48.3600273  61.4949684  53.0371323  31.3570118  65.0877151
  53.9549637  31.2931633  65.3517990  52.9353676  30.6873779  64.4113541
  38.2848015  56.2632446  69.2648697  37.9440269  56.9358902  69.8544922
  38.9431610  56.7171135  68.7387619  41.3619690  35.9917297  85.3818970
  42.0530319  36.0922852  84.7272568  41.2769928  36.8599892  85.7757721
   7.7813783  61.9665375   6.7986584   7.0903625  61.6015511   7.3513904
   7.5423808  62.8873978   6.6931672  41.2595100  47.1712646  45.1204605
  42.0902481  47.6265373  45.2577133  41.5115700  46.2999535  44.8146553
  46.3814430   7.7361317  83.1685257  46.9708214   7.4835372  82.4578476
  46.9469795   7.7973909  83.9383545  36.2981873  34.6365089  24.0673714
  36.3824081  34.0827942  23.2911377  36.8396988  34.2057381  24.7287579
  68.3846436  66.1212387  83.7297211  68.1371231  67.0422134  83.6474380
  69.2998199  66.1432571  84.0093536  32.6565704  60.7589912  34.5018768
  32.1148720  60.8585052  35.2847481  32.3964005  61.4862900  33.9365616
  84.9389267  41.8612137  53.9755173  84.5901489  40.9778328  54.0948067
  85.5776901  41.9638100  54.6809883  82.3428192  44.0089340  74.8699570
  82.5816193  44.6937866  74.2453156  82.4765549  44.4105721  75.7284698
   6.7539544  62.2753677  35.6254730   5.9722657  61.7509193  35.4518318
   7.4832940  61.6707535  35.4885826   4.5972519  18.6090813  83.8387527
   4.7855034  17.6822395  83.9862595   5.4267349  19.0529938  84.0151901
  70.3997192  43.4610443   5.5853567  70.1047668  44.2585373   5.1457667
  70.4512177  43.7024002   6.5101957  16.8786888  36.0261574  65.3098068
  17.5125237  36.2490044  65.9915848  16.5749989  36.8716812  64.9795074
  10.6494980  62.1144905  37.0291100  10.2911358  61.3503571  37.4806709
   9.9902802  62.7972527  37.1536140  57.8269501  19.6877441  37.6785660
  58.7390823  19.6815414  37.3883781  57.4985237  18.8169174  37.4548874
  33.5615273  42.9951706  14.1575499  33.3833122  43.0036125  13.2171249
  33.5151253  42.0708313  14.4018316  68.1660538  52.2180443  85.6150208
  68.1293564  52.0652351  86.5592346  69.0053635  52.6566849  85.4758148
  42.4628563   2.3100719  73.0787277  42.9309387   3.1149616  72.8567352
  42.7680054   1.6703445  72.4354019  36.1370697   0.2737198  63.5635109
  35.6417618  -0.3036587  64.1444931  35.5050278   0.5418419  62.8965263
  76.3375015  58.9675674  86.1145248  75.5970154  59.5654945  86.0125809
  76.9569168  59.4453011  86.6661835  27.0970840  50.9492073  51.0366173
  27.0573673  51.6844139  50.4249573  26.3738785  51.1038742  51.6443062
  11.4740286  37.5420914  76.3158340  10.8291492  37.4763374  77.0201340
  12.0712719  36.8098831  76.4688187  86.6419754  35.5080833  72.1628342
  86.4939728  36.1567726  71.4747009  86.6797485  36.0202026  72.9706345
  85.3713379  64.5417938  48.7808304  85.9816437  64.7396851  48.0704727
  85.2407913  65.3796844  49.2248230  48.7835503  31.9989777  70.6299438
  47.8868065  31.6755428  70.7163620  48.7135315  32.7416840  70.0301819
  81.2713318  39.7415962  59.7503662  81.1641312  39.8287506  58.8031883
  81.9332123  40.3946724  59.9775963  16.4251461  22.7536392  10.9405193
  16.7389965  22.2713375  10.1755905  17.1128292  22.6368580  11.5960236
  64.5550308  33.4137688  42.1719475  65.1462860  32.7967567  41.7407341
  64.6473846  34.2240639  41.6708221  29.2588882   0.6190962  86.4843292
  29.5880661  -0.2218047  86.8017578  28.6993465   0.9397098  87.1916809
  71.6391220  46.0373459  54.0768661  72.3164673  46.7136841  54.0758057
  71.8864288  45.4518204  54.7925682  80.2571640   9.6244707  66.7266998
  80.4428024  10.4956379  67.0771790  81.1197586   9.2451029  66.5586472
  62.8125420  15.0387335  60.2284966  62.3836021  15.3000832  59.4136734
  62.7064896  14.0879726  60.2607384  51.8435707  70.1208344  57.6012230
  51.3375435  69.3938141  57.2384415  52.1804619  70.5843048  56.8344574
  19.8826408  11.3747644   4.1781855  20.5405064  12.0627203   4.0773840
  19.9997444  10.8168650   3.4092469  47.6130371  49.4131279  20.9667740
  47.2224960  49.8685951  21.7125988  48.5340385  49.6733818  20.9827175
  77.4314651  68.3021545  78.2212601  76.9872818  67.6560516  77.6721802
  78.2037735  67.8441620  78.5529480  58.0836716   5.7356935  67.2202072
  57.7585106   5.4228344  68.0643768  59.0359039   5.6681471  67.2903824
  62.0280037  50.2216835  20.7522202  61.5973434  50.3828773  21.5917339
  62.0227051  51.0722046  20.3131084  83.7599411   9.9516201  51.7641754
  83.7339249   9.8070230  52.7100334  83.4217834   9.1388741  51.3882408
  14.3651142  39.5605278   4.9844251  15.2358561  39.8875237   5.2105083
  14.5262375  38.7039871   4.5886860  49.8228340   2.5113826  71.2919998
  50.7665672   2.6388333  71.1952667  49.6894379   1.5774508  71.1301117
  37.9596558  70.1122894  19.8039761  38.0348854  69.6051559  20.6122990
  37.1790771  69.7630539  19.3738956  26.6385593   4.6784635  75.0588684
  26.4434566   5.2373767  74.3066788  26.0441074   3.9341471  74.9647827
  63.2193909  66.3395844  45.3306503  62.8995781  66.4209366  44.4321365
  63.9409904  65.7133942  45.2722702  18.2212677  69.6924515  74.6783371
  17.3917027  69.9498596  75.0805740  18.3700581  68.7987366  74.9871597
  75.8698349  49.8290062  13.6424875  75.6805344  49.0438042  14.1561537
  76.5131378  49.5419350  12.9944258   9.0714912  45.6290245   9.5192118
   9.2459393  46.5087967   9.8535728   9.6793194  45.0658112   9.9983454
  63.1464462  69.4587250   9.2497883  62.6397667  68.7313843   8.8885622
  63.7528419  69.0460663   9.8647947  23.3616810  53.0462112  42.9081116
  23.3040276  52.1173744  43.1320953  24.2980385  53.2066765  42.7909966
  27.8297138  62.0005455  53.8206444  28.0039864  61.1703224  53.3772583
  28.6954937  62.3288345  54.0632973   4.2789478  29.9725533  65.5921173
   4.3042326  29.0421543  65.8156128   5.1788726  30.2735710  65.7176437
  12.2340050   7.6914091  24.0949459  11.7783747   7.2708335  23.3657341
  12.4838963   6.9683404  24.6702347  37.1681480  54.6214638  80.7023773
  36.5686760  55.0271492  81.3286972  37.4587898  53.8184166  81.1346664
  49.7398529  60.1898918  58.6087379  48.8173714  60.4123993  58.7342300
  50.1748238  60.5192909  59.3952065   6.6715751  30.8696556  60.9697914
   7.1480093  30.0475883  61.0857506   6.1670599  30.9700108  61.7770233
  52.7819481  38.1415710  63.8021164  52.0773888  38.5981712  64.2618408
  52.5460510  38.2071419  62.8767624  83.9140320  56.9071198  79.5446548
  84.1346970  57.8348770  79.4621429  84.5326767  56.5705147  80.1928864
  47.2339706  66.5099411  32.9872055  47.3110580  67.4362335  32.7585831
  46.3988914  66.2379761  32.6065407  73.3223801  68.4243088  46.6033325
  72.5865860  68.8546371  47.0388336  72.9673386  67.5872498  46.3041649
  50.9159584  32.0420990  21.0605602  51.1855240  31.4733067  21.7817020
  50.8219490  31.4522667  20.3125668  35.3288269  35.4065170   1.0742426
  36.2682686  35.2870255   0.9349431  35.2050667  35.2590714   2.0118854
  19.5173168   0.8896476  84.3837128  19.5520248   1.6223104  83.7687073
  18.6041183   0.6034433  84.3639984  30.9247265  30.6085434   4.4425159
  31.5780296  31.1277523   3.9736359  30.3784065  30.2315731   3.7528338
  50.6998672  18.9848309  87.4403229  49.9429245  19.3899651  87.8635635
  50.9082832  19.5695457  86.7116852  72.5594330   1.7839923  44.8934784
  72.2728271   0.9180150  44.6033516  72.8662109   2.2145455  44.0955162
  38.2983932  49.3772774  82.6934891  38.9124908  50.0247765  82.3472824
  37.4555702  49.8307533  82.7088318  53.6170883   8.0430126  31.4592857
  53.9272537   7.8322763  32.3399773  54.4120026   8.2536516  30.9694138
   4.1411514  50.9776459  75.7644577   3.8593764  51.5475044  75.0488510
   5.0321093  50.7194061  75.5283661  64.3217239  22.0029430  74.9013290
  64.4585037  21.5975552  75.7575836  65.1992722  22.2519970  74.6113052
  12.1257496  48.6273079  33.4863167  11.9119024  48.6697273  34.4183578
  11.8373184  47.7562294  33.2138062   3.3023162  17.3509979  17.1637840
   3.1457372  17.5436077  16.2393284   3.0348945  16.4377041  17.2667885
  20.7947464  44.6354218  69.8130341  21.0214233  43.7116394  69.7059097
  21.4672108  45.1057510  69.3202744  78.3226547   9.8900385  55.9587326
  78.0471954   9.4694214  56.7732468  77.5134735   9.9965849  55.4586296
   0.3270010  62.4630356  42.0535164   0.2434882  61.6372185  41.5767708
  -0.2463502  63.0693436  41.5845947  79.9394455   4.3581772  39.2426071
  80.4983063   4.9390364  38.7263603  80.3676758   4.3111587  40.0973778
  21.2406921  21.2001114  19.1246643  20.4367142  21.6712608  19.3434563
  20.9463177  20.3199081  18.8905354  79.1741028  57.0402031  36.3268204
  79.7754593  57.0952187  35.5841408  78.7491684  57.8974495  36.3549461
  55.3345871  32.0270271  88.0272141  54.8238373  31.5629444  87.3638916
  56.0004578  32.5006943  87.5287323  54.9080353  32.8873405   4.0885091
  55.1821747  31.9832573   4.2424870  55.7262955  33.3672562   3.9606066
  41.4979172  47.6919327  31.1519871  42.1168785  48.3105507  30.7641354
  41.5433388  47.8653908  32.0922432  45.5755920  42.4193878  52.3173141
  45.8367157  41.9060822  53.0818825  46.1660652  43.1727486  52.3215752
  80.0371323  67.4023285  36.1949577  80.5848083  66.6415253  36.0013733
  80.4814758  68.1329651  35.7648888  81.8937149  43.5530968  19.4712906
  81.0205231  43.5581741  19.0791912  81.7686615  43.9363937  20.3394375
  70.3570175  26.0770435  17.9955559  71.0162277  25.6926842  17.4176826
  70.2916260  25.4624615  18.7264748  36.5015259  67.7320404  74.9102554
  36.5691147  66.9694290  75.4847870  36.7228088  68.4751511  75.4715576
   5.7378120  71.2366943  55.5129280   5.7563620  71.3943024  54.5689735
   5.9344392  70.3043442  55.6039963  84.6451645  42.7084312  30.0216846
  84.2571564  43.2629433  30.6985893  83.9538574  42.6105766  29.3668957
  19.2533588  64.0961380  76.7387848  18.3518963  64.3267822  76.5142899
  19.5311775  63.5060539  76.0381851  34.2471962   4.0632048  40.5189934
  34.8254509   4.8008718  40.3248253  34.7054253   3.3003840  40.1663437
  12.7313118  53.8335724  28.2812710  12.7400980  53.5415154  29.1927834
  12.7552290  54.7889290  28.3356285  71.5550003   1.4595002  72.5815430
  72.0498581   2.2779956  72.5439529  70.7492905   1.6443671  72.0989532
   5.1446562   3.3646748  18.6569958   5.4138660   3.4504397  17.7424450
   4.8867035   2.4471655  18.7457027  -0.0184114  69.4159698  57.3691673
  -0.6447577  70.0591965  57.7010956   0.6926408  69.4212646  58.0099564
  13.2287588  63.3277626  79.4396744  13.8653736  63.5656776  80.1137238
  13.3610144  63.9743881  78.7464066  82.9086380  44.3073845  84.4393997
  82.0645523  43.9480591  84.7125931  82.6990967  45.1752739  84.0942993
  27.1601467  61.2899361   6.4369564  27.4765625  60.4346237   6.7277436
  26.2296276  61.1532288   6.2589707   2.3682199  56.2317047  21.7247505
   2.5352437  55.9980431  20.8116589   1.4139328  56.2583160  21.7944622
  51.3349495  48.0726204   5.5066395  51.6511879  47.3637619   4.9465079
  51.9278755  48.8023338   5.3272233  34.5923424  24.3125954  70.8625183
  34.8325272  23.5154152  71.3347931  35.2998695  24.9277172  71.0555496
  53.4894638  51.2188225  85.3680115  53.5870552  50.8484497  86.2452393
  53.8896523  52.0862541  85.4283752  36.2959099  21.9433556  12.6582012
  35.9848671  22.5686741  12.0036335  35.5342407  21.7801743  13.2144957
  53.0956383  42.0611801  38.8339386  52.9070663  41.6109848  39.6573410
  52.7416115  42.9420776  38.9560623  85.7352066  30.8437214  50.7671661
  85.3298721  30.4815254  51.5550461  86.6672516  30.8946953  50.9791183
  34.2845078   8.9257908   1.3164756  34.5501099   8.3022451   0.6405486
  35.1083984   9.2533312   1.6772435  29.8882389  14.6533642  84.2766113
  28.9579487  14.4833212  84.1287079  30.0658264  14.2793837  85.1396484
  55.2190857  45.1116028  30.7428780  54.2735367  45.2590179  30.7638550
  55.4139137  44.6871681  31.5784168  21.9140263  51.3729439  61.4757271
  22.4616451  51.6671028  62.2036133  22.5353565  51.0429382  60.8266716
  42.3672752   3.2403708  24.8761845  42.2792892   3.4795234  25.7988415
  41.4667702   3.1360967  24.5688591   8.3759794  36.8570290  42.5692711
   8.0285311  36.2767754  41.8919106   8.5218840  37.6894493  42.1198082
  19.3909206  44.3479080  53.7381859  19.2537613  43.4010010  53.7100868
  18.8699512  44.6870842  53.0103264  79.7302856  67.2993393  56.6513214
  80.3848953  67.1598053  55.9670372  78.9142227  66.9728775  56.2722588
  34.9983749  27.4797649  77.2652664  35.3917885  28.2773056  77.6193695
  35.0549202  26.8466530  77.9809494  18.8114777  60.3738899  38.7971039
  18.3536949  59.8111572  38.1726036  19.7335930  60.3059692  38.5494728
  47.6807556  49.1602631  34.0228767  47.7533150  48.9073143  33.1025581
  46.7699165  48.9745903  34.2512016  52.1828079  32.9850349  57.2717018
  52.2364693  32.3029976  57.9411621  51.8991470  32.5239830  56.4822731
  83.8870621  15.2597513  51.5031776  84.3306198  15.8758535  50.9201622
  84.5181885  14.5509071  51.6274986  17.2189960  52.8391609  49.6465034
  17.0799770  53.7839203  49.5806580  16.5475788  52.4582520  49.0805168
  21.2276535  48.9658318  39.0896149  20.7816124  49.7111816  39.4917717
  21.4530983  48.3962898  39.8251610  39.1229706  26.9914665  19.3286171
  39.6935768  27.3713531  19.9966927  38.6763840  27.7433109  18.9393616
   3.2362368  66.4060135  40.3019028   3.9308958  66.2329407  39.6665115
   2.4551930  66.0083008  39.9171638  41.3290367  31.5262566   5.5344653
  41.6221466  31.9276543   6.3525105  41.4240761  32.2186546   4.8804126
  78.2011261  50.7743568  37.5703392  78.5954132  49.9395256  37.3177071
  78.8847122  51.2205734  38.0701714  55.9357643  60.1273804  14.4145126
  55.8409119  59.7230530  15.2769241  55.7988739  61.0616226  14.5716248
  83.4902420  26.6624050  79.5800781  82.5937805  26.4200020  79.3480530
  83.9658432  26.6442337  78.7495956  30.3910389  65.7270889  41.5198975
  31.1720314  65.6845245  40.9681053  30.7223625  65.6255341  42.4121628
  68.9124374  24.0838757  56.9815636  68.3499985  24.3423805  57.7116776
  68.7736359  24.7620811  56.3205032  74.9099426  40.5954819  15.8882284
  74.0198441  40.8595085  15.6553326  74.9429245  40.6789742  16.8412094
  76.9850006  40.2963333  77.2398834  76.1912079  40.5910301  77.6862793
  77.6336212  40.9733315  77.4327545  66.5161438   3.5699387  41.6352272
  66.0291061   3.7475939  40.8305779  67.4036179   3.3685153  41.3385010
  81.7726059  22.6064472  20.8978100  82.6801376  22.4085827  20.6665840
  81.7089691  23.5587234  20.8246613  78.3648376  53.0502243  73.8780136
  78.3911285  52.1171875  73.6659164  77.4466400  53.2227135  74.0863266
  81.0918121  50.2460289  75.0537186  81.6005859  50.9286575  75.4912109
  80.9548416  50.5803490  74.1673203  23.5805817  14.2255545  71.6120377
  24.3482170  13.6875744  71.4182663  22.9297428  13.9565306  70.9637604
  52.5005341  49.8155251  78.9092484  52.0193634  50.4219360  79.4722519
  53.0758667  49.3386307  79.5074158  49.6295967   8.0712442  80.1755295
  49.4372177   8.9399757  80.5284119  48.7739716   7.6490626  80.0987244
  41.5308952  67.0092087  85.1500168  41.5159988  67.1696091  84.2064667
  41.1272049  67.7886047  85.5318604   9.7170382  61.0842209  79.4588013
   9.3926716  61.9665337  79.6392059   9.3765545  60.8771515  78.5885010
  54.1627312  33.2387924  40.0286598  55.0309296  33.1403465  39.6378021
  53.6638985  33.7374687  39.3815727  22.3156948  11.8870115   1.0209183
  23.1651878  12.0466280   1.4321563  22.2473316  12.5598211   0.3435069
  65.5897980  53.2683411  15.7253990  65.6542130  52.4070015  16.1379280
  66.4459534  53.4041100  15.3194523  86.3164062  39.6291084  47.3673096
  85.8172379  38.8241959  47.5057945  87.1871796  39.4334526  47.7133064
  33.3100586  38.4873352   0.0772807  32.4082184  38.2448502  -0.1327445
  33.3451767  38.4737740   1.0337403  55.3388062   0.7085955  45.7986183
  54.9876633   1.2258471  46.5234489  54.6221504   0.1237239  45.5525169
  60.2775040   0.3477176  24.3145809  60.1657486   0.9648521  25.0376892
  60.9896393  -0.2260328  24.5972576  42.4610519  39.7875099  78.2096252
  41.7031212  39.6089401  77.6529465  42.0909691  39.9227104  79.0819702
  70.3383636   2.3015046  80.1748505  69.4800568   2.5996647  79.8737640
  70.3451462   1.3628570  79.9874268  31.9524403  52.8360329  43.1672630
  31.4100342  52.5713234  42.4243240  32.0853271  53.7759094  43.0439529
  66.2402802  52.7979813  83.7515564  65.4315186  52.3099060  83.9062119
  66.8697433  52.4190674  84.3650894  58.6539841  53.5049515   2.5179665
  57.8627815  53.7414093   3.0020330  58.4992828  53.8319588   1.6317581
  34.6950722  60.0464821  74.6748352  34.9447365  59.1573105  74.9263763
  34.5312767  60.4932747  75.5053635  85.2385101  46.4011269  38.7578468
  85.9799652  46.9612617  38.5282288  85.2041168  46.4293213  39.7140160
  50.0771866  26.8779774   2.7747676  50.6992569  26.9826260   3.4947038
  49.8556595  25.9468002   2.7830925  77.4445724  14.4234753  26.6600494
  76.5932236  14.6063824  26.2625751  77.3872223  13.5096731  26.9391727
  41.9164581  64.7833252  12.7541399  42.5984993  65.3791580  13.0640335
  42.3578987  64.2270508  12.1123266  55.5937691  12.9966879  33.3923569
  55.6188164  13.6652899  34.0768814  56.3534508  13.1883278  32.8424568
  62.2158165  11.9223299  13.4617825  62.0205154  11.0262680  13.1876249
  62.3285789  12.4042759  12.6424875   9.8868542  38.8693314  30.0348473
  10.1890297  39.5575867  30.6274910  10.6381273  38.6944160  29.4680805
  60.0969086  40.8063240  68.7018814  59.1528816  40.7866821  68.8588943
  60.4843254  40.5511208  69.5391464  47.3172188  43.4934082   0.5083058
  46.5406303  43.4936256   1.0678960  48.0527458  43.4507294   1.1193794
  77.7164993  16.8934841  59.0652924  76.8425903  17.0522861  59.4220886
  77.5737762  16.7739716  58.1263695  62.7497787  51.6145096   0.3763171
  62.2387543  52.3960686   0.5866683  63.3666992  51.9053078  -0.2953032
  71.7533188  67.1523285  37.3170547  72.0338821  66.6125641  36.5780258
  72.0033035  66.6474686  38.0909119  24.3718204  40.1163139  35.3055191
  24.7275200  40.3375130  34.4448318  24.9888706  39.4776802  35.6627693
   1.9566250  64.5653534  43.6165237   2.0878735  65.5134430  43.6049271
   1.0399475  64.4473953  43.3674889   8.6995335   3.5248778  74.6771774
   9.6017466   3.5067444  74.9964142   8.7763720   3.7733512  73.7559891
  26.9487972  36.3769531  85.6635513  26.2360764  36.9895477  85.4819183
  26.5703735  35.5134163  85.4982376  82.8443909  63.2855492  14.7778187
  82.8119965  63.8960800  15.5143213  83.5771103  63.5928383  14.2440338
  29.5403996  50.5151253  51.8489456  29.6076794  49.7890320  52.4690208
  28.6489925  50.4549179  51.5054359  70.0187912  19.8647289  45.7621384
  69.2913818  20.2315369  46.2646904  70.7993774  20.2696552  46.1402359
  40.2833862   1.3674135  59.6164474  40.1037865   0.9047525  60.4349327
  41.2062149   1.1873288  59.4370422  57.8184280  43.5451851  69.0981445
  57.8764305  42.8485565  69.7520370  58.6561203  43.5105133  68.6362915
  26.9541950  20.6720448   7.1258359  27.5266132  21.1210690   6.5037851
  27.2112274  21.0178909   7.9805622  15.0036221  67.4130325  14.0588684
  14.0630913  67.3771591  13.8846636  15.2664022  66.4966354  14.1448765
  47.9492455  46.5490303  19.1423225  48.0986557  46.6362457  20.0837574
  48.5951500  45.9031792  18.8561211   2.3225181  37.9170227   3.3184702
   2.5946088  37.8890572   2.4011827   3.0435925  37.5054932   3.7948396
  80.3355408  51.6445656  29.0052586  79.4680862  51.3834953  28.6960735
  80.5892258  52.3642235  28.4273567  59.4572105  41.3407326  41.9484711
  60.3062935  40.9557838  41.7314377  59.6607437  42.2397308  42.2065544
  24.1093178   3.0556519  74.5464706  23.6106415   2.7598462  75.3080826
  24.2218571   3.9961498  74.6844177  81.9512558  12.7385292  30.9869881
  81.8509521  11.9325361  30.4804821  82.2467499  13.3874893  30.3484230
  45.7067986  22.9776268   9.7201796  44.8470612  22.8225040  10.1113586
  45.8154182  22.2651176   9.0902872  55.4509468  59.3678741  40.6980400
  56.3745308  59.5561180  40.5313606  55.1034813  59.1011429  39.8469505
  75.1846771  40.4297905   2.8550608  75.1545334  39.5399399   3.2064695
  75.5945206  40.3340416   1.9953549  56.8884163  40.9736748  73.4407120
  57.1555672  41.3496056  74.2794876  55.9573288  41.1840515  73.3696518
  44.8404694   3.6797800  13.3311281  44.1647110   4.1025019  13.8611193
  45.6394997   4.1690392  13.5271091  83.4408112  46.8510399  20.2946472
  83.2801514  46.8570633  21.2382507  82.5674057  46.8510399  19.9029789
  18.0867538  64.2211838  69.0046158  18.9728298  64.4918976  69.2450714
  17.5993595  64.2380219  69.8282623  56.9473953   3.1141853  76.3780594
  56.8018188   3.1567552  77.3231659  57.8567085   3.3901827  76.2631149
  11.6572361  57.2929153   7.0306821  11.6099758  57.9663620   6.3521032
  11.1984568  56.5415840   6.6548419  10.9485865  62.6706085  12.4605770
  11.6978989  62.3230362  11.9768877  10.8513498  63.5671577  12.1396732
  80.4532852  11.5225277   6.6256528  80.2735825  12.2425594   7.2302132
  81.2566681  11.1238327   6.9600816  64.2266388  26.5224895  51.6880264
  63.7153282  25.7691765  51.9835052  65.0634384  26.1498871  51.4102402
  78.1958084  27.3613682  23.1372261  79.1477661  27.4594727  23.1568737
  78.0493164  26.4226208  23.2535343  28.6846409  53.0553398  10.4627628
  29.0900230  52.4406166  11.0743275  29.3539047  53.2053833   9.7950764
  81.5737610  29.7651806  11.8523417  82.2490234  30.4141026  11.6544790
  82.0379562  28.9280739  11.8498135  62.7998657  66.4103317  71.8778000
  63.7111511  66.5831909  72.1142502  62.5272865  67.1877441  71.3903961
  52.5148926   4.9944463  38.2326012  51.7869415   5.5609312  38.4883652
  53.2321548   5.2494383  38.8129005  69.2361984  31.5943279  64.5564041
  68.5092087  31.3185749  63.9981232  69.5149765  30.7931194  64.9997787
  46.3724213  15.3935795  21.8013592  46.8347473  15.3661709  22.6390553
  45.5633583  14.9067268  21.9582748  69.7252274  53.0998840  62.1773453
  68.9146194  53.0168724  61.6750908  69.7102966  52.3569298  62.7806931
  75.3296585  19.8072014  88.0053177  75.6401978  19.0217991  87.5548248
  74.4062805  19.8735771  87.7620010   5.2791982   7.5910921   0.1299594
   4.5545225   7.7399421   0.7373477   4.8561087   7.4400978  -0.7152789
  50.4162331  13.3377457  74.3960342  50.8979874  13.6622810  73.6352310
  50.6971054  12.4271946  74.4868164  47.3888664   5.9874015  22.4339752
  47.7938881   5.5193677  21.7038155  46.9902687   5.2999029  22.9675446
  53.8637276  43.5646133  80.4927368  54.0313072  42.8049011  79.9350815
  53.1029930  43.3138885  81.0168152  74.5770493  20.3425484  40.1475334
  73.8538589  20.3038845  39.5216522  75.3190994  19.9590092  39.6801071
  52.1998825   7.1770535  14.0305080  52.6723175   7.7432714  13.4202328
  52.4513435   7.4963937  14.8971233  55.7343941  53.2696342  66.6409149
  55.0392914  52.6116676  66.6529083  56.4660225  52.8534508  67.0967102
  57.8395500  34.1864586  43.7107048  57.2907410  33.4280510  43.5110664
  58.6620789  33.8108749  44.0247421  12.1819181  39.3545723  44.2955055
  11.6962261  38.5647125  44.5331039  13.0879812  39.1596909  44.5348854
  37.1307793  64.1759415  15.7373962  37.4822617  65.0588531  15.8520937
  36.3792534  64.2910080  15.1558456   3.3740916  40.2105904  74.4675751
   2.7645090  39.8241959  75.0963364   4.1862726  39.7185593  74.5879898
  14.5176497  32.6693115  77.3284836  15.1604300  33.0624275  76.7381210
  15.0394325  32.3121223  78.0470810  85.4727097   3.9129252  28.7677536
  85.1300049   4.6127024  28.2117863  84.8851242   3.8977673  29.5232315
  25.7381134  64.6285095  24.2385406  25.4092407  65.1313019  23.4933681
  24.9595680  64.2133713  24.6096935   6.1607137  62.5047073  61.9848900
   6.0371366  61.9126587  61.2429733   5.2727714  62.7396927  62.2542839
  49.7765541  23.1546135  66.0354385  48.8288040  23.1842842  66.1662979
  49.9669609  23.9174767  65.4895248  52.2001572  41.3920784  63.2466011
  52.3866653  40.4644089  63.1021233  52.5888405  41.5844612  64.0999146
  77.2505951  57.2027893  48.9194527  77.1991272  58.1474762  49.0648727
  76.3594360  56.9484177  48.6799545   8.4015617  41.0858803  77.1310959
   9.2696733  40.7316093  77.3237228   8.0712051  41.3842545  77.9784851
  48.2429733   5.1454015  58.2883186  47.6512146   5.8699789  58.4909019
  49.1023903   5.4492002  58.5804520   6.7405744  21.0967178  86.9240417
   6.9871645  21.9575138  86.5857315   5.8678484  21.2262802  87.2952499
  68.7633896  13.3563328  47.8958702  69.1094589  14.1242847  48.3505325
  68.6325150  12.7074366  48.5872726  39.1268616  63.3161964  83.7710419
  40.0561142  63.1534233  83.9329910  38.8135071  62.5161133  83.3492584
  62.8991776  52.2997169  19.1522160  62.4464569  52.2042770  18.3142624
  62.4171181  52.9899597  19.6076412  85.6456375   3.1418407  50.3512878
  85.2189178   3.8363097  49.8494339  85.8639297   3.5509677  51.1886635
  82.4389801  66.2912292  59.8761063  81.5545959  66.5288544  60.1547470
  82.3168488  65.8689880  59.0257988  80.9978485   0.9271304  25.1145706
  81.5017548   1.7073996  24.8832932  80.3290253   0.8631631  24.4328003
  52.7549286  25.0629120  12.1198730  52.0197411  25.6249752  12.3644524
  53.5175972  25.4767494  12.5239878  57.3346024   5.8158598  29.4449997
  56.4760399   5.8579178  29.0238934  57.1476021   5.9046187  30.3795490
  70.5786972  35.9318733  59.3709717  70.6354370  36.8133163  59.0020905
  70.5480881  36.0699348  60.3176689  63.4248466  68.7843018  46.4203377
  64.0903931  68.9394531  47.0905724  63.6486359  67.9287186  46.0541077
  26.4900837  67.1249619  70.8745499  26.0361729  67.5415268  71.6071243
  27.4195709  67.2332230  71.0759506  73.8208160  43.0803032  63.7557449
  73.5085449  42.6997108  64.5766449  73.7474594  44.0256386  63.8868484
  25.5776901  59.0919647  16.4294567  25.8475456  58.7984695  15.5592451
  25.4302101  60.0324860  16.3299675  65.8403778  36.4638367  35.9604950
  66.6542664  36.4118843  36.4616127  65.6352234  37.3983917  35.9330826
  72.3412933  41.5496979  28.8535061  72.6633148  42.2749710  28.3182373
  73.1219788  41.2096024  29.2906551  13.2345047  11.0557833  76.1632080
  13.1800623  10.9871397  77.1163864  13.9743261  10.4971981  75.9247131
  63.6278648  33.9336891  28.1768379  63.0781174  34.4647293  27.6006432
  63.1839104  33.0866547  28.2176495  17.4490643  66.0345917  49.3918839
  18.3507423  66.0241394  49.7129745  17.2397957  65.1137161  49.2355690
   3.4820976  22.7120857  84.6805115   3.8161712  22.0508690  85.2866669
   2.9658744  22.2157536  84.0453796  72.2764969   8.7582617  10.2748594
  72.2839279   8.0342846   9.6487331  72.9483719   8.5271215  10.9162569
  60.5847931  17.6842480  87.0938034  60.8011017  18.0582485  87.9479523
  59.6487770  17.8542690  86.9879913  15.2434740  15.3637409   6.2258897
  14.9249611  16.2590408   6.3408613  15.8133917  15.2135668   6.9801269
  66.2767410  10.5320101  26.4670811  66.8422470  10.9090834  25.7931004
  66.2482452   9.5977688  26.2606525   5.7931042  51.9298744  35.0630455
   5.7177510  52.8416748  35.3444138   6.6101913  51.8995361  34.5653687
  78.6206589  16.5492268  49.9817505  77.8164291  16.7953739  49.5247345
  79.2559738  16.3953342  49.2825241  85.0267181   8.6091137   8.2727032
  84.5089340   7.8948021   8.6440458  85.4662781   9.0031548   9.0261946
  40.8587494  24.9160385   7.8046875  40.8943253  24.7128162   8.7393894
  41.2407608  24.1490135   7.3781042  57.4259453  20.7040329  62.8932838
  57.8899803  20.6461239  62.0580864  56.6980820  20.0885353  62.8060570
  33.4226875  22.8395424  86.9530716  33.7673111  23.6347122  87.3594818
  32.6963806  23.1440620  86.4090347   3.4487758  49.4564285  50.1079178
   2.7384751  48.9252701  50.4678879   3.0059183  50.1344261  49.5975990
  54.2967186  30.5396442  43.9123650  53.4681473  30.6015205  44.3876266
  54.1251373  29.9090939  43.2129364  40.6665497  47.3841286  41.8588600
  40.8329048  47.5559158  40.9320145  40.9875031  48.1657181  42.3086853
  12.1624260  53.6924400  24.2119122  11.8359594  54.2408409  24.9252892
  13.0514536  54.0098267  24.0533981  30.2998486  49.8962440   4.5483580
  29.5115795  49.9955826   4.0145068  30.7436829  49.1322021   4.1802788
  46.4361458  12.9880638  56.4454613  46.6091576  12.9770088  55.5040932
  46.3254623  12.0665350  56.6794815   1.2873448  14.9219275  18.6623306
   1.7880063  14.6906605  17.8799706   1.8338069  14.6291161  19.3916264
  81.1612473  54.4885292  32.2025909  81.3610458  53.7525558  32.7810860
  80.7724533  54.0846481  31.4267368  14.8669262  43.2811813  52.4935112
  14.7073517  43.5918427  53.3847198  14.7547998  42.3320808  52.5470276
  42.3858299  32.7610550  48.6837769  42.8759537  32.2504959  49.3282471
  41.5139771  32.8569603  49.0670624  59.7656708  32.9326096  19.3578758
  59.6438217  32.0067406  19.5679989  60.7058449  33.0798798  19.4609032
  41.5236702  70.2493286  32.6743660  42.4278641  69.9649200  32.5410156
  41.1878586  69.6679306  33.3565979  21.8298683  53.3626251  56.2310982
  21.4950161  53.0314636  55.3977699  22.7342072  53.0509567  56.2666855
  57.0541992  25.4862080  53.9389305  56.9931068  25.1571980  53.0421295
  56.9191704  24.7133656  54.4873047  69.3431244  50.1365051  33.9736061
  68.9203186  49.4415054  34.4780235  68.6184387  50.6674690  33.6432419
   8.9500284  51.9031792   9.5723734   8.6157227  51.0449371   9.3118038
   9.8354511  51.9353943   9.2101316  23.7894306  49.2970161  48.2458153
  23.1987400  50.0415764  48.3596001  23.2169952  48.5304222  48.2755508
  36.5930328  17.2544498  82.7809982  37.4533157  17.3208981  82.3665924
  36.1914139  18.1114540  82.6379013  45.3480453  70.4764862  68.8133469
  44.9958229  70.7075806  67.9538345  45.8084984  71.2640305  69.1031418
  17.4917221   5.4609656  66.5691757  16.9392490   4.6864786  66.4634552
  18.3834896   5.1154213  66.6089325  67.5812073  21.5497627  82.4377518
  67.8643112  20.7098904  82.7992706  68.2138138  21.7375050  81.7443542
  60.9552460  62.5606117  11.9515104  61.4574699  61.7458229  11.9405699
  60.5060005  62.5764275  11.1064301   9.7240629  29.5143814  77.2939835
   9.0088634  30.1502647  77.2746735   9.4477835  28.8626690  77.9383163
  63.3710136  37.0039597  87.6066208  62.5997314  37.5031395  87.3379669
  63.7772293  36.7298126  86.7843857  83.6995392  66.4351044  23.5564690
  83.0828705  67.1287384  23.3223362  83.9845581  66.6571655  24.4428558
  16.3375206  48.4497871  49.1924973  16.1955357  49.3962708  49.2079811
  15.8610992  48.1236038  49.9559479  26.4202251  38.7215385   8.4794655
  26.3738136  38.0344238   7.8146710  25.5085964  38.8791466   8.7250710
  50.2156944  60.6372604  31.4530582  50.4113350  61.5415344  31.2076149
  50.9174614  60.3960037  32.0576630  48.5299225  50.9004364  62.5963554
  47.8719711  51.4110222  63.0681953  48.9829865  50.4048462  63.2785225
   1.7167572   7.2251210  77.6556091   2.1700673   7.7111921  78.3444366
   1.0501317   6.7182221  78.1191788  72.2589188  39.4136581  52.3186760
  73.1527023  39.3042450  51.9939919  71.7172928  39.4263268  51.5295563
  18.8163242  49.2927055  86.7047043  18.1712646  48.8643913  86.1419678
  18.7916508  50.2123642  86.4404144  73.2764359   7.0816088  83.0120468
  73.1939621   6.2065535  83.3911362  72.7541885   7.6416364  83.5863800
  44.3349991  22.5697346   3.1835482  43.6966438  23.2528305   2.9783347
  44.2354050  21.9294071   2.4790654   7.2333250  39.9838791  17.1956902
   7.7307148  40.4072990  17.8953705   6.5758924  40.6321144  16.9430962
  50.5295181  39.1002693  64.9368744  50.2218857  39.9695892  64.6802063
  50.0345154  38.4975395  64.3819656  11.5402632  42.0076752   4.9288893
  12.3496933  42.4641685   5.1583838  11.5801249  41.1874924   5.4207644
  21.2019577  32.9469948  14.0138226  20.9098682  32.7316742  14.8995714
  20.6784477  32.3824272  13.4451103  70.1453857  54.3142052  37.9988022
  70.2758331  55.2470894  38.1689224  69.5714264  54.0197525  38.7059822
  57.8802223  52.4382896  35.3280907  58.1538773  53.3284073  35.1066475
  57.3159561  52.1734772  34.6016541  33.0246925  36.7380257  54.1994209
  33.5978203  37.4061050  54.5754852  33.3427391  36.6263123  53.3035393
  67.4479904   3.4133451  24.8262100  66.6846466   3.5136688  25.3949585
  67.4221878   4.1797290  24.2533035  55.7139130  71.1878738  32.8001862
  55.7768097  70.3506622  33.2599144  54.9590797  71.0866089  32.2203560
  83.6407776  30.6726856   5.4134793  83.9617615  30.2407284   4.6218882
  84.2853622  30.4509392   6.0854721  43.7396126   9.1432981  59.4057121
  43.5809517   8.9701481  60.3336525  43.0032310   9.6916809  59.1350670
  21.0567207  54.6311989   6.8038187  20.4296436  55.1584473   6.3088255
  21.9138031  54.9381523   6.5081482  33.8023720  63.1039810  53.7133331
  34.2931976  63.4723816  54.4479103  33.7910423  63.8021851  53.0586472
  79.7657166  65.9517441  23.0943508  80.3791046  65.3614197  22.6567307
  80.2252426  66.7906418  23.1306801  59.8803406  31.8873806   0.3018123
  59.2006073  32.4855843   0.6122100  60.5977173  31.9952469   0.9262876
  85.4601135  11.3391562  32.5254822  85.9979172  10.6160898  32.8482437
  84.7139282  11.3685198  33.1242981   4.0469828  43.9180832  73.3434982
   4.1986742  42.9977913  73.5586472   4.7745194  44.1524162  72.7672958
  65.4942245  60.8983002  55.0016441  65.4123306  61.8414879  55.1427803
  64.8543549  60.5103493  55.5985489   0.8771074  12.9898548  62.6479568
   0.5548949  12.3944740  61.9712486   0.3613144  13.7875938  62.5304718
  48.2327423  19.2042484  16.9753685  48.6052361  19.1244888  16.0972347
  48.4278107  20.1039600  17.2374706  81.4659805  62.8261757  58.6661301
  81.7048035  63.6467781  58.2350769  80.8770523  62.3934669  58.0479469
  78.3645401  50.5253983  59.1809387  78.5556564  50.5399246  60.1187515
  78.3863754  49.5976372  58.9463959  60.4044838  47.0227089  60.7449646
  60.5784760  47.1155014  59.8082962  61.0117722  46.3420830  61.0351028
  83.4564667   4.6820369  35.7132263  83.7943649   5.2694550  36.3892403
  83.6822739   5.1114459  34.8880882  19.1340714  45.8452148  85.4796906
  18.3629742  46.3966789  85.3472900  19.3944759  45.5817070  84.5970840
  37.2787933  42.7311440  81.3807297  36.8912659  42.0355339  81.9119339
  37.6921539  43.3156548  82.0161133  27.4982986  52.3165779  58.6060562
  28.2291660  51.9468193  59.1013794  27.8958054  53.0007248  58.0673904
  34.3822937   6.3015575   3.6765044  34.4616089   6.0099745   4.5847554
  34.2738228   7.2505865   3.7382317  75.3764954  47.8711739  56.6283569
  76.1834564  48.0370827  56.1409874  75.3863678  46.9285011  56.7941971
  83.5556717  20.0902405  82.5481110  83.9869003  20.8828297  82.2286148
  83.3769073  19.5798759  81.7582932  37.0379066  34.0153198  81.7851181
  37.0831566  33.0617142  81.7157059  37.9488869  34.2916985  81.8849106
  75.2394791  60.5499535   8.9900942  75.2317657  61.5019226   8.8904514
  75.8645554  60.2453384   8.3322744   4.4175186  11.8255587   7.5610061
   4.7670178  11.4386024   6.7582936   4.7203140  12.7333794   7.5408254
  54.8473473  54.5820732  18.6255188  55.7210922  54.9349861  18.7936058
  54.6470032  54.0588264  19.4016018  65.0830917  66.2141953  61.9308510
  65.6476898  65.9421997  62.6543694  65.0862122  65.4681931  61.3310966
  25.1119442  40.3614273  58.1707573  25.8414021  40.3315315  57.5517044
  25.5233555  40.2707062  59.0302620  40.1169205  17.2865295  83.7039871
  40.6642685  17.1980114  84.4842453  40.0264587  18.2314510  83.5808182
  56.0487518  27.8878021  69.4476089  55.2454681  27.6164570  69.8918381
  56.1478767  27.2630882  68.7291794  22.1061783  44.2675438  26.6586075
  21.6123657  45.0859032  26.6069698  22.8908005  44.4277687  26.1342697
  78.8391342  30.0077324  81.1715012  78.1419754  29.8226109  80.5422668
  79.3813934  30.6684685  80.7406693  14.3879509  23.3284492   2.7525744
  13.9571304  24.1619339   2.5630264  13.7413120  22.6646385   2.5128965
  74.0723343  67.0065308   3.6929097  74.7062531  66.7218857   3.0346131
  73.2528839  66.5847092   3.4344587  58.8299904  13.1101341  55.6828156
  59.6414032  13.2297897  55.1893349  58.8040276  13.8537264  56.2850037
  12.2031498  60.2350159  15.1522799  12.4932461  60.9045448  14.5327549
  13.0130434  59.8862457  15.5246553  82.5897751   6.3491592  47.1483574
  82.8329849   5.7491975  47.8534317  81.6343002   6.3033333  47.1137886
   0.4854409  21.4204082  10.3483696   0.5317327  20.5906086   9.8734808
   1.1159189  21.3234367  11.0620403  72.3470840  34.0001373  52.0838203
  72.6222382  34.0389404  52.9998016  72.0150757  34.8780670  51.8960724
  61.2316513  29.9342327  73.1264114  62.0803528  29.8235836  72.6978073
  61.2901878  30.7870827  73.5570526  37.1832275  47.8006821  74.7109985
  37.8555412  48.3691063  75.0866623  37.5623093  47.4931488  73.8876190
   6.1662612  30.7170467   9.7376680   5.7476473  30.6516857   8.8793430
   6.8701115  30.0688896   9.7108526  85.5462875  34.2827950   1.8033224
  85.2707214  34.3954697   0.8935971  85.2037354  33.4245110   2.0527961
  29.3417530  11.0079021  87.4168243  29.5720654  10.1821680  86.9909668
  29.5023384  10.8504963  88.3472366  82.1032944  50.2223206  72.2982941
  82.3585587  51.1432991  72.2446823  82.1663666  49.9034996  71.3979568
  86.4871674  14.7564363  58.6797943  85.5826187  15.0139027  58.8579483
  86.4108200  13.9441538  58.1791954  63.3996162  30.8084259  14.3418245
  63.2486610  30.7174644  13.4009895  62.7389603  31.4379921  14.6306353
   5.0767460  54.0726509  87.6324310   5.3789039  53.3445778  87.0894394
   4.1914396  53.8227692  87.8970566  47.2992439  36.0483780  37.8355598
  46.6370125  36.5059013  37.3175316  46.8489799  35.8145943  38.6472511
  35.2089310  19.4664993  82.6832352  35.8509674  19.6256542  83.3751068
  34.5650787  20.1669769  82.7882080  55.9659615  49.6727562  66.7400055
  56.3384666  49.9122581  65.8914108  56.5957146  50.0041924  67.3801575
  47.1313362   7.5945582   9.6424580  46.4964752   7.0004649   9.2421598
  46.6201668   8.1018295  10.2730246  10.4210768  29.2015572  28.5268612
  11.0699444  28.8267479  27.9312763  10.9359188  29.7140274  29.1501942
  42.0101280  51.9705200  74.3742905  41.6873817  51.7300606  75.2427673
  41.2504005  52.3506699  73.9332352  18.5967197  43.7271843   6.1606026
  19.0324459  43.5042381   5.3380036  17.9490623  44.3885651   5.9169922
  69.6126175  61.8844490  11.5617218  70.3797760  61.7577209  11.0034752
  68.8888626  61.5038033  11.0642061  51.3078003  38.9397545  73.3828735
  50.8312378  38.1354370  73.5882874  50.8557892  39.2974434  72.6186905
  22.9030571  57.4227829  49.0198135  22.7118492  56.5012436  48.8453522
  22.6911526  57.5402184  49.9458466  38.5062943  36.8804703  78.2514343
  37.7238312  36.3575363  78.4261475  38.4524651  37.6069069  78.8724213
  81.5841217  10.4363737  29.7217140  81.3209991   9.5520353  29.4668827
  82.5393829  10.4288311  29.6611843  79.3371887  25.0510960  52.4574013
  79.6304550  24.6639633  53.2822380  80.0958328  24.9829140  51.8777161
   5.8605690  69.5953827  28.1703243   4.9445686  69.8731308  28.1648960
   5.9284110  69.0084152  28.9233837   3.5783732  61.5771675  12.6114807
   2.7298715  61.2985344  12.9559250   4.0770855  60.7655296  12.5178556
  82.4732742  45.3528099  72.3841095  82.4548874  45.2993011  71.4285812
  83.3546448  45.6645470  72.5896301  73.9810410  68.9256821   1.1159860
  74.0872879  69.2297287   2.0173717  74.5513382  69.4970703   0.6016845
  58.4673576  67.2281570   4.0947137  58.1827774  67.4603958   4.9786301
  57.6537437  67.0940247   3.6086390  56.0322533  30.9938107  78.1515121
  56.7860985  31.0083618  77.5618134  55.6598473  31.8731518  78.0859146
  23.9161358  21.5072517  14.7432432  24.7503128  21.7005634  15.1710415
  23.9543591  21.9871826  13.9159365  78.0891190  21.1758633  50.1686134
  77.5988312  21.5246048  50.9130745  78.5524216  20.4162731  50.5216103
  70.9320602  16.1604080  63.1644096  70.8966141  17.0189438  63.5861816
  70.0278625  15.8468647  63.1830788  28.3430386  59.7522087  72.9842682
  28.0548153  59.6321106  72.0794296  27.5685596  59.5538979  73.5106583
   0.4282374  24.4295464  75.7011871   1.0231767  23.8149166  75.2716370
  -0.3576213  23.9143925  75.8835907  65.1249924  15.3217430  17.7140732
  64.1755371  15.2065392  17.7526569  65.2618713  15.9445810  17.0002327
  82.7290268  45.6382980   4.6673427  81.9070816  45.3229332   5.0430784
  82.4887466  46.4418030   4.2059550   3.5738635  66.0029678  56.2938538
   3.7129078  66.1136932  57.2344055   4.2588778  65.3927536  56.0206680
  59.9045525  38.8505402  76.7863617  59.7433395  38.0305901  76.3195419
  59.1745682  39.4165535  76.5353928  44.2027664  62.6803055  62.2626724
  43.6209221  62.9860878  61.5668373  43.6303215  62.1969337  62.8583984
  39.6972771  19.0865631  20.5844326  38.9000320  18.7173119  20.2045841
  40.3426208  19.0397224  19.8790474  63.1303139  44.6987038  19.4403706
  63.9287453  45.1711006  19.6761265  63.2075768  43.8578339  19.8911457
  40.0615883   4.1697278  75.7959366  39.8133392   4.6409755  76.5912552
  40.1033783   3.2519367  76.0645370   2.0307884  11.7371616  56.6563263
   1.2752737  12.2630100  56.9188385   2.7724428  12.3398933  56.7101326
  56.6899338  54.4041672  45.0431595  57.5717583  54.6284447  44.7459717
  56.7390251  53.4724884  45.2571526  42.0090103  62.6879654  78.5463104
  42.9027443  62.6460381  78.2061539  41.7165337  61.7767181  78.5641556
  49.4591713   3.3743348   4.7806392  49.6330872   4.3098612   4.8844481
  50.2958794   2.9521294   4.9752994  53.5570068  11.8176117  50.8229294
  54.2372398  11.1839895  51.0510445  53.7597046  12.0730495  49.9229851
  26.8998260   0.4691872  10.1372166  25.9731922   0.7015411  10.0772600
  26.9153214  -0.3136145  10.6878643   5.9906855  54.4329376  84.6896896
   5.3263340  53.9853401  84.1657410   6.0071459  53.9520683  85.5171738
  24.5680122  17.1534176  81.1994171  25.2727299  16.5082493  81.1414337
  23.7645187  16.6349907  81.1562347  33.5472679  54.6888466  82.2893677
  33.9019928  54.8637466  81.4176941  32.9229584  55.3984718  82.4407043
  68.6448288  26.0169106  54.9137383  68.3631668  26.9272919  54.8237038
  69.5068054  25.9906883  54.4983635   2.3645275  52.8301582   8.1445560
   3.2163868  53.2022400   7.9162560   2.5722456  52.0814934   8.7036514
  53.8434792   5.6230302  19.1842804  54.6295013   5.1012440  19.0225945
  54.1737785   6.4546132  19.5242863  56.0513306  49.4747963  76.8405304
  55.3698578  49.3007622  77.4897919  55.5977058  49.4286346  75.9989166
  76.5417099  64.8005524  67.2559128  75.6452484  64.9489670  67.5568466
  76.4412689  64.4009552  66.3919296   7.3022799  50.5158539  75.6124878
   7.7110939  51.0492783  76.2940750   7.9098406  50.5635757  74.8743668
  47.6599922  54.9811897  44.3138695  47.9365425  55.0848885  43.4033775
  47.8172340  55.8378105  44.7109909  14.9790869  69.9233704   2.0204718
  15.5692968  69.2065125   1.7880925  14.7766905  69.7770081   2.9445088
  78.9812927  31.3482609  12.1293774  79.6734314  31.9265232  11.8087664
  78.4557037  31.1510353  11.3540792  16.7848225  65.2968369  14.7454615
  16.2515373  64.9133911  14.0491800  16.2558880  65.1938324  15.5365677
  49.2473526   1.2025336  26.9948311  49.1156998   0.2600185  26.8920479
  49.6193733   1.4849262  26.1593151   8.3022709   0.0664765  87.0473251
   8.9968147  -0.0537670  86.3997269   8.6423016   0.7351573  87.6418686
   2.9155788  21.0509090  29.9704990   2.9726720  21.3435192  29.0609112
   2.9621322  21.8568935  30.4847507  72.3601303  54.5719185  29.0560856
  73.0089493  54.3796310  28.3791161  71.5932083  54.8788795  28.5725174
  85.1288376  64.8150940  33.8038521  84.7132339  65.5736160  33.3938026
  85.8699951  64.6106873  33.2336464  12.5491104  16.4158535  87.8948898
  11.8398552  17.0321636  88.0775070  12.5299072  15.8037758  88.6305695
  36.0778389  48.0830727   3.9552033  37.0092926  47.8659859   3.9939260
  36.0559273  48.9913940   3.6540306  39.0670738  66.8831100   8.5632019
  38.6652412  67.6430969   8.1422672  38.3290253  66.3188095   8.7935820
  66.9480057  32.6000710  69.4711304  67.1667786  31.8017387  69.9517899
  67.4846344  32.5577545  68.6796265   3.4126394   8.1557693   1.9575993
   2.6558173   7.5813570   1.8414003   3.7244544   7.9650946   2.8422723
  31.6848679   7.4234099   6.1555839  31.4432087   8.3433523   6.2630024
  30.8488369   6.9584494   6.1224599  22.1194344  51.0037193  52.8231354
  21.5864029  50.2236252  52.9766350  21.6568794  51.4776764  52.1320190
  73.0327759  34.3183136  11.4152775  73.2472076  34.9915886  12.0609970
  73.8669968  33.8849030  11.2351065   7.9460526  65.5245972  66.5295868
   7.6434541  65.8097992  67.3917465   8.1115913  64.5873718  66.6318054
  75.7403641  34.4335747  40.9157143  74.7975693  34.3245239  40.7913055
  76.0842285  34.5702248  40.0329247  61.9069214  34.4051590  68.0403442
  60.9761391  34.2002029  67.9516525  61.9238510  35.2649841  68.4606400
  32.4810600   5.9618788  78.2728958  32.8186951   5.2987647  77.6708069
  32.0445023   6.5988712  77.7073135  53.1139565  44.2328339   6.3447709
  53.6419640  43.4918633   6.6421022  52.4442177  44.3362579   7.0207806
  46.0971222  21.4116173   4.9654632  46.7149582  22.1424580   4.9849906
  45.3023682  21.7800999   4.5796928  35.4193306  63.2818985  22.3465233
  36.2300301  63.3296967  22.8531933  35.4030838  62.3880997  22.0043449
  36.0980568   0.1533488   5.8491721  35.4758873  -0.0284427   6.5535073
  36.9549561   0.1324936   6.2752261  69.5686646  14.6576881  22.3418808
  69.5109024  14.1011734  23.1185322  68.6713181  14.9561386  22.1938133
  31.4500561  60.0421181  16.1520824  31.7994022  60.3512306  16.9879284
  30.5676765  59.7349815  16.3601761  61.8777542  51.3739433  30.5254345
  61.6152916  51.0141602  31.3727245  61.1004181  51.8347054  30.2097111
   6.3005362  15.6807556  54.8752365   5.8429856  15.4906998  55.6942329
   7.0988398  16.1339436  55.1464615  41.1663551  28.0162716  80.3787766
  41.9493446  27.7392254  79.9029541  41.4661560  28.1457481  81.2785492
  53.5517654  27.2702770  53.2796898  54.1527061  26.9869041  52.5906334
  53.3702049  28.1879139  53.0766907  80.2747192  29.1656036  69.7352295
  80.6670761  28.3086014  69.5683899  80.2502289  29.5889645  68.8770905
  56.1926155  37.4467392  12.1959963  56.7345848  37.3346863  12.9769850
  56.2087860  38.3886490  12.0263653  14.7911158  51.8455124  15.8241930
  14.7179480  51.1518707  16.4797363  15.6906023  51.7783623  15.5038090
  71.1381683  52.5245819  47.9097061  70.4983826  53.0683975  48.3692474
  71.9193573  53.0742722  47.8479080  38.3044777  27.3106041  14.5315952
  38.4209785  28.2575035  14.4538631  38.6018333  26.9628811  13.6908216
  48.2774696   1.2189600   6.5441036  47.3876152   1.5704323   6.5147829
  48.8403969   1.9800866   6.4025822  75.5888901   5.1609898  26.8630619
  75.1042175   4.5841637  26.2726421  76.1205444   4.5681081  27.3941631
  50.5122490  11.0663977  28.7276325  50.2098236  11.6595917  29.4153023
  51.1096611  11.5963030  28.1998730  33.5958710  28.1598110   6.8372650
  33.3042107  27.6288357   6.0961637  33.1478577  27.7816219   7.5938935
  81.4291458  25.0012283  19.1249924  81.3671188  24.0944557  18.8247490
  80.5506592  25.2086983  19.4434929  29.6245747  53.5098114   3.8834181
  29.7977638  52.6016731   4.1314526  30.4922829  53.8913994   3.7503521
  26.7807274  56.1559601  59.7850990  27.4940891  55.7075272  59.3309517
  26.2747173  55.4517632  60.1904297  62.9552612   5.6485567  65.2692261
  63.0962448   6.2284651  66.0176010  63.8148804   5.5804439  64.8537216
   2.7362070  68.5541611  67.0780487   2.0139873  68.9299240  67.5814743
   3.5209460  68.9625244  67.4436417  22.3280621  47.7712822   7.5099807
  22.6141624  48.4869652   6.9423733  21.9076424  47.1486206   6.9168782
  78.0248795  54.4196320  48.0126266  78.7166901  54.3251915  48.6673813
  78.4699020  54.2953072  47.1743355  36.9014435  52.9222794  84.3053284
  37.4637642  52.5916557  85.0058365  37.4817276  52.9976730  83.5478210
   2.1120274  62.8702545  17.5056648   2.3488271  62.2834625  18.2238808
   1.7758979  62.2896461  16.8229160  74.1020203  13.9943333  18.0418568
  73.7436905  14.0950022  17.1599865  73.3353424  14.0070801  18.6148090
   1.4353240  65.6808777  51.7857971   0.7451469  65.2702560  52.3066368
   1.7006599  65.0037766  51.1634102  62.1962090  20.6233807  81.6345520
  62.5137253  21.5175228  81.5083542  61.2719307  20.7271214  81.8607712
  52.2283096  66.6554260  72.3109055  51.6736641  67.1295929  71.6914139
  52.8306122  66.1560287  71.7594833  26.9563904  42.8071327  73.7574844
  26.8689556  42.7737045  72.8048706  26.3770447  42.1147614  74.0756226
  70.2964096  22.2066975  60.9552994  70.3895950  23.1381912  60.7556343
  70.3040161  22.1647892  61.9115524  49.9983978  35.4488716  79.7785034
  50.1259270  34.9106979  80.5597458  50.4259186  34.9577141  79.0769119
  11.0122547  44.4423752   1.2797806  11.8238707  44.6410141   1.7467408
  10.5794363  43.7826767   1.8217218  45.6958580  10.8459244  73.3383408
  45.7332077   9.9522657  73.6792450  44.7611237  11.0233278  73.2332916
  59.0612335  51.3336449  22.0327797  58.5352097  51.1516800  21.2540512
  59.0468369  52.2872810  22.1140709  40.8858109  63.3881912  19.6685390
  40.2979393  63.0781708  20.3573952  40.3984947  64.0888824  19.2351933
  85.6077042  71.1249695  40.0350151  85.1790085  71.1621933  40.8900414
  86.5330124  71.2808762  40.2240295  84.8894653  32.8839684  54.4571686
  85.1288528  33.8106728  54.4451065  84.7440491  32.6621704  53.5374451
  66.1323929  31.9874611  20.7813473  66.4495468  32.8213844  20.4346275
  66.8251495  31.6954098  21.3738194  18.2103367  64.3494568  37.7722893
  17.6988010  65.1574631  37.7312851  18.6495914  64.3007126  36.9232254
   4.4220543  69.5497208  16.6343937   4.0579467  69.0734787  17.3806190
   3.7637610  70.2138062  16.4297886  13.8332739  17.1038818  17.1352520
  14.2273693  17.2351627  17.9976254  13.3983879  16.2534580  17.1976051
  49.1567039  38.6827545  58.0310211  48.2446213  38.8235359  57.7770195
  49.6188812  38.5541458  57.2027168  26.9334259  60.8347511  42.4148941
  27.2893448  61.6970673  42.2004929  26.4972610  60.9585152  43.2579117
  73.4712219  43.1300850   7.4349737  72.7551193  42.9847870   8.0532990
  73.7123260  42.2528801   7.1373005  45.5951309  53.9664078   3.9719849
  45.0992928  54.2293358   3.1965849  45.5850601  54.7395401   4.5362520
   6.1425066   7.0932813  22.0751534   5.4872541   7.2097578  21.3871784
   5.7986665   7.5871968  22.8195000  28.3668327   7.0770054  84.6747971
  28.8117905   6.2371149  84.7880630  28.3398418   7.2078505  83.7269669
  67.6754990  63.8930168  15.8269005  68.5003510  64.0708542  16.2788143
  67.8182449  64.2089920  14.9347048  28.1940193   7.0240078  71.7567673
  27.9402542   7.5837493  71.0229263  29.1440907   6.9396362  71.6762848
  61.9687614  57.5945282  61.6139069  61.6396637  56.8853378  61.0616608
  62.6208420  57.1769905  62.1766510  62.2949257   1.9521140  78.3992233
  62.6912575   2.7001159  77.9524002  62.5427742   1.1962513  77.8667984
  16.0158672  11.7266150  58.0676537  16.0606842  10.8032236  58.3157921
  15.4593191  11.7386341  57.2889748  85.3763580  55.8450737  47.5500755
  85.8408737  56.3851776  46.9107475  86.0520401  55.2763062  47.9191132
   2.5843093   9.6786861  25.5441647   3.2204533  10.3928490  25.5832005
   2.2165341   9.6370106  26.4269085  51.9350700  59.9186134  70.4457321
  52.3019142  59.0511818  70.6166534  51.4693413  59.8222694  69.6150360
   4.9512033  27.9042950  73.0312805   5.1091771  27.4262714  73.8453903
   4.9760776  28.8265438  73.2863617  62.7617149   9.0954399  16.1665497
  63.2504425   9.9104023  16.2814960  63.1092911   8.5107012  16.8399754
  83.4063568   2.8278623  72.1861115  83.8627319   2.6207719  71.3705902
  82.5856323   2.3382339  72.1322784  63.5627594  40.0046158   6.7969465
  63.8121758  39.1373749   6.4776945  64.3269196  40.5535355   6.6209259
  81.3210983  46.7369041  84.0636368  80.6597977  46.7162552  84.7553635
  81.6928024  47.6175575  84.1138458  32.8663864  54.3436470  28.4534016
  32.6850739  55.2430382  28.1805439  33.6502151  54.4121361  28.9985218
  64.2256088  29.6702957  72.8219528  64.3106842  30.5760193  73.1197052
  65.0883026  29.4520760  72.4692917   1.3570827  31.9094238  11.8810959
   2.0687878  31.4883003  11.3990555   1.4130834  32.8322601  11.6331692
  32.4998093  50.7737274  48.3554764  32.2509537  51.6387329  48.0297966
  31.7693863  50.5090790  48.9146500  53.9814453  67.7572632  63.1671448
  53.0651474  67.6300201  62.9212875  54.1632576  67.0512619  63.7874184
   8.1136932  62.5995712  18.0260010   8.4433956  61.8245163  17.5712280
   7.3747282  62.2779770  18.5424690  41.1607780  67.3110809  27.4516945
  41.2489891  67.4942474  26.5163345  41.7525063  67.9334412  27.8744831
  62.9195404   5.3523622  24.6902943  63.6701088   5.7178235  24.2219810
  62.8451576   5.8890095  25.4794121  54.5644913  22.0632820  26.6497192
  55.0240402  21.3629570  26.1864796  53.8985519  21.6110668  27.1676540
  34.7333031  57.6905098  57.0251198  34.2562447  58.5128975  57.1361351
  34.8543930  57.6096916  56.0790558   9.5439692  43.6547623  67.1599503
   8.7534008  43.3034706  67.5696182   9.3102293  43.7575989  66.2374420
   5.3057671  68.9883194  13.9687262   6.1245065  69.4831924  13.9370346
   4.9804983  69.1202164  14.8592510  48.2819595  14.8489275  75.3836060
  47.5076408  14.2912455  75.4587708  48.9137802  14.3174820  74.8992538
  55.1547508  65.7012329  20.0739517  54.9357605  64.9251251  19.5582581
  54.6563950  66.4088745  19.6651630   8.4399519   4.5105476  28.9365482
   8.8940611   5.2369819  29.3635254   9.1405544   3.9211864  28.6571903
  67.6455231  16.5429325   7.9574547  67.1580200  16.4074097   8.7699852
  67.3046875  17.3663712   7.6081476  42.1195221  55.2691154  37.2027092
  42.6361618  55.5936546  36.4651489  42.7301750  55.2657623  37.9398117
  74.1202545  50.8160133  43.4127808  74.0218124  51.4416504  44.1305008
  73.4648056  51.0848694  42.7690887   8.3786583  43.3438683  47.6914902
   8.3040075  43.3843880  48.6449165   7.4739790  43.2981682  47.3821373
  77.4526062  19.8736610  14.1248693  77.0539474  19.2524586  14.7343016
  78.2645264  20.1430244  14.5543671  48.4278297   3.8219368  37.5481834
  47.8222733   4.1381626  38.2186546  47.9967728   4.0293565  36.7190895
  55.0021019   8.3546438  58.9930153  54.1214752   8.1053152  59.2733040
  54.8709373   8.7912321  58.1513405   1.7525061  16.9839230  61.0826836
   1.3537097  17.7482185  61.4986725   2.2765849  16.5807209  61.7747841
  28.5865536   1.1142194  19.8110943  28.7154217   0.3372161  20.3550529
  27.8172379   0.9095849  19.2795792  21.5216827  41.4425621  80.9509277
  22.4606228  41.6259003  80.9826660  21.2521324  41.4136314  81.8689346
  85.0394440  18.7956314  57.1132050  84.8842392  19.7046757  57.3696861
  85.0270462  18.3088093  57.9372711  60.7606049  32.8739700  12.6304531
  59.8520775  33.0035896  12.9024944  61.2484169  33.5562248  13.0917549
  48.5536079  51.3633537  51.1362190  48.1323509  51.8278542  50.4130211
  48.0277443  51.5880051  51.9038315  71.2348480  41.6142082  58.8704643
  72.0718613  41.7485542  59.3149796  71.4283600  41.7639351  57.9450645
  73.8339462   7.3019209  19.1613331  73.8295517   6.6838942  19.8922596
  74.6646881   7.7694592  19.2479877  65.1883698  20.1057606  39.1043167
  65.7034302  19.6571674  39.7749214  65.8308945  20.3704777  38.4460411
  20.1273365  50.0154495   7.6207447  19.4695663  50.0838890   6.9287300
  20.9066544  49.6794128   7.1780529   6.1524653  57.7307358  26.0619793
   6.6323833  57.7812347  25.2353230   6.7185297  57.2151909  26.6364517
  77.0615005  51.7723541  24.5293713  77.1913910  52.6885834  24.7740879
  76.8626251  51.8002968  23.5934753  67.3142776  22.2342072   9.4711008
  67.0953369  21.3805180   9.0975924  68.1406403  22.4742393   9.0518847
  83.7984924  26.3053646  44.3360863  84.1666489  26.6211395  43.5108681
  84.4609451  26.5217876  44.9922523  53.2875595   8.7400265  27.3011208
  52.7270508   8.4350014  26.5876637  52.7219849   9.3085766  27.8237171
   3.6763728  64.8535461  32.4824219   3.5985966  63.9008331  32.5325241
   4.5596342  65.0388565  32.8013916  70.2204132  50.7100182  46.1323204
  69.4898987  51.0728264  45.6313744  70.5149078  51.4340248  46.6848793
  48.4537086   7.8883653  48.2004967  48.3199883   7.4994431  47.3361511
  47.6870804   7.6181092  48.7059402  37.8720512  24.0442276   1.4951985
  38.6765213  24.5628567   1.5042012  37.8821449  23.5720692   2.3277836
  80.1396408   1.0727390  53.1441040  80.8282471   0.8324659  53.7640419
  79.4157028   1.3717624  53.6943169  47.8836403  63.9875183  67.3713074
  47.4429588  63.6195526  66.6053848  48.7196007  63.5231056  67.4127731
  17.9998150  55.1014175  81.0994873  17.7813473  55.5913849  81.8922272
  18.0832195  54.1944313  81.3938522  83.6872406  49.6049805   5.2101502
  83.1068039  49.0371132   4.7033472  83.4378433  49.4504700   6.1212802
  74.7840805  25.9695320  17.5915394  75.1595078  25.1215649  17.8286896
  75.4902420  26.4240875  17.1322479   7.0299883  48.2559204  36.2838593
   7.2868881  47.3881989  35.9719467   7.8502035  48.7474709  36.3269615
  69.0234833  28.8393593  87.6593781  69.4164734  29.2991447  86.9174957
  69.4972992  29.1683140  88.4232635   0.4066341  37.6875763  19.1446209
  -0.4198186  38.0591202  19.4531059   0.8367895  37.3686218  19.9380093
   0.7586216  48.9061737   7.1967468   1.5877366  49.3268089   6.9690080
   0.7695719  48.0789146   6.7153378  58.3334579  22.2778492  77.6978989
  59.0788536  21.9762058  77.1786499  58.4063072  21.7978477  78.5228424
  77.1884460  17.8237724  63.9591103  77.3795319  16.8920269  64.0666504
  76.2702255  17.9110470  64.2150116  58.1999435  71.6400452  32.1637840
  58.1648903  70.8834686  31.5784683  57.3294144  71.6768036  32.5600967
   0.5506372  24.1308441  30.6816502   0.1798268  23.3775749  30.2219582
   0.7974363  24.7389431  29.9848461  24.8187866   3.1513841   2.0558512
  24.8716316   3.1777277   3.0112283  23.8803177   3.1593056   1.8675742
  46.6051521  29.6622295   5.3660321  46.8711319  30.2770176   6.0497885
  47.4126511  29.4702301   4.8892565  41.6225662  40.7059441  80.4827042
  41.0420647  41.4055672  80.7823334  42.1490097  40.4859085  81.2512512
  40.5947990  24.6301746  10.7276583  40.4878693  25.4165382  11.2628508
  40.0652580  23.9661579  11.1691360  82.8615799  61.2184029  12.7041206
  83.5316772  60.6868439  13.1338320  82.5843124  61.8424301  13.3748989
  43.1308861  51.0056725  66.3174667  43.2237320  51.5819359  65.5588303
  44.0086555  50.6503944  66.4572220  85.2783051  71.4336090  19.3179970
  84.9243622  72.0984344  18.7272682  84.6029129  71.3239594  19.9873676
  69.4012070  47.7801285  61.2156258  69.5667725  46.8533287  61.0428276
  69.0729446  47.8012619  62.1145287  30.3979073  14.1041451   8.0233002
  31.1104298  14.7325411   8.1401796  30.4687099  13.8290424   7.1092234
  51.8346825  44.4780388  88.7730484  51.3372879  45.2624054  88.5415268
  52.7462845  44.7693520  88.7917404  17.7965126  16.4638309  88.0903320
  16.9370575  16.1937370  88.4137802  18.1283092  17.0604019  88.7613373
   1.1191814  37.4319000   6.0952291   1.4201756  37.4052544   5.1869755
   1.9047241  37.2560387   6.6131353  64.7490005  66.2761688  20.0455723
  64.5430984  65.4174118  19.6762867  65.6348724  66.4640808  19.7354908
   4.1161385  43.4864044  12.7155533   4.1562777  42.7465477  13.3215494
   5.0033579  43.8456688  12.7170906  26.3664074  47.0888710  52.1889267
  25.4668903  47.2591400  52.4684067  26.8952217  47.2552757  52.9692459
  11.3412437  42.4648552  68.7231674  11.2815065  42.8822899  69.5824738
  10.6917953  42.9222069  68.1890488  42.6468544  63.0056572  53.1438980
  42.2491951  63.7619934  53.5752335  43.0102806  62.4850845  53.8602448
  13.1491632  54.7353706  12.0428619  13.7886934  54.0342445  11.9177418
  12.3679972  54.2910233  12.3723555  38.5124207  34.8281784   1.2431750
  38.3149529  33.9316521   1.5142432  39.3042946  35.0566635   1.7299576
  19.2063503  62.4432449  19.4289417  19.5151443  63.3098907  19.6931477
  19.6705494  62.2624893  18.6115818  70.4681091  32.8117638  17.7328415
  69.8231277  32.1822243  18.0551910  71.1906204  32.7559128  18.3582096
  82.9951019  15.4090719  78.2624130  82.8833160  14.5460129  77.8638382
  83.4311295  15.9297485  77.5878677  78.7378006  70.7582397  29.2749386
  77.9744415  71.1588593  28.8589859  78.7926407  69.8857346  28.8851147
  61.0600700  39.9257431   7.7759161  61.6733131  39.7153549   7.0717130
  60.6404686  39.0912971   7.9853697  27.3171101  18.1280537  79.7195816
  27.1055927  17.1976185  79.7956314  26.5201721  18.5270882  79.3704529
  62.9410324  60.6021233  10.6895819  63.5670204  59.8784714  10.6631384
  62.3696060  60.4521446   9.9364491   2.4781067  40.2863693  10.3703737
   3.2549765  39.7718849  10.1512632   2.2886977  40.0583572  11.2805204
  12.1009712  45.3210907   5.2680883  11.1870174  45.0969582   5.4432602
  12.5985241  44.5728073   5.5978565  61.9316025  62.3586845  54.3445663
  61.4651871  63.0947037  53.9483757  62.6562996  62.1833267  53.7443237
  62.0711441  31.8346386  79.7988205  62.9384575  31.4984665  80.0246277
  61.8381577  32.4066887  80.5300522  24.4099941  58.1071396  46.8465767
  24.7103062  58.9876137  47.0719833  24.2837143  57.6737404  47.6906433
  75.6575546  23.7097549  51.5338326  74.8204956  23.8443031  51.0894661
  76.2899704  24.1973839  51.0061035  33.0573158  68.2880936  18.5230217
  33.8786812  68.7585983  18.6652088  32.4785614  68.6010742  19.2182331
  30.7055988  32.9103432  13.8665104  29.9137115  32.9499512  13.3302469
  31.3308945  33.4751472  13.4123783  31.0735550  17.2508869  16.6853809
  31.4137802  16.7535706  17.4291248  31.3040314  18.1594734  16.8792362
  20.1484470   7.5062861   3.7515168  20.1627865   6.7197628   3.2061667
  20.5720329   8.1769552   3.2157848  70.0554352  66.7320175  67.3094788
  70.6312103  66.0313644  67.0032120  70.6508636  67.3997955  67.6497421
  43.4403801  41.4794426  13.8042345  43.8506584  42.3051682  13.5471811
  42.6385689  41.4379463  13.2830706  79.4639206  26.1231728  16.2137451
  80.3744049  26.4154606  16.1710739  79.3572922  25.8016624  17.1090069
  33.3756180  64.9834366  51.4899559  32.8327713  64.3626633  51.0039597
  34.2052650  65.0007553  51.0128670  31.1954002  66.5536652  58.3014259
  31.3989792  67.0364304  59.1025009  31.6844978  67.0093536  57.6163216
  46.5927010  17.7146358  65.3533783  46.5666618  17.5199547  64.4165421
  46.4964294  18.6656799  65.4031372   3.7225461  36.2017860  84.0165558
   3.5524895  35.9198875  84.9153595   2.8709495  36.1464920  83.5830154
  25.2326107  16.7641678  34.4007683  25.5806961  15.8734236  34.4412956
  25.9834080  17.3036652  34.1528168  44.5406151  53.7998657  19.5204468
  44.7328606  52.8655167  19.5996056  43.7993469  53.8415298  18.9162807
  64.2142487  67.0560684  87.6765366  63.9125710  66.1613464  87.8337173
  64.8519821  67.2193451  88.3714218  71.8360062  17.1780472  25.0888100
  72.1897888  16.6972332  25.8370667  72.1022110  16.6641922  24.3263645
  49.7983971  71.3856125  20.0596333  50.2341309  71.6415176  20.8725815
  50.4839592  71.4379883  19.3936806  57.5982056  13.2760210  59.9654121
  58.2797127  13.0982943  60.6136322  57.2117882  12.4194622  59.7831459
  40.1482925  49.4982452  88.2670746  39.9184532  48.6565247  87.8734894
  40.7807388  49.8819656  87.6596222  41.6330986  59.1567574  23.9804878
  41.1002045  58.4917717  24.4164314  42.3281593  58.6608696  23.5478020
  85.3935699  30.8394585  64.6496429  85.5960312  29.9238739  64.8418579
  85.0617294  30.8280029  63.7518806  11.9840994  29.6900063  74.1594696
  12.8396025  29.8667946  74.5507355  12.1756744  29.1283092  73.4084473
  48.8264236  42.4689560  62.0192719  48.8448639  41.7499695  61.3876457
  49.5810547  43.0104561  61.7878799  49.6963844  65.4127731   8.5256462
  49.3395996  66.2768402   8.7313662  49.0393677  64.7982864   8.8527050
  68.5853119  66.6491394   0.9831254  68.4130859  66.3282089   1.8683214
  69.4572296  67.0405884   1.0356942  61.4057045  13.0540247  43.1918869
  61.6393242  12.2078609  42.8102303  61.7550278  13.0197468  44.0824127
  49.0731812  60.8938522   3.8966627  48.2457085  61.3156090   3.6650550
  49.3825989  61.3778114   4.6623487  82.3383713  66.5534592  51.7000122
  82.2621155  66.4996033  50.7473755  82.5719299  67.4659576  51.8703880
  77.9666519  19.0931187   2.9305296  77.1734848  19.0198708   2.3997238
  77.7998428  19.8372803   3.5090022   9.7018108  40.0727005  25.0159874
   9.3433971  40.8991890  25.3395462   8.9873896  39.4443703  25.1210346
  60.0687637  45.2347488  68.5794220  60.1049309  46.1841049  68.6962357
  60.9309425  45.0028763  68.2342987  34.8755989  45.7794571  35.2392082
  34.7784805  46.5151024  34.6345367  35.5101242  46.0845909  35.8876686
  66.5383224  58.9899368  20.1975536  65.5843201  58.9640846  20.2713375
  66.7103119  59.6786652  19.5554428  11.7767296  50.4307289   5.2068553
  12.1625366  49.7554359   5.7648573  12.5263319  50.8464737   4.7808471
  14.9125700   8.5498209  18.3929863  14.9941082   8.6353617  19.3428631
  15.6606312   8.0107727  18.1359577  79.6942673   7.1694446  59.0331535
  79.8256226   6.2296019  59.1583443  80.5690918   7.5475316  59.1223488
  27.3753166  17.7573681  83.0278625  26.9453583  18.4993629  82.6026459
  27.7030277  18.1119404  83.8543701  84.6874390   3.0049241  25.9957752
  85.1982193   3.7432244  25.6637306  85.3423996   2.3503838  26.2383537
  68.7197418  65.3685684   3.2985916  69.1138077  64.5073395   3.4372776
  69.2120972  65.9528961   3.8751140  62.0909958  47.9956703  11.3792334
  62.3930893  48.1752090  10.4888754  62.7293472  47.3734093  11.7278423
   3.3567336  31.4028549  62.6806374   3.7370224  32.0886917  62.1317787
   4.0716472  31.1337833  63.2574654   5.0949564  66.7273407  24.3439751
   5.3490853  66.1443329  25.0593376   4.5657315  67.4053421  24.7640591
  47.8507996  30.2557259   1.8416008  48.3083649  29.8276215   1.1180055
  47.0576057  29.7344036   1.9652926   6.9496107  18.4862423  60.0707550
   6.4569526  19.1073895  59.5343819   6.9403014  17.6733742  59.5653915
  23.2767963  66.9003830  27.4158707  22.6005268  66.7369690  26.7584591
  22.9818172  67.6884232  27.8721657  55.7566071  58.4370918  68.3379211
  55.6735039  58.3696899  69.2891235  56.2836418  57.6777687  68.0891342
  10.9799938  42.0572510  64.9880600  10.8742981  41.2224808  64.5317459
  10.9110432  41.8332977  65.9161377  48.5710335  21.3699093  14.2619648
  48.1967926  21.4326668  13.3831959  48.8309479  20.4525738  14.3466501
  18.4383259  28.2266884   7.6537275  19.0813274  28.8318577   7.2841973
  18.3858013  27.5144749   7.0163703  74.7408295  55.6080971  82.6557617
  75.2563705  54.9558182  82.1814423  74.2192993  56.0395470  81.9789352
  69.2073669  51.1824074  78.4713135  70.0655670  51.0835838  78.8835602
  68.8596649  51.9970169  78.8342896  53.4300919  55.3664322  26.3432484
  52.5240860  55.0583954  26.3208580  53.7814713  55.0176582  27.1624680
   3.4779444  41.8413162  54.1371918   4.4299350  41.8122978  54.2326012
   3.1677094  42.2389984  54.9507217  35.4837532  54.2921448  64.8712311
  34.5949211  53.9752197  64.7107010  36.0498924  53.6193542  64.4929810
  37.4451942   8.5156097  76.3679428  36.8041191   9.0280380  75.8753281
  37.0432549   7.6515245  76.4575729  56.3397484  52.5980110  86.8951721
  56.6850929  53.4066315  87.2734680  55.4086113  52.7748375  86.7612000
  62.4760284  24.1443024  44.1821938  62.5730438  23.3090668  43.7248077
  61.8594894  23.9592361  44.8906136  11.6521692  48.4537964  50.7925606
  10.8931303  48.1147423  51.2670441  11.9023447  49.2427635  51.2733688
  20.5410576  54.5651741  58.3824959  20.8970490  54.2268066  57.5609093
  21.3077011  54.6923485  58.9413490  75.5222473  51.6780014  82.2368851
  74.9831543  51.7142868  83.0270081  75.8373489  50.7747841  82.2031937
  51.4659081  63.9138107  79.4800186  50.5381775  63.8169937  79.2651367
  51.9259071  63.6146431  78.6957169  70.5338364  67.8009720  49.0514488
  71.2163849  67.1356506  49.1391754  70.3953094  68.1209793  49.9428749
  58.6830826  58.8132668  31.5151901  58.4539261  59.3765068  32.2544327
  57.9523582  58.9103432  30.9045792  81.8661194  36.0836716  55.5000839
  82.4800491  36.3312645  54.8086929  81.5275116  35.2314110  55.2257996
  86.7897110  18.2038765  36.1436424  86.2586823  18.7215881  35.5384827
  86.9409866  17.3782978  35.6834641  37.5736923  61.2650452  80.0871048
  37.9668732  61.0036125  80.9197464  37.1748657  60.4635086  79.7484207
  38.8872070  44.3206787  82.8190308  38.6043663  45.1981773  83.0763779
  39.6261406  44.1283035  83.3962631  46.5588875  49.2174950  13.5347347
  46.3278465  49.1806908  14.4629040  47.4532318  49.5584602  13.5238743
   1.8101518  56.9154510  37.3892555   2.5519280  56.4122963  37.7251663
   2.0661345  57.8297234  37.5109520  80.6765747  40.0112305  86.8383026
  81.5370026  39.6677666  86.5976028  80.0585938  39.4890556  86.3267822
  31.4594212  41.7689781  56.4989014  32.1965027  41.3224297  56.0823212
  31.6703148  42.6997070  56.4247093  14.9908991  71.1259003  58.1399117
  15.7841206  71.0335388  57.6121826  14.8416777  70.2528381  58.5028534
  27.7505016  54.7987404  88.2386322  27.6239624  53.9748001  87.7681656
  28.6877518  54.9771461  88.1613998   0.4768001   0.8674172  37.1124954
   0.6716793   1.5700347  36.4923477  -0.3905110   1.0838124  37.4548073
  35.7898483  10.8517599  82.9259491  35.5894623  10.6194944  83.8326645
  35.3381500  10.1889982  82.4035034  44.3528786  14.8525267   3.1108708
  44.1226311  15.2482796   2.2702777  43.6584167  14.2141018   3.2732568
  10.2361174  45.2331352  80.4766769   9.4370861  45.6238098  80.8304443
  10.8598480  45.2651367  81.2020493  50.1034355   3.3031850  65.5186462
  50.1203384   3.0987566  66.4536133  50.9917717   3.1145644  65.2161331
  69.1749954  59.7511711  89.0086899  68.7033844  58.9242821  89.1090546
  68.4870529  60.4150429  88.9613342  32.6977158  53.7749023  64.3348846
  32.3661957  53.0804672  63.7655983  32.1601295  53.7143326  65.1245422
  48.9573402  17.5956955   0.8058636  49.5450859  17.2972069   0.1118213
  49.1123466  16.9878559   1.5288690   7.3302226  20.3148956  79.4053192
   6.6956391  19.6049938  79.5031738   7.0702109  20.7590141  78.5982361
  67.5234451  23.6630630  28.5814419  68.0962524  23.0702953  29.0680199
  67.5804367  23.3608360  27.6749973  19.7537212  63.1435814  81.8709259
  19.8219566  63.6491280  81.0609818  19.0141411  63.5348244  82.3358765
  13.6679983  15.0288429  10.6262522  13.0684385  15.6627426  11.0198650
  13.3918972  14.9741173   9.7113724  51.2578659  39.6231651  70.5374298
  52.1483841  39.4478951  70.8415451  51.2745628  39.4008408  69.6065521
  33.5920639  51.9945030  36.9006996  33.1142502  52.7594414  37.2213211
  34.0843239  52.3184433  36.1463966  81.5341415  50.6606560  43.7117920
  81.7073212  51.5129890  44.1115036  80.6563034  50.7446251  43.3395233
  77.2928085  42.8865585   8.4632034  77.5817261  42.0752678   8.0453978
  76.6493454  43.2525177   7.8563523  27.4210815  24.7637901  16.7344360
  27.0032978  25.4680843  16.2387981  26.6966801  24.3163013  17.1717319
  64.7987823  10.5572720   6.8812442  65.4636612  10.9714689   6.3311505
  64.3194351   9.9817123   6.2852659  61.3924294  24.9035664  41.3144302
  61.7944221  25.0693321  42.1671638  61.4666710  23.9568005  41.1946220
  25.3065567  69.5437012  11.1413774  25.1581535  70.1021347  11.9045086
  24.4796619  69.0765610  11.0219908  19.8501759  38.9107666  74.9068909
  19.4606705  38.0386658  74.8439484  20.1849327  39.0875854  74.0277405
  54.0434990  10.8694887  64.0709763  54.5143204  11.5189810  63.5487480
  54.3897514  10.0275927  63.7750778  60.2972755  27.5316906  72.2770615
  59.5035667  27.1763096  72.6770172  60.4634781  28.3439579  72.7554245
  72.1719437  61.5180092  67.8581543  71.2780228  61.8502960  67.7761383
  72.6983414  62.1121674  67.3232651  50.6127510   8.1404314   4.9083347
  50.7990265   8.2311468   5.8428421  50.5073853   7.1983733   4.7754579
  18.4009743  44.7837906  58.3720779  18.6428928  45.6501770  58.6993103
  17.4437790  44.7868881  58.3709106  78.7406311  38.3833618  12.7440662
  78.0982819  38.9375000  13.1874018  79.3805389  38.9983063  12.3854628
  23.9395390  58.4260292  13.2107458  23.4507332  58.5959244  12.4054909
  24.8457394  58.6422119  12.9909792  74.6767197  52.2482834  12.8250465
  74.2664490  52.6962204  13.5648174  75.0449524  51.4496384  13.2029409
  45.6240730  71.0823441  27.8287563  44.7534561  71.4635086  27.7148781
  46.1379204  71.7773895  28.2399693  49.4279671   7.1710134  60.2064705
  49.1267433   6.7113638  60.9901924  49.1664467   8.0809889  60.3471260
   2.5241039  12.9716663  69.0530167   3.2075195  13.5337133  69.4180908
   2.9580173  12.1310759  68.9068756  61.8091431  15.2369299  47.8419685
  62.3811111  15.9014997  48.2259369  60.9324493  15.6179962  47.8912773
  62.0245361  63.1881561  68.0786896  62.7108955  62.6406250  68.4599457
  61.2583122  62.6161041  68.0352325  22.8394260  68.9732208   7.9626465
  23.6710033  68.5005569   7.9266286  22.2479820  68.4596252   7.4125123
  20.6166782  40.7770309  30.5148525  20.1243382  41.5868340  30.6492081
  19.9920082  40.1832314  30.0984154  48.2104530  26.4441681  70.8422089
  49.1208115  26.5009670  70.5519333  48.2489967  25.9383335  71.6539230
  54.5700684  45.1863632   2.7020974  55.0024147  44.3365097   2.6180894
  54.3392525  45.4273872   1.8049560  37.7101440  67.9358902  82.6902161
  37.9577942  68.7679443  82.2869949  37.2608681  68.1854248  83.4977570
  15.0011587  34.8292694  53.4040794  14.5522623  34.0145264  53.6297226
  15.7375164  34.8738708  54.0140114  16.4043198   9.9157953  78.0396500
  16.4760323   9.2947807  77.3147888  16.8897934  10.6859922  77.7441101
  84.9874344  13.8238773  63.8930130  85.2328339  14.2403040  63.0668182
  84.9484863  12.8896847  63.6880760  82.2777405  22.3444748  54.0806465
  83.1814117  22.6583443  54.0475426  82.1998291  21.7589092  53.3274689
  66.1444626  19.2226849  61.8908501  65.7464600  18.3530254  61.8518295
  66.9911575  19.1182957  61.4567528   2.6761038  67.0711060  43.0316048
   2.8907795  67.9985657  43.1314507   2.9877663  66.8461533  42.1549683
  56.4285202  52.0507889  73.6857300  56.1252098  51.1988068  73.9993591
  57.3641586  51.9277954  73.5254669  81.9434967  12.5884457  63.0806770
  82.2303314  12.2575951  63.9318542  81.9184799  11.8139687  62.5187263
  35.5689087  62.0708580  10.4902182  34.9314270  61.8165436   9.8230047
  35.1073151  61.9517288  11.3202600  18.5309811  68.5481262  10.3711796
  18.3083344  68.3215256  11.2741261  19.4792023  68.6783218  10.3837605
  76.8126450  19.2354813  39.0684624  77.1649246  18.3499756  38.9789810
  77.2910614  19.7503796  38.4186707  40.2343063  52.9064217  70.3882065
  39.4844437  52.5423050  70.8586960  40.4731216  52.2280426  69.7565384
   2.1611819  39.2767754  78.9592438   2.7696476  39.9709473  79.2124786
   1.9999626  38.7924347  79.7689667  75.8770065   9.5021524  69.6753159
  76.1397858  10.3666763  69.3594360  76.5666733   8.9145393  69.3666000
  14.6281710  70.9098358  23.1538162  14.6260519  71.8620071  23.2517376
  14.2875671  70.7589798  22.2720776   2.3064671  58.6230659  60.6282043
   2.2586167  58.6872902  61.5820465   1.6185106  59.2096863  60.3138390
  11.0954227  67.9998093  67.4480438  10.4898081  68.4168854  66.8352509
  11.9627514  68.2799988  67.1556931  14.3227930  46.7572632   0.7751684
  15.2723999  46.6392632   0.7987190  13.9918633  46.1731796   1.4574910
  15.2850666   4.8599029  75.7832718  16.0548859   5.2829738  75.4029846
  14.5444651   5.2432108  75.3133621  59.0779533   4.8751240  27.7733040
  58.5111008   5.2657051  28.4384022  58.4730453   4.4940467  27.1368332
  40.1507835  39.7273140  70.1854477  39.6740112  39.0812187  69.6644135
  40.3587570  39.2711220  71.0008392  49.0903511  43.6075859  16.0902557
  49.9017677  43.2323265  15.7481852  49.3379478  44.4832344  16.3871899
  52.2072754  17.8543587  15.4388037  52.9453087  17.3672333  15.0724039
  52.3803215  18.7654591  15.2017746  66.5375900  59.0933380   7.6810937
  66.3901215  60.0103416   7.4496126  66.4767838  58.6235809   6.8493109
   0.3929520   9.0747242  86.2149124   1.1998200   8.9463911  85.7161942
  -0.3053057   8.8282824  85.6083374  46.4631691  11.9136143  83.8526077
  47.1287575  12.5345116  84.1487656  46.7144318  11.7040987  82.9530487
  22.1991386  50.7880630   2.4545107  21.3022594  50.9789696   2.1799288
  22.3591595  51.3874168   3.1834812   2.9884930  25.6436253  46.0756798
   2.6214764  25.5847645  46.9577599   3.5742335  24.8894939  46.0091629
  34.4682274  58.2224655  80.0070648  35.2742920  58.2271271  79.4908600
  34.1118507  59.1046982  79.9026718  45.7448997  19.7285690  78.2652512
  45.0583954  19.0908661  78.4609070  45.8787575  19.6540890  77.3203888
  63.7674942  11.3700619  85.1726990  63.5573425  11.7144175  86.0407333
  64.6359482  11.7228432  84.9788818  71.4626236   9.0122709  44.9341965
  71.9815674   8.2892790  44.5817680  70.5685120   8.8278494  44.6464691
  16.7489738  51.6437340  45.6201591  17.5861073  52.0451088  45.3870544
  16.1128426  52.0625954  45.0403938  50.1088371  70.3414459  52.2820320
  50.7323227  70.0152740  52.9309616  49.3963699  70.7147827  52.8009186
  13.7075281  28.3323288  34.1885071  12.9514885  28.2762241  34.7728767
  14.2420349  27.5711441  34.4146347  49.7776337  44.7878647   3.1676128
  49.3683167  45.4646263   3.7067657  50.6834984  45.0793343   3.0642474
  29.5101013  69.6270447  38.4245911  29.4394760  70.1462097  37.6235161
  29.9776134  70.1946182  39.0373955  64.8530350  19.0339050  14.2645235
  63.9261169  18.9285488  14.0501575  64.8783112  19.7872849  14.8544493
  72.9939728  16.6594734  79.3207474  73.0462799  17.0082436  80.2106094
  72.4751968  17.3049107  78.8406296  37.7114525  65.6801453  65.9261398
  36.9623718  65.1799622  65.6022110  38.4757347  65.1869431  65.6280594
  65.2825775  46.7998314  72.1369781  64.6057205  47.4529076  72.3147049
  64.7996979  46.0305099  71.8349762  56.2462807  22.6071873  66.6793518
  56.8041878  22.3522358  65.9445267  55.3622284  22.6279144  66.3129425
  36.0974922  34.3529816   7.9776750  36.6453514  35.1360130   8.0319338
  36.1477585  33.9645042   8.8510551  86.0117416  50.7580338  24.6374474
  85.7577438  49.9021263  24.2922859  86.8429260  50.9536629  24.2049026
  22.6529751  60.8873940  40.8369217  23.6082916  60.8366127  40.8049240
  22.3607235  59.9849815  40.7085953   7.9487329  20.0465965   1.1589469
   7.9182553  19.8122158   0.2313860   8.7208967  20.6065483   1.2392496
  79.0021744  25.4078770  12.0208893  79.9127884  25.2231369  12.2508497
  78.8425369  26.2875671  12.3627834  84.6052322  38.3195534   0.7469041
  84.3692780  38.8664932   1.4961783  83.7860489  38.2077942   0.2645339
  10.1163502  41.3158989  59.0121384   9.3491611  41.3471527  58.4405823
  10.8542595  41.1888809  58.4158249  24.3184071  42.4276581  28.9912643
  24.9544125  43.1089478  28.7731552  23.5406532  42.9080620  29.2750645
  75.5123062  46.6793823  71.1933594  76.2718964  47.2490807  71.0720901
  75.2851562  46.7766724  72.1181107  78.8273087   3.4573040  15.2188244
  79.6072083   2.9054816  15.2778606  79.0305634   4.2182217  15.7628145
  66.6285019  58.7338448  75.8804245  66.7300873  58.1845245  75.1031494
  67.1499939  59.5141106  75.6921005  17.7086372  40.3840675  17.3934116
  18.1856270  39.7362061  16.8747692  18.2417774  40.5009727  18.1797485
   9.7765484  61.0709763  70.1090775  10.3814478  61.3279037  69.4131470
  10.3381968  60.7005463  70.7899323  44.6469231  25.2982826   1.1114690
  43.8291855  24.8758965   1.3743931  45.1426353  25.3880062   1.9253813
  58.0241241  48.8505096  61.8005295  58.1635284  48.6371994  60.8778725
  58.6575508  49.5442085  61.9843369  61.1396904  49.5008316  13.5410223
  61.5654678  48.9074554  12.9222727  61.8627548  49.9556046  13.9729805
  37.6711388  48.3212776  70.3558350  37.1728859  48.8181152  69.7068939
  38.4975662  48.7970505  70.4388504  13.6845551  18.0938492  55.6354103
  12.8227978  18.4234619  55.8902855  14.2114964  18.1601887  56.4317551
  49.2290344  65.5984344  75.3377228  48.5514717  65.8435287  74.7075882
  49.9649048  65.3096466  74.7979736  56.8475494   2.1163352  84.4523697
  56.9068069   1.4499768  85.1369781  57.3631744   2.8500683  84.7870407
  27.5461006   9.5495081  16.0475788  28.0341129   9.8322182  15.2741747
  27.3890438  10.3554630  16.5395145   8.5660925  25.0307331  25.0413132
   8.6086559  24.1703587  25.4586582   7.7073956  25.3743362  25.2879086
  59.2871208  60.9451103  45.0903358  58.5741005  60.5396614  45.5837402
  59.3662834  61.8236465  45.4620094  12.9427814  40.9176559  67.3435593
  12.4252520  41.4471169  67.9502487  13.5416765  40.4260445  67.9055862
  76.6960297  42.3450279  25.0420456  76.4034653  42.9595871  24.3690243
  76.9238815  42.8984947  25.7890320  73.9245529   7.6741018   0.3496680
  73.2563171   8.3529949   0.4434643  73.5171204   6.8857880   0.7085482
  56.4527245   2.6832004  23.8047447  57.0702171   3.4132512  23.8490143
  56.2611046   2.4757817  24.7193432  22.5294018  38.8642464  62.2958336
  23.0030193  39.0062561  61.4762306  23.1067162  38.3013115  62.8116264
  41.8589058  24.0589905  81.6508865  41.4505386  24.0049324  82.5149155
  42.7672844  24.3018246  81.8300705   4.0406127  69.1312561  69.4991302
   3.2332516  69.6422729  69.4419937   3.8015165  68.3628082  70.0173492
  66.5322876  13.4353514  54.9050179  67.4578857  13.6040487  55.0812111
  66.3226700  14.0019341  54.1625366   4.4444156  29.4965324  77.2397537
   4.4590135  29.7839470  76.3268356   4.2577710  28.5588856  77.1926956
  23.7451744  68.4687729  67.5417023  23.9030991  68.0726700  68.3986664
  24.5359802  68.2744370  67.0386200  48.8819656   2.8011038  30.5433598
  48.2309074   2.2427840  30.9683723  49.0190086   3.5208335  31.1593475
   7.5674348  60.7605591  22.9939861   7.0923800  61.3375816  23.5919838
   8.4631987  61.0979462  22.9966526  32.7474213  62.2407341  69.7232742
  33.4690895  62.1050339  70.3372879  32.7741776  63.1768646  69.5253372
   1.1775626  61.5915070  74.6353683   1.7024417  62.2039261  75.1508026
   0.4287647  62.1086807  74.3386078  77.5926819  25.9577103  63.1915016
  76.9048615  25.2936420  63.1450882  77.8177719  26.1336594  62.2779350
  68.5359802   8.3687515  15.9666405  67.7626266   8.9293575  15.9043112
  68.5117264   7.8378391  15.1705408  69.5885010  64.3070297  76.9119034
  69.3978729  63.5372810  76.3758240  68.7291641  64.6243286  77.1895447
  27.1586418  64.8312302   6.8998742  26.9782066  65.0559387   5.9870868
  26.3240414  64.9652328   7.3490071  53.5564651  42.4828796  16.9213181
  54.2956924  43.0697632  17.0805244  53.2759171  42.2087555  17.7944603
  71.3880386  68.5002670  15.0493050  72.0605469  69.0437393  14.6386890
  70.8330231  69.1214523  15.5208073   7.7387829  54.5454712  72.1525269
   8.3421955  54.6339493  72.8902893   7.2636051  55.3761139  72.1308060
  13.2763624  20.8074970  75.3286743  12.7228546  20.1935825  75.8113403
  12.9440136  21.6716309  75.5716705  76.7924194  29.7724857  57.1674194
  77.5597153  29.6251698  57.7203979  77.1349640  29.7582035  56.2737236
  19.2551022   7.4693298  87.9921341  18.4393654   7.3372731  88.4752197
  19.7807846   6.6951852  88.1936111  62.0618019  27.3732147  13.7523842
  63.0005722  27.2015686  13.6783476  61.9393768  27.6472359  14.6613150
  65.5002975  22.8599339   0.9362454  65.3165436  22.1310863   0.3435824
  64.6841583  23.3594360   0.9618292   7.4804401  37.5361557  10.3377352
   7.8358755  38.3337860  10.7297592   7.9305639  37.4617195   9.4962606
  46.8969574   8.7376089  87.6394577  47.4273453   8.5677214  86.8609543
  46.8954697   9.6909885  87.7248840  16.8006191  24.7295399   2.7519555
  16.0364361  24.1620159   2.8528087  16.5581379  25.5397015   3.2003682
  17.3004379  24.2115459  30.2716427  16.7690086  23.4760284  30.5763206
  16.6677418  24.9086266  30.0984154  86.2522812   8.1680088  55.2908516
  86.6407394   8.9864569  54.9818611  86.0373764   7.6879606  54.4911003
  13.7589426  19.1702328  72.2957382  14.2338753  19.9558430  72.0246582
  14.3990250  18.6641083  72.7961044  59.3798180  71.7175522  76.1235352
  58.8068733  71.3671036  76.8055573  58.9758720  71.4352112  75.3029633
  73.0256805  50.9434052  50.4775772  72.5981903  50.0988388  50.3354988
  73.3261948  51.2089615  49.6084366  58.1981468  45.9168510  34.6166000
  58.3464470  45.6406975  33.7121811  58.9950752  46.3897629  34.8563690
  71.9953461  56.3708916  19.3604431  72.9342041  56.5571632  19.3517952
  71.9002228  55.6483612  19.9810314  86.0876007  30.5296669  21.7266750
  85.8832550  29.9677219  20.9792175  86.8890915  30.9862652  21.4710007
  12.2887812  48.6401215  71.0635681  12.1604738  47.7547302  70.7232056
  11.4648972  48.8492584  71.5036926  45.9796600  41.0853577  32.5293579
  45.6342163  40.4569435  31.8953247  45.3617287  41.0530243  33.2596626
  66.2567368  14.9558010  12.9874115  66.7078171  14.1130056  12.9378376
  65.4013977  14.7479153  13.3634520  78.3478546  70.4402466  38.4211617
  78.3724823  71.0617752  39.1487045  79.2501297  70.4077988  38.1032219
  54.3886948  48.5559235  84.4375610  54.7305946  49.3919678  84.7543793
  54.7336006  47.9078827  85.0518265  12.8462372  35.0774727   5.1268744
  13.3484583  34.2735367   5.2598848  12.2186718  34.8567390   4.4386377
  26.2712555  47.7332268  17.4152145  25.3963013  47.9978523  17.1312065
  26.7832279  48.5418282  17.3986168  11.0691814  37.5140953  27.3506489
  11.7329473  36.9092216  27.0193291  10.2564354  37.2305679  26.9319744
  39.8369789  54.8954620   8.6452589  40.4467506  54.4525719   8.0551233
  40.2985306  55.6895752   8.9146795  45.5573349  36.0023918  11.3178473
  45.6430550  35.5790329  10.4636517  45.6472282  36.9370651  11.1320152
  72.4199982   6.7416935  23.1900616  72.2509842   6.3420415  22.3368645
  72.9002151   7.5445724  22.9875565  16.9456520  54.1995163  88.8814697
  17.8638191  54.4151878  88.7181168  16.4913616  54.4648628  88.0818176
  45.9784088  41.9967804  61.6064453  46.0716515  42.3694038  60.7296982
  46.6877556  41.3573952  61.6716309  10.4775372  34.3785057  18.3017979
   9.7618523  33.8542099  17.9424362  10.0532465  35.1732025  18.6253242
   9.5173130  70.8176804   5.8623538   8.9348536  71.5761871   5.9029012
  10.3116522  71.1478500   5.4425349   9.9177580  30.9167538  61.2385826
   9.5963449  31.5692196  61.8608475   9.7285166  30.0756054  61.6543808
  73.0631485   8.5223064  28.2100658  72.4135590   8.8409243  28.8367634
  72.5529938   8.2870789  27.4350510   7.4696608   8.4516678  13.9878120
   7.4427395   8.7074909  13.0658236   6.5507517   8.3450499  14.2337189
  49.2725372  64.8385315   2.7358923  49.1781120  65.7780380   2.5789554
  49.9671249  64.7737961   3.3913224  75.2517014  36.7286377  36.2304535
  75.8196182  37.3374405  36.7027473  74.3941040  37.1537781  36.2282448
  62.0912857  23.7696419  80.4134293  62.0969162  24.5270939  80.9986343
  62.7028694  24.0022011  79.7147751  21.0247593  47.2128906  51.0745735
  20.2820415  47.6516228  51.4894409  20.8767929  46.2820396  51.2414665
  72.5279922  34.3715363  31.0229664  72.5124283  34.0097008  31.9090061
  71.7091064  34.8617859  30.9500408  43.1173172  49.1116066  54.2565269
  42.4780273  49.5844803  53.7236748  43.1684189  48.2439690  53.8554993
  52.0080452  18.7006969   0.9736344  51.3917274  18.3662739   0.3220602
  51.4566269  19.1367931   1.6232414  66.4358215  38.0267105  40.2480011
  67.2641068  37.8556252  39.7997780  66.0972443  38.8191795  39.8313522
   1.2848983  66.6046982  83.0393906   0.3608040  66.5627975  83.2854080
   1.4188390  65.8394012  82.4802780  63.6871643  28.4719753  39.6074181
  63.1546936  28.5848560  40.3947945  64.5895996  28.5617771  39.9136505
   6.4448652   2.5555904   8.3474989   5.6820841   2.0585599   8.0519352
   6.9483533   1.9325634   8.8714914  28.9417801   6.9641533  74.9264145
  28.6102772   7.8422804  75.1141129  28.7476215   6.8279972  73.9990540
  60.1645622  25.3866081  53.5730820  60.7571602  26.0924301  53.8316879
  59.2922707  25.7134647  53.7933159  63.5329323  60.5761108  14.7338305
  64.3277359  61.1085167  14.7012196  63.7335243  59.8128662  14.1921167
   6.8807397  71.0513153  67.5979156   6.7479711  70.9991074  68.5444183
   6.5122776  70.2354584  67.2590179  61.2837143  31.4212437  55.8103523
  61.3772812  32.1455345  56.4291306  61.0388451  30.6721859  56.3536606
  21.3307915  24.7101421  14.4104509  21.7286816  24.8713284  15.2659826
  21.0916424  23.7834702  14.4282894  76.1343231  59.1395454  57.4557228
  76.9388504  58.7402496  57.7866707  76.3293076  60.0759468  57.4187622
  34.7888031  19.5515518  12.2975531  35.1368942  19.4345779  13.1815100
  34.1033173  20.2124100  12.3955822  48.3227043  61.8787384  42.6473541
  48.1024437  62.1294785  43.5444908  48.2105560  60.9282913  42.6299095
  82.6915054  29.0447731  32.8435287  82.4481049  28.1612911  32.5670319
  82.8247452  28.9717922  33.7885971  35.9788742  35.4000130  71.1703262
  36.2209854  36.0958176  71.7814407  36.8097153  34.9850845  70.9384384
  63.1552887  68.0246353  51.4990234  62.9159317  68.9506683  51.4616203
  62.3847694  67.5927963  51.8678703  46.4400864  43.0537796  46.1723099
  45.7847137  42.7599411  45.5395546  47.1037941  42.3640709  46.1674805
  85.4680710  22.2437706  75.3060074  85.9855194  21.4571400  75.1336899
  85.1491623  22.1293316  76.2012329  43.3530617   4.9784198   0.1048185
  42.7171478   4.3485441   0.4440826  44.1743393   4.7468605   0.5385440
  37.5925713  10.5655432  10.2902660  37.0809097  10.2939138  11.0522699
  38.4850807  10.2812729  10.4873629  46.8805084   8.3416481  52.0520325
  47.7762756   8.2302399  51.7335701  46.3306580   8.0174818  51.3387222
  41.1716576  60.1172943  53.2150841  40.7857285  59.3747292  53.6797180
  41.6918411  59.7190247  52.5172157  76.8922424  68.7099380  57.7276230
  75.9617081  68.6940308  57.9514236  77.2422104  69.4579926  58.2115288
  83.4705048  28.8393478  73.9271545  83.6149750  27.9956722  73.4987030
  84.0274963  29.4510059  73.4456329  39.5705872  64.9758987  52.6878395
  39.8007698  64.0978088  52.3841782  40.2010384  65.1615982  53.3837433
  72.1705551  29.7730808  53.6494370  72.8596115  30.3121014  53.2609901
  72.4711761  29.6073818  54.5429726  47.6056137  22.8107300  30.3862038
  47.9184990  22.2003860  29.7185116  48.1020699  22.5814266  31.1718159
  46.6206627  39.9305916  87.6635971  47.4284172  39.7489243  88.1439667
  46.7152672  40.8367081  87.3699341  22.7963467  45.9075279  30.8229256
  22.8386879  45.6715698  31.7496204  22.6228466  45.0807076  30.3729267
  86.2525024  11.2896576  83.8056564  86.9911423  11.6684971  84.2822266
  85.4895859  11.7729387  84.1228790  73.7359238   4.9746113  41.3605080
  74.4556427   5.5862250  41.2050476  73.4572296   4.7052526  40.4852905
   5.5426984  13.8542585  67.5835800   5.1056638  14.2004919  68.3616257
   6.4763908  13.9220257  67.7832184  24.6601772  58.7899818   8.4717178
  25.5978527  58.6014595   8.5098686  24.2406807  57.9759979   8.7504320
  25.8404694  43.1258202  31.6816349  25.7569275  42.4119797  31.0494289
  25.3175621  42.8435745  32.4320602  30.3609848  63.3709106  83.5669785
  31.2533531  63.7045212  83.6598053  30.0913277  63.6485863  82.6915283
  49.2693901  16.7593307  25.1811256  48.5836716  16.1380005  24.9362335
  48.8650665  17.3104172  25.8512440  73.1794434  45.7899742  25.7427750
  73.4899521  45.0040398  25.2931995  73.9297638  46.0820045  26.2604313
  48.7847328  19.4683743  72.9534607  48.1090240  20.0837955  72.6690292
  48.3188896  18.6413078  73.0766678  64.3041306  58.4552879   1.1260569
  65.2178268  58.1752319   1.0716588  63.8419418  57.6967354   1.4827327
  11.2593622   9.0675955  84.8185272  11.4533033   9.3217955  83.9163055
  10.4122381   9.4725370  85.0046310  13.3739471  62.0651169  17.9417877
  13.7387743  62.2786522  18.8005886  14.0492506  61.5337410  17.5200806
  56.7713890  11.1494503  47.5860672  56.6627960  10.1997099  47.5367432
  57.5087166  11.3367109  47.0051079  75.7214355  30.1495323  43.9157143
  75.2487564  30.4869480  43.1548233  76.6376801  30.3671379  43.7443314
  73.5084991  47.9990425  54.3956718  74.0742111  48.2104607  55.1383018
  74.1021271  47.9602623  53.6457863  64.2908783  40.6446152  31.9669437
  63.7978592  40.3866310  31.1880894  65.1917801  40.7423592  31.6586494
  58.3879662  53.3500252  14.2860098  57.9841385  52.4884911  14.1815271
  59.1173210  53.3494377  13.6661148  12.3162889  38.5641747  41.2271042
  12.9236679  39.2742424  41.4347763  12.0823069  38.1926842  42.0776787
  22.6151543  20.7760162  82.8186722  22.3054695  19.9286556  82.4988174
  22.4170113  21.3869095  82.1089020  73.3937683  62.3409309  78.5806885
  73.8400803  63.0793381  78.1662064  74.0521698  61.9578552  79.1603317
  48.7112694  28.3028584   4.2697396  49.4154587  28.1309662   4.8948836
  49.0752144  28.0461578   3.4224613  82.5671997  52.5898323   0.7834056
  82.8931961  53.4816933   0.6628147  83.3171005  52.1053429   1.1285845
  27.2956181  43.5462723   6.4223042  28.0180569  42.9407616   6.5886474
  26.5201607  43.0890846   6.7476907   3.1885390  21.1278667  80.7801971
   3.3532763  22.0478497  80.5734940   2.6439643  21.1529560  81.5669861
  64.1401672   1.8276812  36.0181770  64.0911179   0.9064523  36.2734489
  63.3893890   2.2359796  36.4492798  76.6153564  10.4699926  30.8034210
  77.2470322  11.1066380  31.1379375  75.9757233  10.3737869  31.5090027
  76.8048477   5.3072658  23.1191311  77.3904877   5.9594455  23.5037365
  76.0668640   5.2600083  23.7268982  37.5418777  11.8037643   6.9045696
  38.1488533  11.0817118   7.0671997  38.0879364  12.5889826   6.9430618
  84.3987579  30.2456570  55.7092819  83.7949829  30.2484570  56.4520302
  84.6476974  31.1633797  55.5995178  77.2183762  45.3050385  35.2470016
  77.6294174  46.0303612  35.7173042  76.8163910  44.7719955  35.9329376
  23.9586296  23.5378952  22.3118610  24.1120186  23.3998890  23.2465591
  23.0194263  23.7105732  22.2462082  58.3083916  20.8708191  79.9288864
  58.7279892  20.6508369  80.7606125  57.5187111  21.3507195  80.1785507
  47.7394333  41.6412239  36.0756226  47.8976669  41.5918579  37.0183601
  48.3535271  41.0124664  35.6964378  30.8119678  11.9358349  34.1226540
  31.3338737  11.5534916  33.4172058  30.0628586  11.3468018  34.2126808
  52.6143150  20.9015846  51.4905243  53.5290260  21.1719913  51.4104424
  52.1537933  21.4149933  50.8267746  41.5518265   3.2525151   2.0938706
  41.2481270   2.3483346   2.0135260  40.7784538   3.7407415   2.3762860
  35.6336517   5.0997210  12.3011093  35.7469597   4.6197991  11.4807024
  35.2890549   5.9519854  12.0344048  45.2350159  59.0597153  67.0838852
  45.3684959  58.8439827  66.1609116  46.0684242  58.8451462  67.5029602
  29.6949348  34.1126137  77.7508621  28.9295959  33.9508591  78.3025131
  29.5999069  35.0228348  77.4703293  75.1779175  19.1607494  80.3896866
  75.4031143  18.2514095  80.1931610  75.8155823  19.6772785  79.8969193
   3.1491961  47.7808685  73.3633728   3.3343394  47.1100616  72.7061310
   2.2837319  47.5518570  73.7021332   1.2387784  62.5092888  68.9034576
   2.1951752  62.5410652  68.9264145   0.9924431  63.1736145  68.2598572
  17.6258068   2.4700356  28.7961788  18.5327015   2.5021486  29.1007137
  17.2608070   1.6892902  29.2126446  26.2285824  14.2795916  78.5425644
  25.3321247  14.0086994  78.3445435  26.1976509  14.5595312  79.4573975
  36.4802475  68.3482208   3.3364761  36.0313263  69.1933060   3.3594179
  37.3623199  68.5539093   3.0268435  63.8533440  36.4058990  38.1565056
  64.4609451  36.4212112  37.4170341  63.5467682  37.3094139  38.2333374
  66.7034912  17.5132523  33.8867607  66.6405182  16.5582199  33.8733749
  66.0686493  17.7858810  34.5492439   8.7052116  70.7006683  28.2133904
   7.9637804  70.1363449  27.9941998   8.3483200  71.5882721  28.1813278
  72.4967499  29.7832527   7.3493900  72.7243958  30.7129135   7.3613024
  71.5521317  29.7659836   7.5031195  11.5955935  21.8707371  53.9271736
  12.0266800  21.5351849  54.7131767  11.0214119  22.5664368  54.2474060
  82.5428848   5.9183021  88.3512115  82.3580704   5.9598794  89.2894745
  83.2687836   5.2987518  88.2773056  48.0676117  29.3803043  18.7351551
  47.5127831  30.1077652  18.4537411  47.7970161  28.6457005  18.1843681
  50.7127838  44.6404877  13.0250111  49.8630981  45.0800591  13.0574217
  51.3125191  45.2460976  13.4606514  18.4185181  38.6414833  81.4975052
  19.2171879  38.8340378  81.0063019  18.6335487  37.8607216  82.0078049
  34.9471474  69.7341614  26.0056934  35.5921669  70.4149094  26.1974545
  34.1515579  70.2153168  25.7781696  28.8562965   7.7395511  17.9121914
  28.4389706   8.5814571  17.7298031  29.7929535   7.9358053  17.9319153
  60.9153023   7.2934775  88.3368759  60.9614029   7.9913936  88.9903412
  60.4842987   6.5689602  88.7902451  85.8474197  67.7589188  72.6569595
  86.1406708  67.8495865  71.7503128  85.1060791  67.1552505  72.6096725
  81.3931122  27.5096569  38.1050606  80.9672699  27.9026031  38.8669548
  81.5480499  26.6000919  38.3598557   9.8942270  67.0679932  86.4387436
   9.4978256  67.0701904  85.5674820   9.4072790  66.4002914  86.9217453
  72.3151321  25.0627232  77.9627609  72.2640762  24.1635494  77.6385574
  72.2747879  24.9765606  78.9152222  24.6801434  52.2672653   8.5642433
  25.3347130  52.0527191   9.2288780  23.9692039  52.6816216   9.0532293
  58.9955444  18.4747486  40.9106064  58.1422462  18.3789577  40.4875946
  59.1805611  17.6093216  41.2753448  27.4571209  60.3323479  34.7142029
  27.1510010  60.3860321  33.8088646  27.2172070  61.1755219  35.0985565
  71.5424118  28.0757484  81.3410568  71.6498184  28.4687347  80.4748840
  72.3837433  28.2182827  81.7747345   6.6745653  30.7564087  66.2666397
   7.4541388  30.3244610  66.6158142   6.5518041  31.5207253  66.8296509
  59.2142563  42.0827446   2.6853526  58.5737305  42.3262215   3.3536925
  58.8887901  42.4893799   1.8822641   1.0051000  59.1630020  45.7772713
   0.4264640  59.7474747  45.2875748   0.7020900  59.2294693  46.6828117
  18.9217529  65.1027679  85.9104919  19.0381184  65.4685822  85.0336380
  18.8819675  65.8669815  86.4854889  73.3462524   1.8018876  85.7118759
  72.9847870   1.2403127  85.0261612  72.5967331   2.0127301  86.2686462
  35.2562981  55.3352127   9.8379354  35.8671761  56.0709190   9.8803616
  35.6596756  54.7242165   9.2213326  73.4673691  26.0077915  21.5413284
  73.3086472  25.4206295  20.8022194  73.4206696  26.8861408  21.1637650
  54.9859276  31.0205441   1.2490048  55.0543823  31.8447971   1.7308285
  55.1953773  31.2537003   0.3445711  36.1899414  65.0105438  35.3309441
  35.8559570  65.3874207  34.5169144  35.5055885  64.4032593  35.6121979
  16.5361195  42.2612381  59.1727791  16.6433849  42.9406700  59.8384323
  16.0146561  42.6781502  58.4868546  69.6083069  59.1296883  36.9515266
  69.4355087  58.7877884  36.0743256  69.9292297  60.0191650  36.8029785
  15.0895758   8.6231489  21.0476093  15.7225237   8.3380184  21.7066307
  14.5472603   9.2691936  21.5001049  43.4866333   4.0375028  85.9424896
  43.9865074   4.3615150  85.1932373  44.1163940   4.0250149  86.6632309
  56.4093590  20.6145344  75.9674988  56.4052582  21.5410423  76.2079086
  56.7912788  20.1720829  76.7255249  19.8558960  36.9093704  55.7625542
  20.6429119  36.9074478  55.2177315  19.5967159  35.9892693  55.8122063
  64.2599487  22.5925694  40.2350540  63.8719749  23.1848068  39.5908775
  64.5408478  21.8335514  39.7239571  17.9437065  44.0107498  37.7078209
  18.5161705  43.2537804  37.5832596  18.2175026  44.6317520  37.0328217
  66.0802231  48.0457878  43.5136528  65.4451752  48.2625084  42.8310280
  66.6974945  47.4517517  43.0866547  47.2510071  34.7066269  34.2074318
  47.5154343  33.9738045  33.6512985  46.6289330  34.3249817  34.8267899
  14.8929319  34.6782150  63.4881248  15.4797363  33.9558067  63.2644882
  15.3932152  35.2104416  64.1067429  15.2001753  51.4478264  61.3927498
  15.7353821  51.5050583  62.1842766  15.7296257  50.9348526  60.7821999
  52.9113731  30.6807919  49.9797440  52.5751991  31.5727577  50.0670204
  52.1766930  30.1220589  50.2333183  32.3295212   5.9865227  84.7229004
  31.6280937   5.9150648  84.0755081  32.7724075   6.8070726  84.5066147
  64.7703094  55.8204193  20.8007183  64.5281525  56.6837082  21.1358604
  65.6385345  55.9469376  20.4180851   0.4696523  54.0043488  48.9154434
   1.0283546  53.4033699  48.4225922   1.0350994  54.3417549  49.6101799
  49.9077072  26.2581043  14.5955429  49.2881393  26.7590809  14.0650806
  50.7685738  26.5717869  14.3185062  67.4521790  67.4018021  46.0527611
  67.0677795  67.6801834  46.8840103  68.1535645  68.0325394  45.8900833
  22.7003937  53.3010254  10.2085238  22.8641262  52.6183624  10.8592110
  21.7919388  53.1632690   9.9402561  57.4718094  18.2881641  33.5628624
  57.1610985  18.1124725  34.4510193  58.1792336  18.9226646  33.6777344
  32.8235245  63.7456703   7.6861711  33.1486511  63.7434082   6.7858820
  31.8707504  63.7240639   7.5967979  13.4734898  62.8740387  88.9550247
  13.0632524  63.6675529  88.6111221  12.9445105  62.6425018  89.7184448
  75.9268494  61.7936401  38.2351875  76.4102173  61.0874176  38.6639481
  75.0154877  61.5011940  38.2462273  84.0691147  66.7728653  36.7960129
  84.9272156  66.8757095  36.3845215  84.1526947  67.2187576  37.6388817
  51.8319550   9.8566341  23.2766171  51.3909988  10.1183863  24.0848713
  51.3514595  10.3100710  22.5839787   1.7607191  49.9675636  75.4133072
   1.6845853  49.0152435  75.3539734   2.6931324  50.1244736  75.5623627
   5.9502463  10.0667038  70.3515778   6.3539767   9.1996269  70.3140030
   5.3065305  10.0008144  71.0569305  54.8385506  41.8618431  68.0231934
  55.6817017  42.2511978  67.7913971  54.2325401  42.6022377  68.0515747
  36.1598969   8.7016687  85.2685699  35.5846329   8.0790215  85.7131042
  36.2318230   9.4374828  85.8765488  70.0334015  41.3518982  83.8414001
  70.8573074  41.5204468  84.2985611  70.2877884  40.8520203  83.0657425
  19.0930672  51.0772781  66.7224045  19.0832882  50.2275429  66.2818527
  18.7561817  50.8960381  67.5998459   1.5610309  43.2102966   1.9974285
   1.3817898  42.5758781   2.6914165   0.6999386  43.5528450   1.7578218
  19.1433487  14.7208996  83.1037064  19.2053013  15.5037918  83.6509476
  18.2351971  14.7112465  82.8013916  67.5311737  22.0327206  32.7585564
  67.9845123  21.2208729  32.9857445  67.9182053  22.6923256  33.3341904
  83.4121552  47.3792572  47.0356255  84.1195831  46.7929573  47.3040047
  83.3692856  48.0365028  47.7301903  22.4590836  40.3408966  28.8041649
  21.7420387  40.3579674  29.4380322  22.8800316  41.1956863  28.8956470
  61.2084198  59.4245872  41.5072174  61.9926262  59.2381897  42.0234680
  61.5423851  59.6694145  40.6442223  59.0775795   9.1143026  13.3155766
  58.1436157   9.2095585  13.1288471  59.1945152   9.5293074  14.1701698
  47.7493668   7.1607747   4.8396378  47.6715813   6.7753730   3.9669142
  48.3595009   7.8895302   4.7261267  81.5178757  30.4093246  53.7509651
  81.6552811  29.6322727  54.2927589  81.2646942  30.0629826  52.8952942
  49.8493767  50.6302910  75.3812943  50.1781769  49.7900200  75.7007675
  50.6284256  51.1823502  75.3138885  79.2411423  37.5630226  26.7272949
  78.3646088  37.3957748  27.0736427  79.8321686  37.1861458  27.3791218
  54.5436859  41.9264984  57.4759293  53.8663254  41.9318619  58.1522331
  54.0593262  41.9701881  56.6514778  56.8796425  18.8129082   6.9454503
  57.3273239  18.7862148   7.7910876  57.1149940  17.9865093   6.5236602
  46.9000511  65.0449600  85.3807220  47.0557785  65.5480042  84.5813904
  46.1638756  64.4728317  85.1640625   8.5684700  39.7427177  46.5870018
   7.7469831  39.7798042  47.0769157   9.1472998  40.3533669  47.0433960
  42.4864731  23.5463085  62.3320236  42.9584427  23.7714958  63.1337509
  42.0252686  24.3499489  62.0918465  74.6123352  31.1778717  81.9414597
  75.3759384  31.6087875  82.3254547  74.6865845  31.3506260  81.0029068
  50.2765808  21.9994926  56.2573929  49.4048233  21.8226242  55.9038544
  50.8008232  22.2392368  55.4932404  28.9585724  56.4448738  22.6942654
  29.7263508  55.8965302  22.8557091  28.7059937  56.2439957  21.7931080
  64.5899963  55.3926430  64.8831787  64.4970856  56.0322876  64.1771698
  65.1359177  54.7009277  64.5093689  43.8986244  30.2948341   7.3177919
  43.7766304  29.5460377   7.9014468  44.3387146  30.9507446   7.8584714
  84.4454575   8.2627850  29.6879253  83.9404755   8.1585178  30.4943695
  84.6513824   9.1969337  29.6533661  16.8944893  12.6050463  13.8463011
  17.6270008  12.9268684  14.3717422  16.1161060  12.8385735  14.3520851
  49.1484985  10.4452305  56.2800140  49.3820686   9.5216761  56.3734245
  49.5926056  10.8794489  57.0083351  43.4624939  48.1043434  39.5450974
  44.0480843  47.7989693  40.2379608  43.6663551  49.0349464  39.4520683
  15.8048143  61.9211769  61.8835907  15.2210894  61.3900375  62.4252434
  16.1150475  62.6105957  62.4706917  42.3191566  66.9778824  37.0270691
  41.9759254  67.2849655  37.8661919  41.6240501  66.4235687  36.6723862
  18.0035458  30.3002644   2.0953460  18.2064152  30.3481045   3.0295768
  17.4474258  29.5258350   2.0103641   2.1095896  58.8423462  39.7503319
   2.8662550  59.3854675  39.9710312   1.3766950  59.2559395  40.2064438
  17.3242455  25.9646015  18.3178024  18.2748356  26.0766582  18.3252983
  17.0034733  26.6768303  17.7645683   0.4282663  14.3088465   7.5544453
  -0.4458053  14.2611961   7.1671987   1.0230103  14.3056374   6.8044448
  46.4062424  65.4960098  50.6165161  46.0986938  66.1965942  50.0413399
  45.8981361  65.6056137  51.4202881  58.7801743   9.7419434  30.7311916
  58.4573708  10.6209774  30.5328751  59.3520699   9.8621798  31.4892902
  33.8516159   3.7734530  70.9847031  33.2838974   4.5070748  70.7486343
  33.7080574   3.6518631  71.9232330  43.2334671  18.6456909  68.3328781
  42.4877014  18.7052193  67.7357864  43.4892693  17.7237129  68.3054276
  49.0608711  17.9336052  41.5309868  48.9922142  17.4679928  42.3644867
  48.5936089  18.7561588  41.6769333  30.8230305  14.0949316  12.3987713
  30.0976887  14.1743412  13.0182915  31.1473579  13.2029305  12.5227709
  10.5971088  46.7220840  59.6149940   9.7218399  46.4369774  59.3526001
  11.1910992  46.1890488  59.0865250  73.0163651  64.1896362  25.3719978
  72.7678757  64.0086212  24.4655094  72.2491913  63.9369850  25.8856544
  76.8258286  51.9328308  11.1535988  76.8090591  52.7446365  10.6467247
  76.1381073  52.0458832  11.8097181  18.9710636  27.2755966  78.7158051
  19.1761131  28.1132355  79.1311951  19.7472610  27.0703392  78.1946335
  81.4342957  56.9768906  39.5763817  80.4847870  57.0902252  39.5336761
  81.7858734  57.7080841  39.0684662  11.4208374  64.5744247  87.1099777
  11.9330406  65.3763657  87.0061646  10.5966311  64.8654785  87.5001144
   8.3131351  17.2688503   1.0412508   8.6081972  18.1741295   1.1394416
   8.1353245  16.9765911   1.9352306   6.0939565  56.9364243  66.6685104
   6.3384066  57.6114082  66.0353622   6.5440712  57.1897087  67.4744110
  54.3860931  69.0372314  29.1998768  54.1708832  69.6389694  29.9125004
  53.6039886  69.0300064  28.6480713  66.4571838  22.4413891  26.2966690
  65.9979019  22.1363678  27.0791378  66.4814758  21.6776295  25.7202034
  62.5536194   8.7588511  36.3246422  62.3826752   8.5250330  35.4123154
  62.4787445   7.9324265  36.8017654  72.6865387  56.1697807  65.5855026
  73.4970932  56.2234230  65.0791931  72.9696121  56.2302437  66.4978943
  24.3647900  50.9407196  69.4455872  25.2712383  51.0697212  69.7247696
  23.8506413  51.4843445  70.0425415  54.2404633  44.0479431  60.1550331
  55.1441002  44.2374191  59.9025078  54.3040276  43.7395020  61.0589447
  14.2115679  47.1518250  10.5497856  13.4930735  47.7788544  10.4671307
  14.3169441  47.0313454  11.4935083  72.5357895  31.5716057  49.4995956
  72.6858521  31.6935253  50.4370651  72.1453400  30.7003689  49.4308510
  44.8625908   2.5655370  21.0330696  44.7604752   2.3611772  20.1035309
  45.7824135   2.8143158  21.1239681  66.9332809  40.2574921  25.3630047
  67.7170334  40.6235580  24.9531822  66.7299347  40.8638725  26.0751724
  21.5474873  44.9832001  88.4121017  21.9592075  45.3876419  87.6484604
  21.4550838  44.0607185  88.1739349  67.9250641  37.7401428  57.4182968
  67.8984833  37.5129433  56.4888344  67.7546158  36.9145164  57.8716469
   0.6182005  58.1482544  42.6972389   0.9343756  57.2509537  42.8026772
   0.1966584  58.3532829  43.5318031  18.7340813  33.9274368  63.7203674
  19.1487083  34.0542984  64.5737228  18.1194706  34.6570435  63.6418724
  26.5119762  57.4596405  52.2948341  26.2046108  57.2302666  53.1718445
  25.8318958  57.1282463  51.7084045  77.5589600  15.0516958  16.0215302
  76.9865417  15.8105679  16.1341743  77.7066040  15.0011368  15.0771379
  25.1717281  47.3358574  24.9404945  25.4724865  48.1000061  25.4322739
  25.9575405  47.0079842  24.5031929  36.8604126   0.9001701  71.6732559
  37.7027473   1.3491669  71.7447052  37.0897598  -0.0199305  71.5426941
  61.8449364   9.9145660  87.1490784  61.4870033  10.1786652  86.3015137
  62.4466209   9.1993217  86.9426117  60.0089149  18.2082100   2.8807969
  59.4379234  18.8877506   3.2391601  60.7816353  18.2222939   3.4455457
  62.6952324  26.3845558  28.2842350  61.7552414  26.2066860  28.3160343
  62.9730873  26.3688431  29.2000847  73.1451569  25.0107327  41.5180740
  73.3730392  25.8968525  41.2368469  73.4726639  24.9526329  42.4156227
  31.9170322  20.2799358  73.4548264  30.9861412  20.2692318  73.6774445
  32.3366547  19.7809849  74.1556778  65.3568726   6.0831876  48.4447632
  66.2805557   5.9253492  48.2495117  65.0592957   5.2757330  48.8639297
  42.1432457  19.8992500   2.6079817  42.6595612  19.1083031   2.7630692
  41.3004303  19.7207260   3.0251412  52.8112297  22.6180096  17.7800179
  53.7553673  22.7137585  17.6548557  52.4946442  22.2607498  16.9503365
   5.9224200   9.4011860  27.6109447   6.1197815   8.4719458  27.7283859
   5.6314492   9.6951990  28.4741516  22.8667431  54.6480408  59.8037415
  23.7195053  54.2350197  59.9395561  22.4599552  54.6481514  60.6702003
  37.8919373  45.7577629  41.4431915  37.7425575  44.8191948  41.3291245
  38.5398788  45.8135490  42.1455345  55.2781868  10.7022820  38.5682640
  54.9212646   9.8441687  38.7973442  54.8302307  11.3122387  39.1543694
  71.1922836  28.2132168  42.3054657  71.3053131  28.1897697  41.3552513
  71.2468567  27.2966194  42.5758476  74.7689362  60.1813812  41.5867577
  74.5227356  61.0765495  41.3537483  75.2806778  60.2751541  42.3902206
  84.2552719  69.8404617   8.1943560  84.8167572  69.1583176   8.5626593
  84.8622208  70.4474792   7.7708383  16.8405170  67.6294403  77.5629730
  17.2367001  67.4292603  78.4110260  16.2265263  68.3402786  77.7472687
  56.9865074   8.7107830  80.3496552  56.0422211   8.8351479  80.2543259
  57.1680946   8.9439850  81.2600861  75.7275162  58.3298645  36.8803978
  74.8355942  58.6548920  36.7576752  76.2137909  58.6764717  36.1323128
  43.6022453  38.3917847  59.3866959  43.1317291  37.6737328  58.9633217
  44.2747154  37.9598503  59.9134293  52.3860321  27.1145687  -0.3553931
  52.5978737  26.4197483   0.2679671  52.3211670  27.9052486   0.1801902
  37.0689163  65.5227203   9.9298019  36.1271324  65.6365738  10.0575037
  37.4231606  65.4456787  10.8156967  24.0653172  37.5316124  85.8524017
  23.4236145  37.1495056  85.2537003  23.6140747  37.5679665  86.6957855
  11.1069555   2.1549160  22.6589146  10.5593405   2.3635390  23.4157677
  10.6371155   1.4522630  22.2097359  77.0908966  11.1590319  46.3635521
  76.4316101  10.6008415  45.9512405  77.7598495  10.5494404  46.6751976
  59.2672081  61.8471947  72.7480011  60.2148857  61.7167549  72.7815475
  59.0550728  62.2766876  73.5767136  84.4345551  42.6922913  12.0289717
  84.0853119  43.0061340  11.1948452  85.3140564  43.0670471  12.0765877
  53.6934853  14.8396778  29.9232101  52.9365845  15.2705870  29.5261574
  53.8452568  14.0695105  29.3754501  59.0374069  14.3443336  82.5017319
  58.9793205  14.9505434  81.7632370  58.6294823  14.8136034  83.2294769
   5.0668197  41.3335876  14.3388128   5.0974798  41.2541313  15.2922173
   5.4314923  40.5088120  14.0178862  18.3265190  26.9807243  74.9248886
  19.0347252  27.6246185  74.9161301  17.7069988  27.2971230  74.2673798
   5.4652367  68.1663437  50.3624763   4.6033416  68.1404343  49.9469070
   5.7323389  67.2488098  50.4173889   2.2716231  29.2891827  27.2966690
   2.4226863  29.6519375  28.1694927   1.3742967  29.5449047  27.0830269
  44.9717560  12.2591524   5.0488639  44.0416679  12.4809341   5.0043693
  45.3809319  13.0229721   5.4555440  50.3307495  18.6870346  45.3683739
  51.1676445  18.7062073  44.9041862  49.8240700  18.0094185  44.9207764
  39.0959587  38.1032410  39.2154579  38.9763107  38.3212318  38.2911224
  38.3310013  37.5723419  39.4373016  44.1118431  69.4456024  14.0632048
  44.3392220  68.5448456  13.8326464  43.1862869  69.5255203  13.8325672
  18.5323772  60.5131645  41.7287216  18.6711330  60.4805450  40.7821922
  19.2376938  59.9781609  42.0927696  52.4412308  16.5666981  21.1401100
  51.8394928  17.1747055  21.5696106  53.3066368  16.8183002  21.4626026
  85.1678238  62.5124435  65.8598099  84.5798264  62.0496292  66.4567184
  85.3027344  63.3663635  66.2707214  63.6592560  41.6479301  88.2548981
  64.0929489  40.7972031  88.1885223  62.7396202  41.4635048  88.0638733
   6.1671042  11.8931427  81.8043518   6.3952971  12.7686920  81.4919815
   6.5410008  11.8477974  82.6843414  68.1295166  22.8781776  52.2493629
  68.8867722  22.4371510  51.8642731  68.1288681  22.5977745  53.1645699
  39.7850800  51.1168556  44.4406624  39.6303406  50.1773415  44.5386238
  39.7510757  51.2679901  43.4960823  26.3755760  21.5449886  15.8226976
  26.8742409  21.9781189  16.5154915  27.0275726  21.3339386  15.1544237
  47.3895302  46.2775383  75.7094193  48.3007126  46.4024658  75.4441452
  46.9149628  46.9882698  75.2782745  83.5130768  43.8310814  79.0112534
  82.9689484  44.6138115  78.9247131  84.0963669  43.8598099  78.2528534
  12.0259237  56.8342018  13.7098360  11.9767551  57.3687325  12.9173145
  12.3189945  55.9764099  13.4023781  69.5607986  58.7046013   3.3787429
  69.8343353  59.5103264   3.8171649  68.6559677  58.8710251   3.1145165
  34.2227707   4.2799416   0.5065630  33.8250275   5.1092210   0.7717597
  33.7784271   4.0514598  -0.3098849  34.4515305  32.6864128  19.3596096
  33.9544182  31.8809834  19.5024242  35.0279388  32.7503204  20.1211205
  28.7206898  47.3147011   1.0271398  27.8122692  47.6138344   1.0661489
  29.2163410  48.0884552   0.7590627  62.3297119  63.4860420  83.0329819
  61.9171448  63.1555252  83.8309708  63.2162514  63.7253761  83.3031616
  53.1509552  54.9600067   5.1590385  52.2752266  54.6858368   5.4313664
  53.1477928  55.9113426   5.2647891  66.0308075  64.8289108  52.7945404
  65.6564789  64.2404556  53.4501572  66.0131607  65.6915283  53.2090302
  37.8933182  63.0257301  27.9364014  37.5621529  63.0130196  27.0384045
  37.4336739  63.7559128  28.3508797  26.4488144  48.0666733  47.5299377
  25.5362167  48.2722244  47.7327843  26.9413433  48.3962517  48.2816200
  32.7203140  66.8532791   5.9108024  33.6718712  66.7838058   5.9878860
  32.4817886  67.5564423   6.5148721  48.6024475  35.3492470  28.7947865
  49.1247978  34.9916725  28.0767879  48.0687599  36.0308685  28.3863735
  32.0493279  24.1156425  13.9112120  31.1168098  24.3046856  13.8067913
  32.3760490  24.8222141  14.4682035  25.6802502  36.9784813  78.3006134
  25.1837292  37.3794479  77.5872269  25.9064083  37.7096214  78.8755188
  40.1469536  43.6122322  20.7844944  40.0201988  44.1336403  19.9918404
  40.9210739  43.0803070  20.6000385  19.3519669  67.2294693  67.3418961
  20.0552082  66.8211060  66.8370056  19.4901600  66.9214554  68.2375870
  66.2292709  47.9092064  22.4304104  65.7427292  48.1036606  23.2314720
  66.5060806  48.7655716  22.1044579  17.0372505  45.0646515  52.1387672
  16.4342060  45.4617615  51.5103798  16.6706066  44.1965828  52.3068848
  70.8403473  19.6307220  39.5448380  71.4712296  19.6103134  38.8252563
  71.2553940  19.1224995  40.2417412  81.1070557  47.4043083  18.9320564
  81.5723267  47.4672890  18.0979176  80.9446335  48.3131027  19.1849251
  62.4283180  49.9981537  78.3463821  61.9065475  50.7880936  78.2050323
  62.1205788  49.3851891  77.6787033  71.3234863  55.8673058  73.1515808
  72.1542435  55.9404945  73.6213913  70.9074402  56.7217064  73.2661896
  58.0725937  51.8213730  43.8385544  58.8663635  51.8299255  44.3734207
  57.4031601  51.4442863  44.4094238   4.4563575  31.1554394  59.4501038
   4.5508795  30.3736820  58.9059029   5.3073516  31.2544212  59.8770027
  31.9356365  39.0569763  72.3496094  31.5934925  39.8978081  72.6532135
  32.3120766  38.6548347  73.1324310  19.0707893  25.5494766  86.4703674
  18.8349380  26.3409042  86.9543610  20.0127468  25.6316261  86.3213730
  84.7465668  11.4902992  68.3135376  85.1670227  12.2039518  67.8338013
  85.1177902  11.5424061  69.1942825  17.7025814   1.6314874  74.3286896
  17.2691078   1.2858152  73.5484085  18.5875053   1.8479996  74.0349884
  72.1148605   9.1289005  37.6214600  72.0228500   9.1649446  36.6693764
  71.2157593   9.0913343  37.9477234  75.0740356  37.8505287  15.2557516
  75.9002075  37.4265289  15.4879055  75.2639618  38.7874794  15.3035393
  81.3746872   7.8415370  24.2778168  82.3129807   7.8665423  24.4654846
  81.2530441   8.4840307  23.5787926  77.6117554  63.5095558  10.7844572
  77.8830566  62.8010521  10.2008038  77.5623932  63.1019402  11.6491232
  72.2333755  18.1231575  10.4868488  71.3213272  17.9849892  10.2312937
  72.4141693  17.4249687  11.1161947  36.7500916  50.3488235   2.9754090
  37.5246544  50.6595459   3.4441695  37.0712433  50.1301880   2.1005986
  19.4788265  43.1880531  20.0800686  18.7707081  43.8108635  20.2441006
  19.2823353  42.8238678  19.2169399  61.4307251  37.8866043  15.7651215
  62.1315346  37.4816818  16.2761326  61.3836136  37.3623276  14.9656553
  57.8634834  57.1183472  52.5143356  57.1674423  57.6506004  52.1290321
  58.1849747  57.6402435  53.2495232  54.6866798   5.0001431  62.8147125
  55.1790047   4.1798329  62.7840805  55.1335754   5.5229816  63.4804077
  66.1271744  48.1496811   5.0837684  66.3201218  47.3715057   4.5608482
  65.3429260  47.9161186   5.5803924  68.8712082   9.2583628   5.8724475
  68.4125824  10.0487318   5.5874691  69.7982101   9.4948177   5.8408823
  50.9435501  23.7491531  -0.0096563  50.7433929  22.8887520   0.3589596
  50.7153854  24.3664665   0.6853946  50.3822365  69.7289886  89.1601791
  50.4892464  69.0278778  88.5173569  51.1466293  69.6494675  89.7308044
  28.1934395   1.4513779  63.1461678  29.0000153   1.8985485  62.8898354
  27.6329460   2.1468778  63.4902000  24.1712742  45.2113991  12.3234615
  23.3405895  45.2716217  12.7952347  24.6547165  45.9937515  12.5888729
  65.2556610  13.9004726  65.4844818  65.5625992  13.9517670  66.3896790
  64.6395416  13.1679277  65.4816360  40.9380646  36.9619026  17.4780102
  41.1196022  37.3107643  18.3506889  40.5373650  37.6923180  17.0066662
  30.6761456  68.4411697  40.8262138  30.6464043  68.8994827  41.6660347
  31.3223820  67.7468872  40.9549980  24.3190193  70.2465897  60.7469673
  24.8853512  70.9847717  60.9718819  24.8326359  69.7315598  60.1247406
  17.4253864  54.7766342  36.7328186  16.5449486  54.9406357  36.3949356
  17.9832058  55.3913536  36.2561760   9.9182949  67.6397781  81.2029877
   9.2266521  68.0405807  81.7295074  10.0707073  66.7893982  81.6151123
  45.8055038  28.7609253  36.5837402  45.3187408  28.9001141  35.7713852
  46.6763191  29.1158257  36.4049721  46.0519753  17.9921265  10.7722788
  45.8325958  18.8514786  11.1323042  45.2535782  17.7079639  10.3272600
  18.9385147  11.3413696  11.2730684  18.9162865  12.2972879  11.2288055
  18.9531040  11.0595245  10.3584204  83.2196198  29.5855217  79.1272125
  83.0029755  29.7365379  78.2071609  83.1316376  28.6392860  79.2417984
  50.6447296   3.1720631  85.1242676  50.7115822   3.7422071  85.8902359
  50.6969795   2.2851779  85.4805527  55.6220207   4.9980669  13.8402052
  56.2361946   5.2527518  13.1516113  56.1584167   4.9425960  14.6310501
  57.5535049  21.6688118  18.8593025  58.2071724  21.2357521  18.3102932
  56.9922447  20.9580784  19.1692657  72.6197128  70.5548401  23.7050095
  72.9391174  69.7956238  24.1926575  72.5365677  71.2446976  24.3633595
  31.4662952  49.7129784  43.9365158  31.0068302  50.0477791  44.7066040
  31.1252804  50.2333717  43.2091026  19.5287914  53.9602509  42.1517372
  20.0272121  53.6429825  42.9048309  18.9442825  53.2357254  41.9289284
  56.3527184  14.5823250  14.5786772  55.5796776  14.2755737  15.0525379
  56.1333199  14.4565096  13.6554947  34.6595650  40.7960777  82.2066116
  34.3143311  41.3785133  81.5299911  35.1759338  40.1495171  81.7254105
  14.9292068  65.2975159  28.6973152  15.0083513  66.1276627  29.1672249
  15.7115116  65.2581863  28.1471481   4.3090830  31.6150894  78.8870926
   4.3981524  32.1623840  78.1068573   4.3160057  30.7182503  78.5526276
  83.9536591  37.6853905  72.8342743  84.6120911  37.5592651  72.1510544
  83.1676102  37.2607536  72.4906921  25.6704731  65.7602081  28.0480461
  24.8644810  66.2318039  27.8377991  26.2320786  65.8934708  27.2844563
   2.7819376  23.8699474  79.8142090   2.1683161  24.2312641  80.4538574
   3.5014658  24.5007496  79.7897186  58.9909821   2.8905494  87.3009109
  58.5988617   3.4784019  86.6552353  59.5551300   3.4561050  87.8282776
  36.3617859  40.3093338  10.9601803  36.4271622  40.7261963  11.8193569
  36.4944954  41.0234566  10.3367624  56.5519485  22.7141571  69.3694916
  57.3596764  22.2303238  69.5418701  56.3853188  22.5775585  68.4368591
  58.6295471  48.4696579  75.1214981  57.8972473  47.8698540  75.2636337
  58.4921989  49.1705856  75.7587280  15.2205868  38.0466347  39.9447250
  15.1150455  38.6433525  40.6856842  14.8424158  37.2207336  40.2465706
  43.2202377  60.6324310   2.8376384  42.4330711  60.9087219   2.3683114
  43.1239319  61.0119705   3.7110839  85.8267746  51.1892014  40.8451576
  85.1937943  51.2434692  41.5611343  86.6783524  51.1517448  41.2806435
  73.6244278  29.2758121  15.4835138  74.0925446  28.5491982  15.0722599
  73.4694061  28.9831562  16.3815975  76.7782211   3.3771653  44.3445740
  77.4454269   2.6981311  44.2446747  76.1306992   3.1780350  43.6683388
  55.8580132  58.2644272  26.9996033  55.7046242  57.8311615  27.8392372
  56.7725487  58.5443878  27.0380936  63.6515083   6.3049860  13.5003204
  63.1356468   5.8063674  14.1339607  63.5022888   7.2203040  13.7372952
  13.9269276  60.4641342  63.3211441  13.4907503  60.4133911  64.1716766
  14.1134634  59.5534477  63.0929260  47.7740059  25.9399395  56.9827042
  47.0599518  26.5773659  56.9896393  48.5589256  26.4613781  56.8146591
  69.6699371   8.2985983   2.8606770  69.3257446   7.7639513   3.5761592
  70.6000977   8.3992386   3.0629206   4.1764240  26.4376526  61.3726311
   3.4825690  26.2943115  60.7290077   4.9714971  26.5384808  60.8492546
  60.5198021  14.9244452  41.7245483  60.6817932  14.1598749  42.2771988
  61.3374138  15.0492420  41.2427063  81.9960938  67.7136765  26.8727474
  81.8978195  68.5848312  27.2570229  81.6931763  67.1151428  27.5555553
  14.9670238  16.2311249  13.0130835  14.8591576  15.7717562  13.8458967
  14.2034903  15.9731922  12.4966345  60.9773674  69.7150269   5.8413200
  60.2431564  70.2134933   5.4825821  61.2667999  69.1601639   5.1170354
  24.8009281  31.6183205  72.4102478  24.0946236  31.6232319  71.7642288
  24.4964561  32.2051315  73.1024704  41.9069252  44.8700066  61.5909309
  41.0998459  44.7166252  62.0821877  42.3144531  44.0064697  61.5241547
  78.6021652  35.2576256   0.7377236  78.3708954  35.8692017   0.0386391
  79.1540985  35.7684097   1.3299236   8.2684603  16.9489231  28.3126144
   7.8679595  17.1419525  27.4649296   7.7586408  16.2156124  28.6569557
  71.8080597  10.3998356  67.3583450  72.5348511  10.9210548  67.0172729
  71.6830215   9.7087460  66.7079620   0.3184521  69.6542511  27.3939571
   1.1306785  70.0642395  27.6913223   0.5111165  68.7166519  27.3894539
   9.5805216  55.1676064   3.2056961   9.7465057  55.2615051   4.1437073
   9.0615759  55.9384155   2.9759550  15.0902653  32.6655846  22.0043545
  15.0095797  33.5821342  21.7404213  16.0020962  32.5754585  22.2812557
  51.8769608  44.0841789  43.7229462  51.5726128  44.9488792  43.9984436
  52.5656853  44.2652397  43.0833321  33.0120659   4.1226487  23.7049427
  33.3556824   4.2872453  22.8268375  33.6331825   4.5559959  24.2903099
  51.3966141  33.9102287  63.8577461  51.8664322  34.0216599  63.0312576
  51.5800209  33.0074387  64.1176834  70.8633652  15.5433350   8.3016005
  71.4385834  15.0744915   7.6970029  71.0798950  16.4665165   8.1709137
  72.3367462  11.4852695  23.5677910  71.3860474  11.5416679  23.4717274
  72.6727600  11.5636454  22.6749401   9.7703066   1.5400472  24.9764919
   9.2273235   0.7529736  24.9327183   9.2100706   2.1946306  25.3934917
  79.3743210  28.2084064  34.5030289  79.3824005  27.7807274  33.6467247
  80.1597061  27.8812027  34.9415932  34.4340973  51.3426628  62.5773735
  33.5391884  51.6767044  62.5158653  34.5767174  50.8857918  61.7484207
  41.2532959  32.4902725  19.9002972  40.3171616  32.6551476  19.7876015
  41.2941856  31.7058773  20.4473667  71.5476837  62.4598083  63.4312096
  71.3484344  62.3650131  62.4997902  71.2505646  63.3427734  63.6510468
   3.6281340  36.5391312   9.8754797   3.7323306  37.4636765  10.1004105
   4.3768659  36.1068344  10.2862749  69.1299515  62.7335167  68.1036987
  69.1496811  61.8161049  67.8313065  68.2900772  62.8321991  68.5521545
  14.1279640  42.3806000  49.1151161  13.6346464  41.7319221  48.6130333
  13.5875425  42.5472717  49.8873825  47.2233467  53.7488213  30.8098164
  46.9528580  53.1210098  31.4798317  46.4321442  53.9044380  30.2940483
  69.1844864  13.4512234  15.8563738  69.4307632  13.4397278  14.9314699
  69.4382629  14.3224497  16.1609936  69.7493515  25.2181950  37.7493706
  70.0269928  25.3169289  38.6600838  68.8067169  25.3836250  37.7670708
  40.7437515  44.5023994  12.1977472  40.1093636  45.0637703  12.6434450
  40.2181091  43.7920151  11.8299351  27.6553860  38.7862434  83.2113266
  27.4381809  39.1200638  84.0817413  28.5485725  38.4533081  83.2985077
   1.6047679  26.3182869  68.6480331   1.5904697  26.6707363  67.7581940
   1.5147928  27.0868053  69.2115173  82.3180084  36.0917320  42.5774345
  81.4960785  36.2134323  42.1021919  82.9980469  36.3031998  41.9378624
  43.3337936   0.2540796  71.7011948  43.1569023  -0.5064334  72.2548752
  44.2884254   0.2894604  71.6407166  86.6407852  13.1487980  78.5564041
  87.0581741  12.6122618  79.2303085  85.9196167  12.6088505  78.2329865
  45.1348686  51.2985458  81.5212936  45.3825874  51.3311310  80.5972824
  45.8045998  50.7499428  81.9296112  47.5611191  69.6494675  56.3652954
  47.7243805  70.0638199  55.5180092  47.7765121  68.7272263  56.2263718
  54.5731735  58.8389511  57.4305573  54.6948204  59.3309479  58.2425728
  54.1828537  58.0103912  57.7087173  70.0121918  39.9099388  13.9912100
  69.0986557  40.1956367  13.9993086  70.2382202  39.8040352  14.9152908
  26.8700256  39.9211464  56.4028625  26.9576263  40.6870613  55.8354721
  26.9545784  39.1736641  55.8109589  63.4242096  13.8372660  24.7185612
  63.1869354  13.0081158  25.1338253  63.7400513  14.3837738  25.4381485
  78.1122818  39.5132179  34.3920441  78.9529343  39.9213486  34.1847496
  78.3191299  38.5863686  34.5120392  75.8550186   7.5118303  76.8887939
  74.9596405   7.6642022  77.1909790  75.8441696   7.7708273  75.9673691
  74.9127350  14.0826702  83.3470993  75.8531036  14.2610006  83.3355484
  74.5118256  14.9250298  83.5614243  44.0488930  34.0722084  23.3832817
  44.9831657  34.2696838  23.3171997  43.9993782  33.3581810  24.0188465
  50.3989258  42.4539795  35.0109329  51.1121101  41.8564682  34.7860184
  50.5671806  42.6956635  35.9217072   3.7628059   3.7468574  23.9689121
   4.5797601   4.2384782  23.8844948   3.2947679   3.9179533  23.1516628
  44.0377350   4.7119942  35.0152016  43.2990417   5.3150721  35.0980568
  43.6643066   3.8495185  35.1966438  75.5364532  11.0351477  35.1900940
  76.0679703  11.7935619  34.9481773  74.6804199  11.4028511  35.4097328
  21.7053795  54.3402672  35.6559639  20.8444366  54.5905647  35.3207626
  22.3257885  54.7882271  35.0809364  67.9583054  47.9976120  74.3714218
  68.8475342  48.1276054  74.7009811  68.0649414  47.4193687  73.6161118
  57.7141571  55.9003754  29.2029285  58.1375465  56.2944603  28.4402542
  56.8838959  56.3695831  29.2850666  28.1298752  69.7808456  24.8830318
  28.3457355  68.9154282  25.2304497  27.1795235  69.8463211  24.9767246
  76.8342285  40.3249359  43.6855431  76.7795868  40.7496910  42.8294868
  77.7500916  40.0574341  43.7621689  57.3651314  28.3277245  25.4801655
  58.0928001  28.9468002  25.5391045  57.6424904  27.5808735  26.0107479
   5.9574857  59.5739937  28.4176121   5.4497895  59.2386169  29.1565285
   6.0395818  58.8270187  27.8247185  47.6601105  17.2220783  13.0639687
  47.6496277  16.2896652  13.2801361  47.8473396  17.2483082  12.1256247
  73.6055603  22.7607803  11.3557854  73.6203308  23.7178345  11.3636713
  74.5247040  22.5077610  11.2697840  53.7997780  65.6028671  79.5666733
  53.6331024  66.1656418  80.3228073  53.0122108  65.0641479  79.4908295
  61.9674110  66.1587296  18.7297783  62.6035652  66.8352280  18.9619141
  62.5001450  65.3952789  18.5071163  10.4261932  48.9696960  64.4156570
  10.4757814  48.2914391  63.7420540  10.6060982  49.7852859  63.9480286
   4.0147743  27.5559807  21.0506344   4.9325118  27.8253326  21.0127010
   3.5310650  28.3034077  20.6990509  82.4372330  45.8337746  53.8462296
  81.7450714  45.5460243  54.4414940  82.6805115  46.7032089  54.1642456
   3.4827712  33.8570824   3.3212826   3.6237426  32.9128571   3.2519920
   2.5379174  33.9666786   3.2141778  78.1672974  15.0363092  21.5083179
  77.5028458  15.1339693  20.8262577  77.6844406  15.1347322  22.3289242
   3.4811208  11.3355074  87.6138000   3.8867106  12.0789013  88.0599976
   4.1451488  10.6467466  87.6439133  81.4237518  39.5363884  12.1991997
  82.1788254  39.4617844  12.7827492  81.4035721  40.4605141  11.9505787
  65.1569595  32.0766335  25.3140793  65.3473816  32.9759521  25.5809059
  65.7226562  31.5378246  25.8671627   2.7164059   5.2080960  33.9507217
   3.4945037   4.6664081  34.0825157   2.5276153   5.5707235  34.8162231
   8.9776011  49.1921577  55.7407837   8.2786407  48.5976067  55.4683990
   8.8155594  49.3415108  56.6722717   1.2934967   4.0475745   0.8286382
   0.7506524   3.9743965   0.0436561   1.1454642   4.9405951   1.1398172
   3.9338133  63.0748596  47.2543030   3.9815128  62.5228195  46.4737854
   3.0238476  63.3704071  47.2833900   1.8855629  36.1024590  21.6974792
   1.9208077  36.4099846  22.6032486   1.2843505  35.3579826  21.7205257
  49.6376572  54.7221107   4.2064910  50.1256294  54.0272903   4.6484632
  49.2168541  54.2854500   3.4658952  84.9510880  61.9232216  49.7757988
  85.7664032  61.6508064  50.1968536  85.1347885  62.8021774  49.4442596
  65.1880493   1.8715065  75.2401199  66.0523834   1.4612170  75.2114792
  64.9366455   1.9648038  74.3212509  26.2394810  68.5957489   5.4013987
  26.6036892  68.4935379   4.5221162  25.4911022  69.1809006   5.2841296
  78.3817291  54.6724625  41.0017815  78.9291763  54.3778229  40.2739639
  78.9352264  54.5674248  41.7756271  74.5366364  44.8545036  53.3577385
  73.8010941  44.4351578  52.9112396  75.0594788  45.2353783  52.6521873
  85.3854294  62.5294762  74.2862701  85.3523026  63.2161980  73.6202774
  85.3861542  61.7122841  73.7878494  11.7146635  58.4006500  30.7167835
  12.3656769  57.9593201  31.2623501  11.3546333  59.0855789  31.2802372
  30.2662392  52.1692314  37.6068459  31.1781559  52.0962181  37.8884659
  30.2837143  51.9418106  36.6772194  46.7464561  27.8675671   9.0158710
  45.9045601  28.3230038   9.0114307  46.6594467  27.2100697   9.7060575
  46.3447227  46.0465355  16.4550533  46.7910538  46.0787888  17.3012104
  46.0513153  45.1390724  16.3734646  24.5122280   6.6455693  26.9942589
  24.0940819   6.1984763  26.2583961  24.0044842   7.4492712  27.1060219
  70.4619522  55.5594368  60.9831657  69.9062729  55.3591347  60.2299538
  70.7031097  54.7034645  61.3372612  55.4723396  21.6847153  36.6590157
  55.2385979  21.2658882  37.4873772  55.9667244  21.0167389  36.1840172
  79.0361557   6.7846837  28.2974052  78.2770615   7.2838287  28.5988464
  79.7901077   7.3093557  28.5666790  75.9097595  21.0240154  12.2237158
  76.4093857  20.5595474  12.8951864  76.3347931  21.8791161  12.1575127
   4.8773417  41.7449455  77.5600510   5.2593427  41.1050720  76.9593277
   4.7551422  41.2626038  78.3777542  84.0037155  51.4360504  30.0513897
  83.3871155  52.0324020  29.6266537  84.3980103  50.9455986  29.3301296
  86.2932358  13.9481726   3.7317393  87.1259384  13.5195093   3.9294386
  86.3030167  14.0638065   2.7816000  15.2827806  41.7234573  76.5332031
  14.5370207  41.1893539  76.2596970  14.9824591  42.6261559  76.4275131
  27.6428089  67.0475998  41.3057480  27.6310825  66.5002441  42.0909233
  28.5393829  67.3794937  41.2585258  81.1040573   4.0487647  42.2637634
  81.8969040   4.4082074  42.6617966  80.3865356   4.4588580  42.7466850
  19.9301987   3.4066691  63.8755417  19.9517727   3.7089689  64.7834930
  20.0708065   4.1982956  63.3561287  76.7818909  65.6512680  49.6475639
  76.7301712  66.6069717  49.6612587  77.6853638  65.4567032  49.8967743
  82.9607468  59.3595390  63.8918800  83.2352829  58.5318756  63.4971199
  83.6834793  59.9612885  63.7136192  63.0983429  12.5934048  79.8076935
  63.9610443  13.0077810  79.7912064  62.9280739  12.4315557  80.7356186
  71.4073715  12.0317440  48.0369759  72.1503601  12.6074276  48.2180481
  70.7907257  12.5814476  47.5534401  32.8634415   2.7579346  32.8286209
  31.9597778   3.0734532  32.8201981  33.3923645   3.5422943  32.6828384
  52.6797104  37.5832863  46.6137123  53.1677971  37.0341759  47.2272949
  53.1680527  37.5178604  45.7930565  14.8925076  21.7079487  18.0053711
  14.9791632  20.9150887  17.4761314  14.8282051  21.3891487  18.9056301
   2.3496149   2.9283354  15.2404003   2.0347693   3.2313361  14.3887577
   2.2869422   3.6976578  15.8064804  16.5328808  61.3951149  72.6004868
  17.2773247  61.8664894  72.2265396  16.2374573  60.8171883  71.8969574
  35.1259689  68.4207382  87.3906860  35.6061859  69.1428070  87.7959518
  35.0578880  67.7610931  88.0809402  69.1590576  37.6496696  39.5575943
  69.9319611  38.2089348  39.4796791  69.4803543  36.8550682  39.9837494
  69.8405762  44.1844139  44.7145157  70.5356750  43.9850769  45.3416710
  69.8398743  43.4397774  44.1130600  21.2834053  25.5457993  42.7110481
  21.2632713  25.4238758  43.6602402  21.2908020  24.6571064  42.3555183
  38.3790550  29.9303017  14.1131058  38.3290176  30.8801575  14.2203569
  38.1108398  29.7771072  13.2071123  40.3668823  48.1007042  57.9477882
  41.1565742  48.4920959  57.5743790  39.6975441  48.7789345  57.8571167
  47.1583786  14.0541677  67.4957047  46.5231972  14.7071114  67.2016907
  47.7828751  13.9853821  66.7735519  34.4206085  33.2562790  71.0768433
  34.7834930  34.1412468  71.1140366  34.8775635  32.8405724  70.3456726
  40.2208710   3.4715354  82.2526627  40.7519188   3.1067832  81.5447235
  39.6344490   4.0905175  81.8176880  75.9924088  68.3852921  14.4463272
  76.5188370  67.9655380  13.7659483  76.5710983  69.0490417  14.8215351
  83.1776505   2.6652305  30.8074837  83.0347595   2.3203282  29.9260902
  82.7223816   2.0498822  31.3822021  50.0358658  61.6246185  24.3533058
  50.7695541  61.5544205  23.7425671  49.4620972  62.2842751  23.9635906
  28.9791451  64.7982330  89.1205215  28.0473137  64.7068863  89.3194504
  29.0339870  64.6826782  88.1719055  81.1865082  71.2939606  44.8006020
  81.9997864  71.5365829  44.3579521  80.7191849  70.7534561  44.1636581
  14.6372795  43.7826080  22.3850651  14.7104321  43.0172310  21.8149071
  13.8191099  43.6477470  22.8632298  58.8221054  37.0267296  63.3111610
  58.5295181  36.4714546  64.0338593  58.0412979  37.1478615  62.7708855
  43.6905289  43.9681702  33.6414452  43.1399345  44.3248940  34.3384590
  44.5722427  43.9586525  34.0138969  86.4334488  51.3632393  59.8036842
  86.0871048  50.4718018  59.8439445  85.7904892  51.8915863  60.2766342
  86.7124252  55.5999260  71.8748093  87.0517502  55.5076523  70.9845428
  85.8502121  56.0000992  71.7622223  18.2860661  34.6821899  44.1464996
  17.4029446  34.9061089  43.8529205  18.4474258  35.2662430  44.8874969
  26.3947659  23.2980824  76.2293854  25.6314468  22.7225380  76.1811829
  26.3098946  23.8727074  75.4685745  18.5786572   6.9015622  78.3615341
  17.6547852   7.1503687  78.3334732  18.6260452   6.2331562  79.0450668
  48.4891357  34.7693481  72.3403397  47.7316017  34.6459770  72.9123154
  48.7500496  35.6794395  72.4813766  62.3171806  24.1614780  57.2229767
  61.9604797  23.2779446  57.1315079  61.6562347  24.7288742  56.8261833
  27.2806435  57.1313629  86.3278961  27.4508839  57.8279610  86.9619293
  27.4107170  56.3214531  86.8212051   8.5675659  62.7687492   1.3565159
   8.6461849  61.8155746   1.3953325   7.7765741  62.9644852   1.8587624
  62.4866219  66.5391006  55.9621849  61.5451927  66.7109299  55.9417686
  62.5836411  65.8091049  56.5736771  70.7267990  29.6823254  77.0160446
  70.4957504  30.0320473  76.1554947  70.9333344  28.7620049  76.8529892
   1.1337843   2.7705295  18.5983295   1.8681237   2.9591234  19.1826324
   0.6610386   3.6002185  18.5323029   8.8821106  14.8021364   5.2512116
   8.4985285  14.4051437   4.4692311   9.6609440  14.2751427   5.4298944
  47.4464149  47.8194008  55.0391808  48.1438599  47.9613686  55.6792183
  46.9883156  47.0397682  55.3530998  65.3376923  35.1504974   4.8184719
  64.6120377  34.8567047   5.3692350  65.7842484  34.3441277   4.5604291
  65.3168716  50.7386208  16.9185009  64.8145294  50.4090500  17.6636639
  65.9627533  50.0541801  16.7435379  67.9970322  19.0430355  54.4883575
  68.2353210  18.9552670  55.4112625  68.4622421  18.3293343  54.0519600
   2.2115092  37.4630470  13.9750204   1.5504236  36.8052597  13.7593489
   3.0470803  37.0235672  13.8171835  61.3964958  60.4186363  77.8442917
  61.6725960  59.7875824  78.5089493  61.3551941  59.9105530  77.0341187
  85.8670959  49.3300323  55.6198997  86.3651123  49.6504669  54.8678818
  86.0284424  49.9765434  56.3070869  84.3003159  51.9966621  26.3318195
  84.8698349  51.6440887  25.6480274  84.3903961  51.3812714  27.0594273
  82.2376785  16.8776798  62.1398163  82.0845566  17.5398979  61.4658318
  81.6941223  16.1357918  61.8745232  59.9517326  30.5573730  20.8403187
  59.2450447  30.6984253  21.4703445  60.5202713  29.9109859  21.2588596
  34.1482162  38.6975288  20.8435249  33.8902702  39.5881538  20.6058731
  33.8688545  38.1612129  20.1015320  37.9975662  15.0047283  78.0518799
  37.7415810  15.9012423  78.2686005  38.1032219  15.0091410  77.1005402
  78.6559753  25.5114079  37.2724113  79.1439667  24.7829723  37.6564369
  78.6834183  26.1965981  37.9402390  83.6284103  36.4812126  84.1849365
  83.3789062  35.5997543  83.9074326  84.5247498  36.3861694  84.5070801
  59.2242165  56.9326782  16.0553226  59.8574219  57.2170067  15.3962021
  59.1082878  57.6960411  16.6210728  67.3826523  38.0807686  67.6651154
  67.6104279  38.2666283  68.5760498  67.1438446  37.1538391  67.6622772
  66.0066757  28.9865017  68.8104935  66.3789825  29.3669052  69.6060562
  65.3981476  28.3186016  69.1264648  29.5507298  47.5344124  78.0079803
  29.2152462  47.1459427  77.2000351  30.2897091  48.0733795  77.7257538
  68.4902649   1.6645746  64.5524063  68.2549591   2.4313297  65.0748520
  67.7765656   1.5770494  63.9205856  33.4544106  49.5225105  24.1115875
  32.6576691  49.0078392  24.2402210  33.9298248  49.0595703  23.4217300
  39.0545731  62.1337509  43.8641014  38.6712723  61.6598091  43.1260719
  39.9990997  62.0809669  43.7180939  56.3395882  38.7932854  52.9204636
  56.0063744  37.9008560  52.8268127  56.2278099  39.1829147  52.0533257
  46.4324913  64.6102905  79.1632156  47.3517380  64.5782089  78.8982925
  46.3449478  65.4448318  79.6237717  52.7624130  65.9256668  68.1374130
  51.9406319  65.7765350  68.6050339  53.4361687  65.8767166  68.8155670
  38.6474991  39.3788567  79.9220047  39.3096046  39.2756653  79.2384872
  39.0017509  38.9019928  80.6725616   7.1960797  27.4658813   2.8648477
   7.9867783  26.9300137   2.9270828   6.7877660  27.3913994   3.7273810
  36.7493019  20.2500057  84.7683487  36.1557503  20.6769562  85.3861160
  37.5640793  20.1373615  85.2579193  70.6023102  60.5166779   5.5271039
  71.0788193  60.2125473   6.2995529  69.8223038  60.9447632   5.8800273
  60.1125412  21.0915489  53.9582481  60.2981911  20.2166214  53.6172676
  59.4605026  21.4499207  53.3560410  11.4594898  31.1492443   5.0696993
  11.1063385  30.2603912   5.0315695  11.9555006  31.2449799   4.2566557
  21.9758339  58.2552261  62.2368164  22.5514355  57.5985565  61.8447723
  22.0876465  59.0306740  61.6868935  85.2594147  16.8070812  76.2568588
  86.0200653  16.5483093  76.7771225  85.3729324  16.3506355  75.4231949
  66.6769257   7.0151801  45.1783333  67.2323532   6.4113073  45.6713562
  66.0723419   6.4480205  44.6997604  39.9196548   4.5260587  86.0430145
  39.1938934   4.0224876  85.6743469  40.5704498   3.8668504  86.2841415
  29.7147198  14.8023281  74.4634933  29.1628284  14.1978045  74.9596786
  30.5640984  14.3639793  74.4121246  18.1959038  55.7222939  58.3792725
  18.1029263  55.4358406  57.4706879  18.9165039  55.1949844  58.7241058
  46.0476761  53.4770470  27.6825638  46.5533104  54.2133713  27.3384838
  45.1487541  53.8031120  27.7256413  64.4415054  46.0230904  77.7132721
  63.6424637  45.6375465  78.0725937  64.5211029  45.6390038  76.8401260
  73.6009979  46.4212914  73.4497528  73.1808243  45.5615501  73.4728165
  73.9631424  46.5345459  74.3285294  10.0542355  62.9195976  46.4405823
  10.0476885  63.8122711  46.7860222   9.9602013  62.3629532  47.2135887
  37.1575890   3.4045978  57.6995163  37.8534698   2.8541329  57.3403931
  36.5747795   3.5680783  56.9580040  30.4391136  46.5886040  41.2761192
  31.2178078  46.4735451  41.8207588  29.8834839  47.1866760  41.7759323
  78.5864716  19.0998631  73.9420624  77.9632874  19.7474194  73.6126022
  79.2873230  19.0886517  73.2902145  68.5148087  28.6829090  67.8505325
  69.1679535  29.2958050  68.1881561  67.7419739  28.8324356  68.3951416
  20.3909664   5.6227083  24.7900181  19.6545887   6.1924863  25.0121288
  20.1582146   5.2512379  23.9390965   1.3781998  44.0827065  38.6355324
   2.0126359  44.7828674  38.7888184   1.6308203  43.7114258  37.7902107
  13.3918066  70.4813614  20.7108078  13.3029871  70.6806335  19.7788029
  12.4914103  70.3982468  21.0248299   5.6950860  51.0523796  23.7309895
   5.0563860  51.4374161  23.1309547   6.0317607  50.2876625  23.2639904
  19.6176262  51.1891098  84.6450653  20.2811775  51.5686607  84.0689850
  19.2256622  50.4854279  84.1279373  36.1105919   0.5512754  53.5109062
  36.3607521   0.4419246  54.4283447  36.9404449   0.5443332  53.0339050
  55.4162598  24.1522465  38.4057007  55.2915497  25.0997906  38.4589729
  54.6230011  23.8299446  37.9778099  45.1601257  35.1462326  26.8657665
  44.8271790  35.0596504  25.9725227  45.7411842  34.3940125  26.9787560
  75.3307648  27.8312473  80.1287460  75.6406937  27.2070961  80.7849503
  74.6348343  28.3176479  80.5707016  24.1583614  64.0363159  82.1118622
  24.7300701  64.1198883  81.3487091  24.6998749  64.3187943  82.8488770
  24.5225811  67.7093582  53.5069160  24.4734077  68.4657516  54.0914497
  25.2881851  67.8799973  52.9583092  44.8963432  29.7509861   0.4274860
  44.8750534  29.2734585   1.2567903  45.0801849  29.0804195  -0.2303684
  85.3006287  31.4593163  58.5133781  84.8584213  32.2834015  58.3094826
  86.1649323  31.7230148  58.8290977  26.2954292  64.9593353  39.7494545
  26.5253963  65.7554321  40.2285957  25.9216671  64.3797913  40.4132767
  30.2392101  10.1025076  78.2680969  30.1050320   9.1601715  78.1669464
  30.9792385  10.3019772  77.6946869  80.5516891  11.0040588  45.8072472
  81.1113663  11.4072170  45.1435738  80.5349350  11.6383886  46.5238914
  82.1339722   9.0413532   0.5804112  82.1707458   8.0861292   0.5311654
  81.2030716   9.2496109   0.5011142  17.2685966  67.7383804  22.8018970
  16.9964733  67.4318848  21.9368896  16.7604733  67.2071991  23.4149990
   4.8769145   2.7827129  51.7299080   4.6870322   3.6876800  51.4824982
   5.8224821   2.6949382  51.6097832  51.7592010  27.2172775   4.9813094
  52.5789032  27.6649208   4.7717042  52.0325584  26.3788681   5.3535671
  41.0995369  37.3689575  20.4941692  41.2810593  36.9204102  21.3200550
  41.8015633  38.0145454  20.4129028  57.0833817  70.8403778  77.3923569
  56.3227234  71.2434845  77.8108521  56.7315598  70.4253845  76.6048050
  51.5953217  31.9586582  24.6300697  51.8539047  31.0898094  24.3227139
  51.9568748  32.5603371  23.9793072  49.5879478  24.2056885   2.7923174
  50.0656395  23.4656219   3.1669371  48.7971458  23.8161983   2.4192731
  69.6061935  13.9900284  38.6346245  69.4068909  13.3788977  37.9253807
  69.2991333  14.8378944  38.3135834  79.3376083  31.5026360  61.2580605
  80.1856689  31.3209095  61.6630249  78.7080841  31.0197563  61.7935638
  39.4929619  70.7837601  25.7604485  38.7776604  70.9059067  25.1362247
  39.9563560  70.0079193  25.4448948  46.6882820  36.7574234  31.9472485
  46.0675850  37.1341324  32.5709953  46.9848289  35.9481201  32.3635635
  11.4002256  24.9973469   0.9456555  10.8873653  24.5845146   0.2508347
  11.1760845  25.9262180   0.8891605  61.4158249  26.0141010   4.4780817
  62.0790520  25.6555977   3.8883047  61.4752922  25.4708195   5.2639198
  76.0597839  48.5414162  26.0652046  75.8193512  49.4667969  26.1109276
  75.6816788  48.2361755  25.2405224  23.1733589  38.5184517  21.8955631
  23.2444096  38.2801933  22.8199081  22.5585060  37.8819809  21.5307426
  34.2654533  62.7783813  35.4617577  33.8231125  63.1632462  36.2183609
  33.9619942  61.8707504  35.4430199  34.4070168  46.3012161   8.3018942
  34.9772415  46.7919273   7.7100530  33.8591118  45.7718239   7.7224331
  66.5993271  68.0136185   8.6012774  66.2095108  68.8757401   8.7462769
  67.1107483  67.8458099   9.3928108  25.8639050  42.9798889  63.6717834
  25.3189030  43.6377068  63.2399483  26.5646572  42.8004227  63.0449104
  66.6618423   7.6142936  26.5319023  67.5909882   7.8441815  26.5232220
  66.5888062   6.9376554  27.2049980  66.5399551  27.0937424   1.0407836
  67.3033447  27.6707668   1.0635051  66.9061508  26.2163239   0.9300210
  30.8482780  48.2661858  24.7090092  31.2140598  48.6011658  25.5276814
  30.7144604  47.3323097  24.8708763  27.2472820   6.2961802  13.0053158
  28.0710716   6.1187868  12.5512972  26.6570339   5.6028161  12.7102146
  64.5413513  51.5231438  87.2311172  65.3903427  51.9415779  87.0884476
  64.1258698  51.5242119  86.3687973  29.3554001  70.4176254  45.2291756
  28.7981300  70.0920868  45.9360771  29.6256142  71.2889175  45.5191154
  61.5222397  41.1156845  10.3529491  62.3065987  41.4945335   9.9561071
  60.9380341  40.9459572   9.6139431  48.6755714   0.6619245  47.4451065
  49.1898842   0.1529419  48.0717278  48.8598747   1.5741538  47.6689453
  30.2253323  10.6689205   0.7326357  30.3076363  11.6058207   0.9106126
  29.7664642  10.3194189   1.4965210  63.9388275  41.4300117  66.1707153
  64.6935959  40.9316597  65.8573456  64.2991028  42.0185890  66.8340454
  40.7172050  41.1431885  23.5628910  40.0902100  40.5437469  23.1581974
  41.4423294  41.1879501  22.9396553  11.6511288  64.6657333  55.7299690
  11.8645620  65.3646851  56.3481522  11.8571625  63.8582802  56.2009239
  66.1967239  14.9007254  31.2445507  66.6528168  14.7086430  30.4252090
  66.8783188  15.2412786  31.8239346  37.7764015  31.3719006   9.6692619
  37.5601463  31.9165287  10.4261284  38.6737022  31.0810585   9.8320198
  77.7746811  67.4905090  12.6669197  77.7284775  67.1338959  11.7798328
  78.6774750  67.3313141  12.9423370  33.6609879  57.6533813  18.4811172
  33.8404961  58.5460396  18.1858730  33.6190643  57.1384621  17.6753044
  66.6470108  13.4321899  74.8084488  67.5564423  13.4733133  75.1042023
  66.1415787  13.2850924  75.6079102  43.0516510  39.0516891  31.6423302
  43.0913582  38.9348793  30.6931152  42.1182976  39.0082741  31.8501568
  26.8751297  64.0344772  74.3290558  26.0319023  64.4798584  74.4117432
  27.0315514  63.9910049  73.3857269  74.5350189  19.3103828  35.6477318
  75.2537918  18.6949215  35.7919655  74.1240921  19.0127735  34.8360634
  14.5811510  35.2655334  60.8121986  14.6352482  36.1865578  60.5572166
  14.8610964  35.2535629  61.7274704  28.9763718  16.8952637  72.3810272
  29.5539246  16.2743187  72.8249741  29.1729107  16.7823830  71.4510498
  16.0895748  54.5386009  59.5210152  16.6956959  55.1028862  59.0409851
  15.9695816  54.9775696  60.3631210  83.9935379  60.3745804  47.2367744
  83.6445160  61.1452446  47.6845436  83.5835495  59.6328735  47.6817627
  61.1653824  41.1282387  32.9974632  60.4553986  41.5591660  33.4733391
  61.6748466  41.8475990  32.6243782  79.2354813  10.2360716  48.8943520
  79.4827271   9.9618979  48.0112152  79.7774124  11.0060434  49.0666313
  77.3610535  55.4213715  77.7528305  77.8310547  55.6988792  76.9664993
  77.5192413  54.4788513  77.8063126  36.7878914  11.0043659  70.6288223
  35.9696083  11.1858654  71.0911026  36.5517998  10.3490648  69.9722595
  79.8710785  69.9957504  51.8691750  79.8945770  70.8267136  52.3437157
  79.2328644  70.1372147  51.1699562  71.9864197  58.7891121  86.6213531
  71.6459732  58.9166718  85.7358780  71.3844528  59.2783279  87.1821823
  63.6610870  14.1305876  14.2163563  63.3390045  14.4928207  15.0417538
  63.3711433  13.2184057  14.2257767  48.0527420  50.2593422  10.0075073
  48.5654984  49.6802711  10.5714140  47.2615433  49.7593384   9.8069305
  31.8838806  63.0609589  17.2648315  31.1194458  62.8738022  16.7199993
  31.7847996  63.9813080  17.5084915  10.1000004  29.3201656  50.5495605
   9.2528992  28.9638348  50.8172913   9.8819561  30.1093655  50.0537262
  48.1379929  53.6783829  67.2226334  48.8658371  54.2866974  67.3508072
  48.5496826  52.8770790  66.8991318  52.1399956  50.6503181   2.1977489
  52.9684105  50.9750137   2.5506434  51.4797096  50.9494553   2.8228633
  12.6647978  56.3140984  46.8948326  12.1226397  56.6132507  46.1648979
  12.6981659  57.0623817  47.4908066  69.5798721  11.8836813  36.6297455
  69.8743744  12.3855686  35.8697395  68.8523941  11.3556566  36.3008118
  71.6303406  28.6863346  72.5898361  72.1634369  28.2681580  73.2659760
  71.1511612  27.9648342  72.1823349  51.3236923  22.8492928  44.7569160
  50.6122093  22.2420692  44.9601364  51.1908302  23.0743465  43.8360863
  35.2597275  18.8279572  25.3796635  35.8681030  19.0089722  24.6631813
  35.6939735  19.1790867  26.1570759   0.1481398  54.9267311   0.9314285
  -0.3943472  55.1165619   1.6968731   0.4352218  54.0226364   1.0595889
  64.9167404  38.2590790  74.8503036  64.1028671  37.8772011  75.1789474
  65.5915375  37.6211739  75.0825882  20.6556854  52.6934319  86.6556396
  20.3281555  52.4310799  85.7953339  21.0934525  51.9122086  86.9936981
  73.4547729  29.1108818  26.4361458  73.9473572  29.9303036  26.3898315
  73.5112762  28.7471924  25.5525341  67.1877518  45.2844353  49.7889366
  68.0052261  45.7176514  50.0344772  67.4584427  44.5742493  49.2070427
  40.1225128   1.3965828  27.6166134  40.8830223   1.2227333  27.0619640
  39.4727325   0.7496784  27.3417778   9.9523249  36.7011185  78.4048233
   9.8433399  36.1428909  79.1747131   9.5490065  37.5329437  78.6530838
  84.8973999   4.9725866  57.4856949  85.6808853   5.1989894  56.9845734
  85.1474533   5.1152334  58.3985786  16.9656620  52.7588081  66.6377792
  17.6484909  52.0923538  66.5615158  16.1587601  52.2610130  66.7694626
   3.5027492  52.1587143   5.0263300   3.4368920  52.8644104   5.6696725
   4.2120676  52.4308624   4.4440613  44.1063843  63.2249031  30.8832493
  43.5766487  63.1999168  30.0863876  43.9918900  62.3587265  31.2742271
  38.9595070  22.6723366  17.2397251  38.4851875  23.3826981  17.6717415
  39.5180206  22.3056622  17.9251747  25.9982109  51.8135300   3.7577472
  26.4286098  52.6671295   3.7092235  25.9529514  51.6210098   4.6942935
  11.5041342  53.2093277  52.3840599  11.1521873  53.4688835  51.5325928
  12.1126595  52.4978104  52.1848907  24.9937325   2.6226969  82.6116562
  25.3345051   2.3070807  83.4486160  24.5781593   3.4588649  82.8222580
  24.1279583  34.1085968  66.8252792  24.4783802  34.4246063  65.9924698
  23.8114643  33.2260399  66.6325073  25.0787163  29.8896198  84.5021133
  25.6874981  29.4122829  85.0658188  24.7499504  30.6004791  85.0524063
  15.1015100  65.9946594  47.8692017  15.8760929  66.2305984  48.3796768
  14.7421265  66.8327026  47.5780754  31.6654835   9.1654482  17.7310104
  32.3186378   9.8649817  17.7144356  31.8065453   8.6866522  16.9142570
  48.7272339  21.0221519  87.8605957  48.7444572  21.2997036  86.9446793
  47.8219833  20.7501183  88.0114441   3.6759870  40.8845978  48.8680496
   3.8053865  41.5281334  49.5647202   3.4748938  41.4083595  48.0925064
  10.2713671  27.6606693  59.9293022  10.4234152  27.4769650  60.8563232
  11.1073132  28.0030231  59.6127243  17.5669804  40.0155029  73.0106277
  18.1951466  39.6192780  73.6144867  16.7379932  39.5790825  73.2069702
  70.7432938  28.6169548  34.6596527  71.6465759  28.5794601  34.3451576
  70.7946243  29.1125164  35.4769745  61.5239639  56.2433357  19.7014942
  62.2922592  56.1811523  20.2690220  61.2480354  55.3360100  19.5716629
   2.2472885  10.3530951   4.1502633   2.2667973  10.8546524   3.3352222
   1.3437989  10.4295912   4.4569983   6.9129419   0.5850784  53.1228065
   6.5657506   0.0936466  52.3783722   6.8617835   1.5011261  52.8499146
  68.9359436  41.3712273  62.3774185  68.7940063  41.9263039  61.6106224
  68.6342621  40.5046425  62.1049309  63.6152496  19.0494919  41.8885155
  62.8293114  19.1750374  41.3567505  63.3507118  18.4238472  42.5629196
  50.7802162  63.4164963  56.8086357  50.3043137  62.9688225  56.1091080
  51.3683357  62.7496071  57.1630440  26.5149822  36.7984009   6.4571652
  26.2970867  35.8724327   6.3506756  27.4602184  36.8402290   6.3122110
  53.9839630  34.5183983  10.1206741  53.9038849  33.6851349   9.6564627
  54.8648148  34.8271065   9.9084682  38.5215492  70.5771408  38.2982635
  37.9501991  70.9756470  37.6417732  39.4069786  70.8068237  38.0163116
  33.7707062  56.6492767  51.0215416  34.0648804  56.2243271  50.2158699
  34.1822968  57.5132179  51.0007019   8.4207525  38.7430725  79.3277817
   8.2350321  39.0148888  80.2265854   7.5613232  38.5483971  78.9539948
  43.8229828  28.1272869  23.0048046  43.7373276  27.7243519  22.1407814
  44.5191765  27.6293755  23.4333286  60.7001266  42.3959198  66.4735031
  60.3946915  41.8643074  67.2085724  60.6462936  41.8120041  65.7169495
  73.2296066  58.8149452  36.6349106  72.7277603  59.2131805  37.3460960
  72.5987854  58.2571526  36.1797523  45.2897148  23.1792717  71.7595596
  45.2127190  23.7909012  72.4918289  44.4363823  23.2144966  71.3273315
  50.3580055  65.1515961  69.5056229  49.7034531  65.0854187  70.2009048
  50.1583099  64.4224625  68.9184952  12.3112326  38.4245300  65.5813904
  13.0748043  38.5928917  66.1335144  11.5692387  38.7437859  66.0949554
  86.1302872  48.4963570  88.7362366  85.9596176  48.0006638  89.5371017
  85.3674011  48.3279648  88.1831665  60.3374405  40.0068092  74.0978470
  60.7464142  39.2284813  74.4762421  60.5639343  40.7140121  74.7018280
  41.5016518  25.6866436  75.6418762  41.8038864  26.0479050  76.4751663
  42.0399551  26.1237259  74.9820099  33.5022583  40.9905052  38.8912086
  33.9304619  41.7072525  39.3593369  33.6412430  40.2241707  39.4476700
  13.8083811  66.7017517  78.8870010  14.4296017  67.3883209  78.6442261
  12.9720373  67.1577682  78.9808807  45.5777779  52.1686554  42.7639656
  46.0964127  51.3724403  42.8792534  44.6736336  51.8881760  42.9057045
   9.7240896  26.4228611  20.2486858   9.9276075  26.0464458  21.1049118
  10.5779190  26.5604820  19.8384819  79.9819489  35.6824226  28.7882652
  79.2968140  35.4670334  28.1554737  80.6413803  34.9988861  28.6692505
  54.2056961  41.1235733  76.0341873  53.8667564  41.5721321  75.2594910
  53.4240685  40.8668900  76.5234756  60.1052132  34.1580772   3.8687444
  60.8073273  34.7950401   3.7362964  60.5220299  33.3086205   3.7241096
  74.9794006  42.6173096  40.5035019  75.7556381  43.1619225  40.6342430
  74.3504868  42.9374962  41.1501770   7.0964684  42.6594810  86.7968292
   6.6038656  42.0367546  87.3314209   6.6700950  42.6296654  85.9403610
  57.4994087  45.3440094  85.0990753  56.9007034  45.3621407  84.3524475
  57.5042076  44.4289932  85.3800735  83.2487869   3.9277947  80.3724670
  82.9708939   3.0141630  80.3070221  82.4542465   4.4327898  80.1995239
  24.8644447  45.7928772  74.9371414  25.2955799  46.3345909  74.2761612
  24.2442780  45.2582664  74.4413376  39.1468163  29.8083782   3.1256938
  39.7846375  29.3836708   2.5520744  39.5180855  29.7201233   4.0035334
  74.0792618  31.3392582  38.3500481  74.3302383  31.5624008  37.4536934
  74.7743683  30.7562656  38.6553116   5.4179692  48.3432693  32.7042770
   6.2172904  47.9379539  33.0404854   4.7672076  47.6415825  32.7236137
  50.4198647  30.4921837  12.3987570  51.3614998  30.6385136  12.3085299
  50.0629234  31.3542233  12.6125622  37.7532692  41.3706055  47.2857819
  37.4653053  40.8447876  46.5395737  38.4686241  40.8658104  47.6726685
   7.4913692   1.7626364  77.6746063   7.1137929   1.1931415  78.3449402
   7.6518865   2.5909309  78.1267090  81.5783920  13.7750893  41.5621109
  82.2087173  13.0578537  41.4950562  82.0364456  14.4505186  42.0623245
   2.0582376  64.1566696  72.9669647   1.4711273  64.1651001  72.2110138
   2.2292717  65.0809631  73.1477127  85.5557098  12.8354740  87.5256500
  86.4431534  12.5052328  87.3855972  85.0661392  12.0780649  87.8464050
  28.4612274   6.3884506  -0.1388714  27.6762104   5.8408279  -0.1293844
  28.5926151   6.6346169   0.7767549  43.0635147  10.6641445   6.9559822
  43.0129280  10.5071163   6.0131063  44.0012283  10.7222404   7.1391463
  56.9879189  28.1183739  12.6687641  56.8383026  27.9948196  13.6060905
  57.9280167  28.2831211  12.5959492  80.7455368  36.4118767   8.9259357
  80.0726166  35.9911156   9.4610691  80.5441360  37.3461533   8.9788628
  21.6764126  40.5501022   5.6441545  21.3770294  40.5387268   4.7350492
  22.3381557  39.8598213   5.6870508  28.2422218  59.0101624  22.5503235
  28.1571827  58.9576263  21.5983582  28.3943043  58.1066628  22.8274288
  67.3154221  30.1620007  62.9604683  67.4746399  29.4361076  63.5637589
  67.6030197  29.8330898  62.1087990  16.0158787  64.5283356  67.2651215
  15.3236723  64.5946503  67.9229126  16.7921944  64.2662048  67.7599487
  52.8949738  52.5035706  41.3519897  51.9922562  52.6187668  41.0552330
  53.4126472  52.4960442  40.5468864  85.1760406  16.6507225  49.6542282
  86.1197433  16.5893536  49.5062294  84.9604187  17.5609035  49.4509850
  86.3795853  14.7547646  47.4040451  86.7855682  15.1141281  48.1928864
  85.8853607  15.4864540  47.0344429   2.5616937  35.4578362  49.9053268
   2.9502428  36.2138596  49.4652252   2.9879487  34.7011948  49.5027924
  41.0068436  57.5781593  11.5799198  40.4586258  57.0400276  12.1509800
  41.3048363  58.2949371  12.1399727  74.3772659   3.4875157  88.1811142
  74.2497025   3.0299757  89.0121536  73.6847763   3.1498821  87.6130524
  80.3641205  17.8799686  68.1530609  79.7178726  17.1769066  68.0874710
  81.2088470  17.4371738  68.0718231   8.1300716  45.6783295  84.0129852
   8.2930031  46.5794945  83.7344360   7.7175550  45.7641678  84.8724594
  44.3967056  60.0056572  17.7668362  44.7367897  59.7011604  16.9254951
  43.8119621  60.7290993  17.5411396  40.9379387  68.0537186  39.3736420
  41.3553734  68.8517761  39.6978035  40.7278023  67.5555267  40.1635056
  10.4968185  33.8503265  11.1836405  11.2795725  33.7378578  11.7229719
   9.8410692  34.2047043  11.7841730  30.5180950  34.7977028  20.9786758
  31.2597542  34.2221146  21.1654205  30.9181995  35.6318321  20.7329540
  84.7018433  69.1745911  86.1513062  85.1745758  69.0738831  85.3250961
  84.0206833  69.8194351  85.9604492   6.3201952  47.8412666  45.2910690
   6.8853331  47.0837860  45.4429741   6.8076220  48.5804977  45.6546402
  69.6978531  17.5206718  10.0879440  69.3273087  16.7244473   9.7072144
  69.3241043  18.2315521   9.5671816  25.7871094   6.6959324  73.1426010
  26.5258484   6.9183669  72.5760193  25.7118454   7.4392791  73.7409363
   9.0150309  65.3074646   9.5176144   8.3257084  64.6440735   9.4863882
   9.7589951  64.9009323   9.0732298  68.2113800  44.9876099  13.2916136
  68.1377716  45.7567749  12.7266369  67.7135544  45.2180748  14.0760174
  71.5265121  18.2142658   7.6924996  72.1047668  18.4670544   6.9728117
  72.0230179  18.4237919   8.4835835  10.3061934  60.2900696  32.1307068
  10.4341316  60.6757698  32.9973679   9.5997238  60.8052483  31.7411880
  15.2074003  29.4942551  66.9607849  14.5231390  29.7258263  66.3327713
  14.7452774  29.0281086  67.6574783  65.3590851  48.8280067  83.6163483
  64.9426117  48.4614143  84.3963470  64.7039261  48.7281647  82.9256821
  41.0789070  52.0260582   8.5122223  40.4008331  52.1026230   9.1834812
  41.0881386  52.8813057   8.0824575  81.2445297  60.6488266   0.3890553
  80.4727402  61.1939011   0.5422283  81.5522690  60.4176788   1.2654680
  41.7456665  19.9607258   8.4758348  41.1419601  19.3113117   8.8364382
  41.9348793  20.5453739   9.2097397  57.2448235  57.0281143  22.0164165
  58.0226898  57.3456078  21.5577698  57.2567711  57.4887466  22.8554096
  49.7199707  37.9653702  62.5455551  49.2342186  38.7418404  62.2674065
  49.6356010  37.3549461  61.8130989  58.7767410  21.0393009  70.1540833
  59.4612160  21.1739006  69.4986343  59.2230682  21.1526852  70.9932327
  58.1968193  69.0338974  87.1270218  58.0651131  68.3972626  87.8295670
  59.0054893  68.7536697  86.6983566  29.3470612  60.9769554  84.3238983
  29.5090256  61.0424042  85.2650223  29.6408386  61.8169632  83.9713135
  55.9148445  43.0064354  52.6911125  56.1707230  42.3513184  53.3404045
  56.0917854  43.8460197  53.1154099  69.4480896  54.1688995  49.4640617
  70.2461777  54.3507919  49.9602509  68.8588943  53.7615776  50.0990143
  60.0546532  36.2347183  79.8603592  59.1175156  36.0405884  79.8425217
  60.3140373  36.2481918  78.9390717  65.2883911   3.0886810   6.7700896
  65.0892410   2.9718020   7.6990194  65.2055817   4.0310521   6.6241059
  59.4237137  46.0762405   2.5527577  60.1495590  46.7001877   2.5610585
  58.8838387  46.3268738   3.3023911   9.9022522  45.2326279  19.8039570
   9.8641176  44.3037224  20.0317879   9.4147787  45.6705742  20.5016708
  28.2416210  46.0506172   3.3784232  28.4682293  46.5106735   2.5701995
  27.4612942  46.5020103   3.7002394  11.5387011  35.8083687  50.3119392
  11.2957621  36.2913589  51.1018333  10.9837923  35.0285912  50.3278351
  24.0716133   9.4761219  49.7600327  23.2310886   9.0748081  49.9807053
  23.8406506  10.3299522  49.3941612   1.6813974   4.0122647  42.5909615
   1.5732602   4.2600327  41.6727295   0.8617884   4.2769613  43.0085869
   0.9028543  42.8550377  18.4635258   0.3236251  43.6152611  18.4107418
   0.3102190  42.1071777  18.5391808  32.2200966  50.3394966  31.0428391
  33.0186844  49.8624191  30.8172493  31.5151062  49.8271446  30.6469669
  69.4113312  17.8599148   3.1321738  69.9319153  18.5896072   2.7963543
  69.3466492  18.0247917   4.0728455  10.0938091  66.4685135  20.0085411
  10.1781702  65.5151443  20.0227909   9.1552496  66.6243668  19.9034328
   4.4122767   6.3651295  86.4630051   4.1163292   7.0638390  85.8795242
   4.7322960   5.6812525  85.8746796   2.4608722  29.7427883  53.6609001
   2.2301314  29.0481434  54.2777138   1.9214481  29.5673714  52.8898735
  49.1676483  37.0944901  73.8220825  48.3353806  37.5507011  73.9463196
  49.1431961  36.3754234  74.4534149  47.7276497  68.8923264  31.7307625
  48.4723549  69.4080505  32.0400810  47.7494850  68.9873734  30.7785435
   8.3547192  40.5608406  61.0977859   8.9417925  40.3670349  61.8285522
   8.9361982  40.8430519  60.3917618  32.1755791  61.0511551  21.7421989
  31.8013134  61.5620117  22.4599609  32.0753937  60.1402931  22.0188389
  76.5518799  58.0886650  74.8361969  75.7546005  58.4858398  75.1866531
  76.3696442  57.9679146  73.9042892  36.4724808  21.3209991  19.4855404
  36.6251984  20.3799973  19.3993816  36.7866020  21.5351810  20.3639965
  18.4551296   0.7716317  25.1129360  18.0924091  -0.1076718  25.0057392
  17.6883297   1.3417021  25.1701164  32.9914818  44.2529068  39.5749435
  33.1261482  44.9050560  40.2625504  32.9543419  43.4176483  40.0409851
  78.5447235  39.8499908  61.6466179  78.3985062  39.8983727  62.5913467
  79.4801102  39.6671219  61.5580864  65.8948975  45.8937950  38.3529510
  65.3806992  45.8028336  39.1551743  66.6022644  46.4940529  38.5886269
   7.9765120   8.0698586  17.4455872   7.0630984   8.3437214  17.5286942
   8.4445658   8.8681154  17.2007542  22.3425999  45.3836632  41.8150253
  22.7526073  44.8906593  42.5257111  21.9391747  44.7151031  41.2613945
  18.3185062  66.1509476  83.3056641  17.4499989  66.5343399  83.4278870
  18.7574291  66.7422333  82.6941376  65.0980759  22.7554836  72.0879288
  64.5568085  23.5398693  71.9984970  65.7423248  22.9841633  72.7579117
  58.0019836  57.0365715  84.0260696  58.0112610  57.2769012  83.0995712
  57.4627113  57.7088737  84.4425125  79.5711060  61.9891434  48.6912766
  79.0084686  61.6240196  49.3741798  79.7551651  61.2497711  48.1118927
  20.8456478  45.0169258   8.1145430  20.3431702  45.3460464   8.8598137
  21.2757549  44.2283058   8.4451742  66.0824280  48.6953659  67.1879196
  65.6538544  48.4154587  67.9967499  66.9862137  48.3935089  67.2788925
  34.4656982  56.0111847   0.7911094  34.8264236  55.3612938   1.3942281
  34.4466629  55.5668030  -0.0564724  27.4846516  13.8930931   5.4018354
  27.2897015  14.6449633   5.9612255  28.4407387  13.8600130   5.3696618
  84.4083939  42.4807701  38.1790848  83.7907410  43.1321831  37.8468361
  85.0163651  42.3355484  37.4541626  19.3490734  35.9858665  82.5493164
  19.6147461  35.8746643  81.6364746  19.0172482  35.1262779  82.8086090
  10.1901865  42.3121452   2.6749673  10.7109737  41.6223106   2.2636943
  10.4451447  42.2871094   3.5972478  16.7315292  26.1581059  21.1028996
  16.9091740  25.9166431  20.1938496  16.4452209  27.0703220  21.0568447
  54.1957550  39.8088417  27.4920006  55.0737267  39.9373512  27.8510056
  54.3384476  39.3287926  26.6762676  16.3312359  52.3741913  80.0237274
  15.7284203  51.6831741  79.7492371  17.1922112  52.0681267  79.7386322
  70.4355087  67.9476624  77.6645508  71.0788422  68.6464081  77.7833023
  69.6804962  68.3821335  77.2677765  71.4696045  31.7344303  58.6940002
  70.9472122  32.4941711  58.9511604  72.0556488  32.0659218  58.0136337
  39.3624611  39.3194275  22.1292267  38.8085632  38.6581688  22.5441570
  39.9654465  38.8171539  21.5811749  75.7397385   6.7430816   8.1629601
  75.7128906   5.7982507   8.3139763  75.8217392   7.1231976   9.0376148
  47.4257889  59.2262344  72.7460480  48.1490974  59.8053551  72.5058975
  47.8417282  58.5095634  73.2252197   8.0195789  56.3728600  59.6333694
   8.9509811  56.3560524  59.8534622   7.7413764  55.4593544  59.6992760
  83.0253906   5.3293691  62.4410439  83.5478592   5.3873863  63.2409782
  83.1928406   6.1542568  61.9852486  25.7711735  25.5467148  81.0534897
  25.9075222  24.9738617  81.8081284  26.2940884  25.1520481  80.3556137
  52.9677429  20.1529789  63.8226662  52.3261757  19.6709118  64.3444290
  52.4408112  20.7153473  63.2549324  40.7267265  43.2686462  80.9849091
  40.0262299  43.6191978  81.5350418  41.3197289  44.0081825  80.8520050
  53.1530876  55.6672287  45.8158226  53.9743385  55.1808929  45.8883286
  52.8697548  55.5255165  44.9125633  12.0252953  49.1331482  81.1473083
  11.8078871  48.6969528  80.3234711  11.3209076  49.7685661  81.2750397
  54.5789108  14.1738596  42.1643028  54.5912704  13.6326799  42.9537354
  53.6505203  14.2608833  41.9480858   8.9696712  48.1225166  15.5639830
   9.3158827  47.7022476  16.3512211   8.2504454  47.5552483  15.2862234
  38.1908684  61.5268326  67.2106934  37.3872528  61.4863892  66.6922379
  38.0310974  60.9359856  67.9466248  81.0503845  10.8966703  55.0587196
  80.8833466  11.6649837  55.6046333  80.3537445  10.2823706  55.2901649
  29.8268299  54.8641357  77.5465698  29.7088547  55.4540672  78.2910767
  30.7759266  54.7985458  77.4410019  14.5505705  63.8309784  82.1711121
  15.3481722  63.3043327  82.1190720  14.0597267  63.4509277  82.8997116
  51.0970116  41.5274506  67.2963562  51.6672516  42.1696510  67.7190170
  50.6203995  42.0289955  66.6348953  17.7287388  21.8926449  17.0702782
  16.7734814  21.8661194  17.0154152  18.0267639  21.4915543  16.2538586
  52.7239876  39.2940826  15.9244328  53.2748299  39.0904083  16.6802902
  52.0371208  38.6276512  15.9421082  21.2571583  55.1098213  65.7335205
  21.2813988  54.2790718  65.2586517  20.9761047  54.8724594  66.6172104
  58.9638023  34.8613625  49.4784737  58.1646881  34.3966255  49.2301445
  59.6046410  34.6076813  48.8142395  62.4529953  69.1089783  59.3081398
  62.0192108  69.3946228  58.5041084  62.5171165  68.1579285  59.2208023
  46.9101105   7.1685634  80.0012054  46.6007652   6.2635117  79.9635086
  46.1164513   7.6877475  80.1307678  13.6908655  10.9545279  78.8453445
  13.2836466  10.3703327  79.4849625  14.4980345  10.5067987  78.5918655
  23.5608578  33.4730644  19.7241135  23.2539234  33.0021515  20.4988804
  24.1321526  34.1582756  20.0710106  63.7760963  24.2569523  53.0778351
  63.6045189  23.3868847  53.4380798  64.4919205  24.6006088  53.6123695
  74.0113831  13.9557028  38.5587044  73.7185516  13.0496197  38.6561661
  74.0360489  14.2969131  39.4526863  16.1402607  52.4881058  70.5019913
  15.9973154  51.7111816  69.9614487  16.9269638  52.8927498  70.1364899
   8.2193537  14.8449354  77.8881989   7.8948827  15.7282543  78.0634079
   8.3374023  14.8170862  76.9387131  55.5671577  68.3507614  42.9426346
  55.9232712  68.0603867  43.7823372  54.9721909  67.6487350  42.6791725
  37.7396126  54.3804016  56.2222099  37.3991852  54.5066223  55.3365402
  38.6856155  54.2933273  56.1050377  58.6702080  63.0390854  75.3847809
  58.7443123  63.2277069  76.3202820  58.0160522  62.3422852  75.3320236
  26.9193249  67.4274216  13.4263744  26.9848423  67.1001663  12.5292435
  26.3386574  66.8063507  13.8660698  52.3585396  14.6122894  86.6627426
  53.0731850  13.9755297  86.6555862  51.5822792  14.0986137  86.8858795
  36.1781006  37.7287903  22.4241772  35.4412613  37.9788284  21.8666992
  36.7720413  37.2582283  21.8393364  77.2431641  47.1719971  46.5083008
  78.1482773  46.9552841  46.7319870  76.8346176  47.3886452  47.3463898
  60.4746323  20.6814575   6.0079675  60.5859299  19.9373741   6.5997334
  59.6210823  20.5370579   5.5995140  31.0617485  57.2538414  75.5624619
  31.5078182  56.4900551  75.1965561  30.2860050  57.3643265  75.0126877
  62.6830292  60.3610802  63.5836830  62.2481384  60.9146729  64.2322540
  63.5360107  60.7741966  63.4495354  51.3901939  48.0157547  59.8697052
  51.9404221  47.3579788  59.4444847  52.0105324  48.6130753  60.2875748
  63.9402847  51.6162491  84.4302292  63.6039696  50.8816681  83.9168930
  63.2400360  52.2682648  84.4025803  84.9000549   8.1840448  34.7144966
  85.5835419   8.2729063  35.3787079  84.1531448   8.6627970  35.0738754
  58.1111641  49.3535309  17.9343834  58.9174728  49.6388550  17.5046291
  57.5835342  48.9787903  17.2291126  42.3765717  16.3878517  65.6251678
  42.1575546  17.1412544  65.0768509  41.9489136  15.6468391  65.1959305
   5.1061244  21.9379368  60.9279938   5.2920928  22.8007336  61.2984352
   5.4581971  21.3208981  61.5695076  12.8842907   9.4107494   1.3441329
  13.6562786   9.9756384   1.3099902  12.8132896   9.0485487   0.4609557
  19.3739643   8.6478424  72.3747864  18.9896107   9.4927406  72.6085663
  18.6213818   8.0783262  72.2150879  78.9777298  43.0725479   4.3538013
  78.5059814  43.8625183   4.6176915  78.2918015  42.4202538   4.2115078
  29.9093437  26.1500187   2.1681724  30.1378155  25.4055443   1.6115836
  29.9931469  25.8159809   3.0612726  75.3519058  36.9682999  64.1863251
  74.4669724  37.2765694  63.9911461  75.2234344  36.2423859  64.7968750
  69.4796448   1.1150547  25.8311920  69.8974533   1.2403585  26.6832294
  69.1795731   1.9888246  25.5807629   8.7029247  28.5463638  25.2992649
   8.4839859  27.8505592  25.9190655   9.6588678  28.5330296  25.2520790
  51.2263489  12.5732565  10.6936312  50.6810455  13.2016573  11.1669035
  51.3526077  12.9678612   9.8307428   8.2720060  58.3634491  24.2419338
   8.0632372  59.0938454  23.6595535   9.0875473  58.6239891  24.6700020
  73.6700745  70.5549698  78.7009735  74.4387283  70.4823227  78.1351700
  73.9168320  71.2060776  79.3577881  29.7346725  23.4615574  78.5587921
  29.6303482  22.9652386  77.7469940  28.8854351  23.8822479  78.6931305
  59.5193748  67.0912094  82.8826523  58.8456192  67.4053497  82.2796631
  59.4465752  66.1374359  82.8473129  52.2859802   1.0875131  59.1335220
  52.3369255   0.1964683  58.7875786  53.1538582   1.2511177  59.5026474
  14.3358297  52.7608604  44.5068855  14.6288700  53.3243103  43.7907295
  13.5746183  53.2127190  44.8710480  84.3610153  33.5808372   7.8986683
  85.0499496  34.2141457   7.6973753  84.8320160  32.7863235   8.1499434
   1.9026036  35.3436012  36.1365471   2.7805517  35.3830833  35.7572327
   1.3202072  35.5926018  35.4188805  80.0454636  58.8713493   9.7238874
  79.3315964  59.4355736   9.4267778  80.7391205  59.4784431   9.9817677
  39.6673355  14.2665176   1.4262261  39.3329697  13.8537893   2.2225211
  39.2825584  15.1429605   1.4310156  54.6395111  62.5263481  54.0675240
  54.9014435  62.1738892  54.9180527  54.5807381  61.7591515  53.4981499
   3.9903572  56.3317337  59.3607216   4.9157729  56.5598755  59.4489822
   3.5530803  57.1661644  59.1911774  48.7916451   4.5185790  20.1766109
  49.4201622   4.0035272  19.6707268  48.2509804   3.8663344  20.6221313
  44.6580772  51.2100601  70.8583527  45.2392731  51.8538475  70.4533997
  44.8769798  50.3844986  70.4262009  27.9819355  32.9773903   4.7270432
  28.3776550  32.2703018   5.2366128  27.6212387  33.5730515   5.3837924
  76.1004410  28.3971920  53.7150154  75.5441284  29.0050716  54.2020760
  75.6424637  28.2661533  52.8847618  84.4821548  32.9197426  66.0561829
  85.1133270  33.6153412  65.8717957  84.7996445  32.1690369  65.5543137
  49.2161026  33.1154099  81.8149109  50.0783806  32.8985672  82.1694336
  48.7264786  33.4523735  82.5652084  72.8946381  16.2572002  87.9083786
  72.5044250  16.9700279  88.4141846  72.8678207  16.5639877  87.0020752
  60.3461952   1.1382594  48.4645958  60.6878090   0.2448947  48.4267807
  60.0568123   1.3220594  47.5708923  44.9638138  49.4970589  26.5194683
  45.6884956  49.8387794  27.0432014  44.2374687  50.0947304  26.6967983
  65.9200821  49.5484123  73.7401123  65.5779724  49.3398781  72.8707962
  66.7424850  49.0619392  73.7968903  40.1688690  41.2727699  66.2463760
  39.5792160  41.9453468  65.9055328  40.4997559  41.6378746  67.0670166
   2.5814700   5.9111524  55.4437180   2.3098938   6.7954021  55.1975861
   3.3324246   5.7255859  54.8799248  54.7149696  17.0070896  40.2629204
  54.8715591  17.9363708  40.4306908  54.0409966  16.7596626  40.8959885
  40.7881660  61.3963852   6.7238092  39.8968124  61.5092468   6.3936882
  40.8493309  62.0040283   7.4608731  79.0115738  46.7983475  42.9292793
  79.2617569  45.9276619  42.6201630  79.6995697  47.0390739  43.5497208
  62.7199936  62.8015823  73.2593765  63.0233498  63.5057373  73.8324203
  63.3527794  62.7877541  72.5413132  24.3139076  13.6530085  85.9634399
  23.9183216  13.2635136  85.1836700  24.8562775  14.3659735  85.6261749
  76.1104279  28.7189713  49.5548210  76.5294952  29.5665531  49.7038689
  75.5999222  28.5612354  50.3490105   7.3520637  50.3994865  63.3181839
   6.8433633  51.2036934  63.2146873   7.6548772  50.4227753  64.2259216
  70.5897751   8.7691250  30.3457565  70.9926300   8.8997087  31.2041779
  69.6511917   8.8708563  30.5036812  11.4900684  40.1580925   1.4104271
  11.6339931  39.9469986   0.4879541  11.8485069  39.4089088   1.8863199
  22.2620506  25.8553009  87.8466568  22.2549801  26.7374287  88.2181854
  23.1071644  25.7894363  87.4020462  32.6505814  35.4015732  80.6311111
  33.2476807  35.0709152  81.3022079  32.9041481  36.3172493  80.5150452
  18.6674786  46.8666840  72.7023239  19.1771946  46.2845459  72.1388245
  17.7629375  46.5726395  72.5947418   8.8671350  66.9565201  74.6298981
   9.4793625  66.2332687  74.4945297   9.2726116  67.4886017  75.3145218
  25.3496742  61.6256905  59.5710449  25.1032143  60.8805351  59.0231133
  24.5935669  62.2114258  59.5329857  62.7635918  58.5475006  23.7086372
  63.3034325  59.3378258  23.7224979  61.9248123  58.8366547  23.3493729
  39.6072006  31.9636517  11.8242102  40.3444595  31.9914303  11.2143650
  39.9307785  31.4556866  12.5681868  48.9974022  11.0054264   5.6335855
  48.9305649  11.1902447   6.5703917  49.7754822  10.4537344   5.5532150
  64.3129425  50.7165642  62.6285591  64.1525803  49.7776566  62.5338669
  64.7104034  50.8054924  63.4947891  49.3141670  51.8851013  33.0085449
  49.9338455  51.1683006  32.8727951  49.0660744  51.8158760  33.9304390
  20.2008858  22.0570221   9.1506720  19.9419556  22.0556965  10.0721846
  20.9668865  21.4840546   9.1162949  11.1300306   8.3154907   3.6915653
  11.5509796   8.8419600   4.3711715  11.5153131   8.6284618   2.8731289
  73.0267181  11.5426521  20.6885548  72.5170059  12.3511724  20.7406960
  72.8442230  11.2004852  19.8134251  60.9914513  29.8306160  77.4971695
  60.3690224  29.7571774  78.2206421  61.7294006  30.3171368  77.8645401
  67.2471924  16.0665340  73.7145844  67.3051758  15.2810640  74.2585602
  66.8739243  16.7315178  74.2931213  13.5288553  68.3268814  47.7446098
  12.6444883  67.9753952  47.6417274  13.5764132  69.0444031  47.1128464
  65.4267731  28.5034866  80.1440506  66.0230103  27.8436699  80.4981384
  64.8749924  28.0216885  79.5279007  49.7187347  38.4437637  43.2372551
  50.0652046  39.2179604  43.6808853  50.4896507  37.9055748  43.0576096
  74.1869278  44.8141289  48.1462059  74.0618896  45.7628899  48.1673622
  75.1041489  44.6879539  48.3891525  45.6796379  34.9815750   4.8771138
  45.5639267  35.3624229   4.0065975  44.8061638  35.0071754   5.2677808
  53.2839127  35.5053711  34.9733772  53.2251587  34.5566559  34.8606186
  52.5680466  35.8544655  34.4424324  54.6409035  27.0180721  39.0926552
  54.4913406  27.4730568  39.9214211  53.9970322  27.3949165  38.4929428
  79.7986221  22.2325649  72.5867462  79.0100174  22.0222282  72.0866623
  80.4470520  21.5933342  72.2915192  44.4744377  13.6835842  15.7247477
  43.9528847  13.1557159  16.3293705  45.2381248  13.9497957  16.2367496
  40.8538933   9.4468994  18.9525833  41.3451653  10.2615681  19.0584030
  40.3026543   9.3964653  19.7334938  85.5803146  10.2895479  41.1441460
  85.2689743   9.9062977  41.9641609  86.1950302   9.6436367  40.7960777
   2.6729543  17.8758011  35.5316925   3.0598800  18.7498398  35.5824547
   1.7815520  17.9889545  35.8615837  18.4882889  43.5295868  14.4479971
  18.2399654  42.7456932  13.9580202  18.1663704  44.2569008  13.9154444
  47.3800240  53.5610924   6.3031740  47.3181152  53.7396927   5.3648238
  47.7219658  54.3721581   6.6793113   3.0225756  53.4072418  46.9661522
   3.1220739  52.7192497  47.6241760   2.6022103  52.9709167  46.2251091
   4.8382115   8.8676615  31.8218918   5.6602430   9.2268066  31.4879589
   4.1691837   9.2087364  31.2283421  35.8689194  65.8616257  50.1491585
  36.1573792  65.4314728  49.3441811  36.5372620  66.5255661  50.3186646
   4.5999169  54.7231102  25.9335079   4.7190199  55.6720772  25.9722919
   4.3572078  54.4755173  26.8257084  78.8845444  56.4169312  25.2956963
  79.6548004  56.2324219  24.7582111  78.7179565  57.3501587  25.1631413
  73.8101883  66.2340317   7.3329763  74.0374146  66.5349655   6.4531803
  73.0086899  65.7248306   7.2123876  24.1529732  19.1628551  79.2905884
  23.7320633  20.0093651  79.4405441  23.9753513  18.6626015  80.0870972
  78.8788452  50.3171005  62.1072044  77.9811630  50.5215530  62.3691139
  79.4119949  50.9856682  62.5373154  62.8460007  32.6000099  53.6426430
  62.1706848  32.2349968  54.2144356  63.6717453  32.3330612  54.0465279
  26.8748093  59.7401924  49.5534286  27.5373878  59.0651741  49.7003021
  27.3746243  60.5522499  49.4698677  53.3774109  29.1907158  70.8814392
  54.0200539  29.1512814  70.1731415  53.8427048  28.8516979  71.6461563
  84.5289154   5.3197856  64.6698227  84.1117401   5.3746119  65.5295868
  85.4657364   5.3901916  64.8532410  17.0192738  65.0603027  26.7698307
  16.2581825  65.1390152  26.1947002  17.5653419  65.8148346  26.5490913
  54.7366066  35.9962082  61.2555046  55.1634560  35.7160110  60.4458618
  55.3298187  36.6502419  61.6250648  83.8972626  32.4114494  21.2737293
  83.4332352  32.9982719  21.8708477  84.6646805  32.1241684  21.7684803
  66.5999222  46.4216652  29.4257946  66.0819550  46.5519295  30.2201366
  66.7136383  47.3017616  29.0670033  48.5178223  25.8626633  88.2326965
  47.8835258  25.1493893  88.3043671  48.7968025  25.8440094  87.3172455
  61.8660088  22.0541649  25.4487648  62.3272285  22.8030548  25.8264809
  62.5621338  21.4835224  25.1231728  50.9426346  64.2224731  62.7578278
  51.0477448  65.1656113  62.6326599  51.4691315  63.8284111  62.0623093
  54.6783066  44.8354683  19.2228508  55.0195236  44.3134346  18.4967041
  55.3823357  45.4510651  19.4268398   7.9595046   4.4173002  78.7477722
   8.5915613   5.0531602  79.0830536   7.5128946   4.8759322  78.0361328
  48.3086090   4.9163179  70.7484741  48.8133049   4.1243758  70.9337921
  47.4204292   4.6007695  70.5817566  72.7450409  49.1673813  30.5179844
  71.8001022  49.3045883  30.5850067  72.8337402  48.3264084  30.0695095
  72.9647980   1.8215458  31.3189526  72.1380386   1.9734285  30.8610878
  73.5626297   1.5132747  30.6379242  26.8380108   6.0698338  77.3479080
  27.3992329   6.7378154  76.9541245  26.6451550   5.4658923  76.6307678
  24.8990421  64.3490372  32.1354866  24.7141266  63.8615570  32.9382324
  24.2646217  65.0657883  32.1390114   2.4050353  41.8616600  66.6931763
   2.8079121  41.0026093  66.5668640   3.1039944  42.4852867  66.4962616
  34.1588898  56.0518684  35.9641113  33.2401161  56.2888603  36.0902672
  34.1702766  55.0966263  36.0242538  70.0132523  43.6718063  24.3110085
  69.8673096  44.1189613  23.4773502  70.0501251  44.3766327  24.9576092
  52.5997429  32.7504311  42.1015968  53.3205376  33.0160217  41.5305061
  52.6080055  33.3920555  42.8118629  27.5552330  62.7325516  21.1729908
  27.1428623  62.4793205  21.9988594  27.8527241  63.6305122  21.3192692
  44.7707596  57.5982094  40.5209007  44.6770477  57.0305557  39.7559052
  44.8031273  56.9955215  41.2638359  26.7613735  38.3615303   2.4288948
  26.7548180  38.1766510   1.4897418  27.4100380  39.0579224   2.5313900
  48.9430504  31.7329330  25.3990459  48.5322113  31.0739288  24.8394413
  49.8615036  31.7371273  25.1295013  17.9803295  17.7013645  85.3665161
  17.6752567  16.8798523  85.7515869  17.7198792  18.3727379  85.9971161
  26.7422295  38.9004631  38.9857559  26.3261909  38.4520683  38.2494926
  26.5791779  38.3298531  39.7367859  72.9857330  65.6182861  45.8240891
  72.6388779  65.1527176  46.5851212  73.8562088  65.2433472  45.6902008
  85.8616867  41.5749474  76.8651199  86.3419342  42.2211151  76.3473663
  85.6735764  40.8666077  76.2494049  67.9662781  14.4727201  29.0801868
  67.3674088  13.9228535  28.5749779  68.8379822  14.1492605  28.8527279
  35.2142448  47.0539780  77.0233688  35.9785156  46.6853485  77.4663544
  35.4260597  46.9955025  76.0917282  30.4483414  40.2453117   8.4410019
  30.1058807  40.9611702   8.9762564  29.9947968  39.4666672   8.7638702
  26.0852222  53.0548439  85.9066925  25.7111225  52.5528793  85.1825943
  25.9693813  52.4927864  86.6727905  83.5064087  44.9224815  57.1617928
  83.5917664  43.9725266  57.2425842  84.2198334  45.1781960  56.5770912
  33.9658813  37.0686150  31.8512936  34.2445107  37.3887863  30.9933395
  34.6882324  37.2943840  32.4373550  74.4396057  64.5234909  22.6282520
  74.8087387  64.1593704  23.4328575  74.3297043  63.7674446  22.0515900
  59.2490044  24.4045448  73.8085556  60.2048607  24.4412193  73.8435974
  58.9653664  24.7296066  74.6630249  45.0428581   8.1129055  73.8077240
  45.0857162   7.7465768  74.6910172  44.2239151   7.7731395  73.4469986
  24.6200829  65.9120331  55.4360352  25.4409618  65.4477234  55.2723045
  24.6174068  66.6259232  54.7983932  20.3756256   4.6547384  11.2154570
  19.7831535   5.0762849  11.8379593  20.2089252   5.1018968  10.3857021
  54.2227859   3.8856027  45.7026749  54.5688744   3.8040383  44.8139687
  53.4449577   3.3277664  45.7089348  18.8277740  38.8732834   6.0007644
  18.2811642  38.1327248   6.2634854  18.2149353  39.6029320   5.9097977
  36.4863510  68.4206009  32.1369972  36.7802887  68.5618744  31.2370663
  36.4013023  69.3012848  32.5022240  63.3264084  20.6160049  11.4967861
  62.5690613  20.0912857  11.7562685  63.0793571  20.9916039  10.6517277
  37.1563911   4.1386080  85.2390137  37.5581284   4.6860089  84.5643311
  36.6353493   4.7474341  85.7625351  14.9659758  44.8993988  44.6517868
  14.1613941  45.2529335  45.0311165  15.4506340  44.5510063  45.4000893
  51.3719177  55.5397720  85.5411682  51.6212196  56.3146095  86.0448608
  51.0965996  54.9034615  86.2011185  81.6471786  11.3387823  68.0946274
  81.5185699  11.6673470  68.9844208  82.5701523  11.5097580  67.9072418
  40.3631897  53.4970093  46.3080750  41.2376099  53.1780701  46.5314560
  40.3260040  53.4449730  45.3530159  30.2222424  51.0648460  17.8638611
  31.0720196  50.6403046  17.7460728  30.3532009  51.6628342  18.5997200
  38.3913155  48.3978310  52.5545692  38.3914642  47.4561844  52.3827209
  37.9086685  48.4913368  53.3758736  12.8039961   3.3439395  86.9946747
  13.0738869   4.2615438  87.0320053  13.4391384   2.8849216  87.5443420
  10.6234455   0.4487521  16.5185051  11.5090885   0.3214624  16.1784096
  10.5011120  -0.2671589  17.1419926  83.9557953  54.7041779  20.9737663
  83.7970047  54.1602821  20.2022781  83.1372452  55.1836891  21.1013584
  46.2578545  26.1897526   3.5789616  45.5779915  26.4544220   4.1986113
  46.9330673  26.8630962   3.6622031  78.3514557  30.1405106  64.1904678
  79.0141525  30.8149261  64.3395538  77.8001633  30.1694279  64.9724426
  24.4381638  50.3522453  43.7186394  25.2723904  50.5191345  43.2799530
  24.5287209  49.4695549  44.0776482   9.8770227  48.5734940  52.8364410
  10.5525179  48.8565636  53.4527283   9.1218348  49.1258621  53.0384712
  68.3377991  19.2512856  18.9149704  68.2333908  20.1788349  18.7028751
  68.4020081  18.8168621  18.0644512  44.6754036  41.5129280  20.1150932
  45.5485954  41.1629448  20.2919579  44.7662811  42.4576378  20.2395725
  56.2973061  65.1464691  53.5267868  55.8239670  64.9542542  54.3362503
  56.3445740  64.3057632  53.0715714   3.2876246  55.2271996  10.5818605
   2.7507532  54.8598251   9.8796959   4.1576986  55.3209953  10.1940393
  43.2499733  46.0723152  57.2253532  43.4397812  46.8467560  57.7549286
  42.9292450  45.4252777  57.8536072  59.0623474   2.0387442  21.9930401
  58.9222336   1.3534020  22.6464195  59.9465599   2.3603194  22.1690769
  45.5705032  39.7812080   4.0981193  46.0977135  40.0178337   4.8611984
  46.1902046  39.3660049   3.4982796  47.0966911  33.1662865  27.5383949
  47.8619270  33.0492249  26.9754181  47.4570503  33.4650726  28.3733196
  67.1991425  12.4860716  13.4195881  66.6169815  11.9266014  12.9054680
  67.2139359  12.0828276  14.2875786  44.6856194   4.5918965   8.0743923
  45.5104942   4.7222905   7.6066227  44.5212708   3.6509516   8.0123930
  64.2977829  46.8627090  20.9191494  64.1917877  46.2590141  21.6543713
  64.9977798  47.4547386  21.1943607  57.0738220  69.1007004  33.9248772
  56.8342209  68.1830063  33.7957878  57.9437828  69.1784668  33.5332680
  34.5095215  50.5090828  53.0007858  35.1747513  51.0819702  53.3822327
  34.6565933  49.6602745  53.4180717  86.8223648  63.1929169  54.1408844
  87.1960754  63.8953247  54.6730499  85.9544373  63.5138092  53.8960266
  61.3635674  20.6118050  59.5125923  61.4454536  19.9774933  60.2247581
  62.2500725  20.9520035  59.3917503  10.3428802  26.9908695  62.9368248
   9.9893761  26.4269085  63.6247330  11.2814884  26.8031902  62.9320259
  35.3789101  52.2662163  28.8100357  35.5765419  52.8870316  28.1087780
  35.3055344  52.8078804  29.5958138  47.1109848  50.9510918  44.8329086
  47.5380478  51.7945747  44.9825401  47.7509651  50.3030357  45.1273232
  61.0188980   9.2407913  57.8277168  61.7730484   8.6566200  57.7487793
  60.3205605   8.7967024  57.3467369  67.5910492  56.6791954  52.1435776
  67.7224503  55.7341614  52.2202377  67.5370560  56.9876556  53.0481071
  65.2001801  54.0019264  40.3541222  64.8382797  54.4024048  39.5636292
  65.1154022  54.6786194  41.0257835  64.6841888  35.7575531  40.5332565
  64.2276688  36.0028305  39.7284813  65.3256531  36.4553261  40.6669159
  84.1280289  44.4213371  26.9337311  83.4516983  43.7617950  27.0880661
  84.7654190  43.9833488  26.3697033  69.5977783   5.2741609  23.6139183
  70.2373886   5.9858818  23.6380405  68.7832718   5.6934266  23.3363686
  81.9277115  69.7108307  31.9590855  80.9875183  69.8011856  32.1143532
  82.0318146  69.8690948  31.0208187  82.0464096  49.7494392  83.7946548
  82.8522491  50.0269775  84.2303467  82.2666321  49.7463112  82.8631363
  79.1885605  17.2069302  19.9814568  78.8672867  16.5066395  20.5494404
  79.2643890  16.7996502  19.1185513  62.2899208  20.3944645   3.7501490
  61.6980934  21.0168285   3.3275006  61.8151970  20.1033688   4.5286927
  29.6848850  59.3370819  31.9786758  29.2855778  59.2299843  31.1153584
  29.2895603  58.6479492  32.5125694  66.3772888  50.2173195  31.0403595
  65.8458176  50.7619324  30.4596939  66.9849930  49.7653160  30.4550247
  51.2587738   6.6037011  82.3074570  51.2366219   7.5200768  82.0317841
  51.6194725   6.6288605  83.1937408  30.7261925  13.2682734  86.4189911
  31.2623653  12.7573614  85.8125916  30.0414543  12.6623182  86.7021561
  59.1585350   2.4143429  33.2401123  58.3968468   2.3515723  33.8164101
  59.0956078   1.6441593  32.6752319  58.1799660  26.6664047  46.0603676
  57.3570786  27.0971394  46.2917900  58.8567009  27.2108898  46.4626122
  24.6060715  32.5113411   4.2097421  24.0615444  32.7563667   4.9578624
  25.2853317  33.1849632   4.1770711  14.5476065  39.1938629  45.6403046
  14.8491812  40.0910339  45.7830086  14.9396191  38.6927948  46.3554916
  45.6924667  52.8536148  83.8815155  45.2652855  52.3352699  83.1995544
  45.4047661  52.4534416  84.7020798  26.2007866  54.0872726  75.9850922
  26.8094082  54.7886467  75.7529526  26.2211037  54.0593681  76.9416656
  23.3647003  48.1077271  84.3496933  22.5058498  48.4766045  84.1434555
  23.8297329  48.8170204  84.7934113  53.8948326   3.2330387  26.5248432
  53.7738800   3.4266477  27.4544220  53.5905266   4.0209680  26.0745125
  17.0532703  56.4393883  52.3893318  16.5630455  56.9647369  53.0217247
  17.8466911  56.1796875  52.8575974  72.8181000  40.2173615  71.1402206
  72.8569489  39.3970261  71.6319275  71.9342117  40.5493202  71.2976227
  49.2743301  15.2531633   8.9386549  48.4796371  14.8035669   9.2259855
  49.3315697  16.0233231   9.5041704  31.7883453  43.0304642   6.3508987
  31.6290951  42.1637573   5.9771471  31.2088356  43.6131210   5.8600726
  22.0889492  71.0806198  19.0984497  22.4512863  71.8929062  18.7447052
  22.1794224  71.1711273  20.0470562  63.8073540   6.5773683  60.2431526
  63.5607338   7.1162114  60.9948540  63.5542564   5.6884928  60.4922981
  68.6061172  51.1357040  66.0925293  68.2284012  50.4476852  66.6404266
  67.8773575  51.7319641  65.9204407  82.2444534  19.0681267  84.6525421
  82.7366943  19.3771095  83.8919830  81.9746323  19.8677673  85.1042099
  68.0870895  14.0976362  82.4475250  68.5597610  13.2900534  82.6490631
  67.1926193  13.8117037  82.2620392  65.6324005  54.3881683  35.4893761
  65.5534897  53.5485306  35.0365868  66.3755722  54.8190536  35.0671692
  46.9216957  16.9604149  39.1296997  47.2894974  16.3908978  38.4539719
  46.9847755  17.8414135  38.7607880   7.6707187  22.6961632  81.3429565
   6.8988786  22.8976574  81.8720093   7.3242574  22.2317810  80.5810242
  82.4469452   2.9061520  61.3583183  82.3852692   3.1537762  60.4357605
  82.3335876   3.7283831  61.8350983  64.3280258  48.0113487  63.1969795
  65.2376633  47.7271233  63.2864647  63.8759651  47.2540665  62.8249550
  14.4832888  68.2215042  85.8156433  13.6479406  68.0093231  85.3992233
  14.5628653  69.1708603  85.7228317  10.8265715  59.0755615  11.2980022
   9.9932251  58.6515427  11.0931311  11.4866467  58.4063835  11.1170826
  29.3776970  31.9437027  11.4646635  28.4687538  31.6436920  11.4714890
  29.3338451  32.8327255  11.1126003  43.0591850   4.9369135  72.5863724
  43.3960114   5.5401392  71.9238815  42.6305847   5.5020752  73.2291260
  62.2040291  51.1506996  41.8385506  62.3434944  51.9763489  42.3023148
  61.7522125  50.5934181  42.4722137  61.3312263   1.1263578  15.0503283
  60.6624908   1.8088398  14.9933720  61.8558617   1.2383451  14.2575808
  43.0734634   3.1982894  37.2820129  42.9741783   2.4577894  37.8803711
  43.7477531   3.7442315  37.6863747   1.3474535  21.2186832  37.3783531
   1.0562828  20.6598339  38.0988693   1.6081827  22.0372734  37.8004494
  18.6421719  13.9954185  10.9854231  18.5451164  14.6054411  10.2542019
  17.7492390  13.8550720  11.3003912   9.6783371  71.4429779  22.2230663
   8.9238958  71.0437012  22.6562290   9.9499044  70.7968140  21.5711765
  81.7532959  23.9780159   0.9207323  81.7473755  23.3145695   1.6106868
  81.3894501  23.5316677   0.1561285  37.1164894  65.5363083  42.7500534
  37.2428207  66.3582382  42.2760162  37.9925652  65.2972488  43.0526657
  72.4829102  22.9788036  88.3609619  71.5569916  23.1765652  88.5016556
  72.4925156  22.0633850  88.0814133  12.1065950  18.9535732  15.6557789
  12.7765379  18.4003029  16.0573997  12.5981483  19.6642189  15.2439651
  17.1167469  46.9120979   4.6702681  16.5572815  47.6856499   4.7398934
  17.7594604  47.1409912   3.9988823  68.8656311  65.1082993   6.3911924
  68.3337860  64.9601822   7.1731358  68.3879242  65.7764282   5.8996406
  85.4387360  59.0788994  57.4742966  85.0413589  59.9406204  57.3487396
  85.1889191  58.8271904  58.3633804  72.5023041  45.4788322  10.9750166
  73.1569824  44.8586464  10.6540861  71.7154541  44.9498482  11.1064825
  15.7443113  15.1333408  71.4484787  16.5423584  14.7811346  71.0543900
  15.0422907  14.5842514  71.0993347   4.8684697  10.5358229   5.2414746
   5.4172564   9.8585434   4.8460550   3.9754341  10.2940292   4.9960046
  42.2820778  51.6129265  25.9931583  42.9677811  51.7744370  25.3451157
  42.4289513  52.2760773  26.6676159  69.2915878  11.5632935  83.1282349
  69.5155106  10.7247639  82.7245560  69.6194763  11.4926682  84.0247421
  75.0062637   3.3317268  13.8025398  75.7626724   3.8931975  13.6327419
  75.1010132   3.0729892  14.7192240  71.4180756  48.1638832  86.7150192
  70.7390671  47.6412315  86.2883911  71.9875488  48.4467354  85.9995270
  68.1952820  18.7989120  57.0645332  68.0754318  19.6103439  57.5579376
  67.6405563  18.1612339  57.5138397  79.3189468   0.6766195   5.3615150
  79.0239410  -0.1910220   5.6379251  78.5348892   1.0936497   5.0043368
  60.4677505  21.5150547  31.9309616  60.8643188  22.1336823  32.5443611
  59.6989937  21.1798077  32.3923225  76.1905746   6.9988732  53.3250656
  75.8263245   6.1242800  53.4616013  75.4331207   7.5427170  53.1088829
  20.4792652   4.2859159  77.8600616  20.0606556   4.7521591  77.1364441
  19.7515411   3.9873188  78.4054794  52.5725861  46.8738823  29.8456535
  52.1933060  46.7437057  28.9764977  52.4457359  46.0357742  30.2903061
  57.4369125  50.9514008  32.8987045  57.8665237  51.6131401  32.3567047
  56.5107803  51.0150757  32.6653519  53.7569199  28.1042480  86.5608749
  54.4055099  27.5178623  86.1713638  53.4501686  27.6389790  87.3391190
  12.1247053  39.6457977   6.4935923  12.8590765  39.8210602   5.9051924
  12.3761139  40.0583954   7.3199024  68.4100342  42.8929825  51.2410355
  69.0095749  43.5335350  51.6237526  67.5378952  43.2449875  51.4190903
  54.7794075  35.2041969  25.6748867  55.5006104  35.8239746  25.5654583
  55.1524315  34.3571320  25.4308243  78.8682251  34.0232849  61.6657677
  79.0728149  33.1206589  61.4215584  79.4354477  34.5565224  61.1088562
  57.9040642   1.6976452  64.5500717  57.3894730   1.9206868  65.3257523
  58.7746239   2.0525858  64.7299881  82.3515320  32.8783073   6.3820820
  82.7821274  32.1183014   5.9906597  82.8970947  33.1004906   7.1365523
  10.9185104  36.3698006  64.3472137  11.4156084  36.1247139  63.5667953
  11.3661070  37.1468201  64.6820679  45.5584869  13.7802525  87.0935974
  46.3203850  14.1651096  87.5267563  45.8594360  12.9208193  86.7985764
  30.2988548  13.0394526  18.0639439  30.6601353  12.6014261  17.2933331
  30.8565178  12.7514038  18.7866268  28.2070808  40.1286087   6.7003574
  29.0371895  40.3105392   7.1408734  27.6492233  39.7579842   7.3842163
  67.2943726   2.6508231  54.2120094  66.4474258   2.6855958  53.7673607
  67.5028152   1.7177082  54.2575989  32.6314240  54.5444717  69.8924103
  33.5587845  54.7082024  69.7208633  32.2893105  55.3890305  70.1855087
  17.8990307   5.5378952  85.2191772  17.3532333   4.9721880  84.6730042
  17.4575996   5.5491085  86.0684433  10.6222944  49.6678123  25.8611145
  11.2805710  49.9017181  25.2067528  11.1296501  49.4358025  26.6389294
  55.0270996  33.3397675  71.8583145  54.3515549  32.9133987  71.3309784
  54.6163750  34.1478043  72.1659012  35.7997475  27.5392799  21.6000671
  36.0201759  27.4971161  22.5305862  35.0440407  28.1253471  21.5592632
  80.1689529  12.6039162  52.0180283  80.4252777  13.0957251  51.2378693
  79.3402405  12.9991159  52.2887421  82.2028503  26.2356148  49.9222908
  83.0388794  26.4534588  50.3344078  82.0254288  25.3371868  50.2008171
  67.0941772  61.1406441  18.4962044  67.9524612  61.2120018  18.0784912
  66.5458832  60.7045403  17.8439617  15.3451443  37.2087898  34.3062172
  15.3260450  36.4048004  33.7871132  15.3836994  37.9117546  33.6576920
  25.4179783  39.5220337  87.7324677  25.2317905  38.5948868  87.8806534
  24.5663471  39.9524231  87.8081284   4.9279075  44.3526382  23.3969116
   5.4545274  43.6982574  22.9379063   4.3865714  44.7470169  22.7130585
  25.5467243  59.1973267  30.5420742  25.5055313  59.2807198  29.5894032
  24.7360878  58.7464485  30.7783089  85.0486755  62.1078110  16.6097393
  85.7867813  62.4005280  16.0751781  84.2926483  62.1637383  16.0253429
  31.8372440  41.5563087  64.5479126  32.7901268  41.5016060  64.4754257
  31.6588192  42.4899521  64.6606369   3.7128522  39.1335297  30.0546970
   4.0400991  39.8675804  29.5347805   2.8791819  38.9026299  29.6449280
  60.5380707  26.0823612   7.8524160  60.6286888  25.1594486   7.6152353
  59.7010040  26.1298962   8.3142500  61.8748894   1.9154142  34.1574707
  62.0939827   2.7466259  34.5785599  60.9459114   1.9942960  33.9406624
  31.3651772  49.3269463  76.5913544  31.8738880  49.1116447  75.8096313
  31.3153629  50.2828445  76.5889359  27.0449753  52.0935669  62.3809357
  27.0896053  52.0352707  63.3353157  27.7324524  52.7170372  62.1466484
  24.3487835  44.2183495   8.4054785  23.5922585  43.9892044   8.9452877
  24.4863453  43.4522400   7.8483539   0.5825482  54.8508263  31.0350933
   1.2780186  54.9187851  31.6892605  -0.2201553  55.0489273  31.5174370
  64.8187866   9.7605133  59.9565125  64.4240112   9.9238863  59.0999527
  65.7567139   9.6907825  59.7785912   7.2767558  42.1016731  67.8180466
   6.9138298  41.2174644  67.7661819   6.7028775  42.5605240  68.4315262
  75.1283798  34.6326027   4.5768781  74.6073685  33.8389206   4.6987147
  76.0298920  34.3544846   4.7386098  29.4007912  43.5274315  28.5341339
  29.4903049  43.0687065  29.3694744  30.1690331  43.2592049  28.0300617
  85.1742477  69.7182388  63.8380165  84.2418594  69.8999786  63.9557533
  85.4105606  70.1874771  63.0378914  43.1673737  53.4030533  59.3786545
  43.2978134  53.0016670  58.5195236  43.9314270  53.9671631  59.4979591
  50.3290939  55.5780563   1.0388963  49.6475563  56.2481651   1.0907727
  49.9692039  54.9155579   0.4491461  43.1895599  36.2662926  63.7742500
  43.8023758  36.5131149  64.4669037  42.3250122  36.4426498  64.1453171
  54.5024300  65.9127579  75.7969208  55.3065529  66.2579346  76.1848373
  54.6543045  64.9700623  75.7299194  58.0557175  15.5036001  84.8091049
  57.9220581  16.4510155  84.7813873  58.1138573  15.2971115  85.7419586
  34.5059586  38.7176819  29.0847263  34.4905243  39.5550461  28.6212406
  35.4027328  38.4007950  28.9769993  82.9046707  34.1170578  23.2734432
  82.7865524  33.9249153  24.2036915  82.0580215  34.4628868  22.9909210
  54.6056366  69.3001633  87.0256348  54.3587341  68.5659943  87.5880127
  54.9053421  68.8901443  86.2142792   4.2584033  24.0340271  74.2102509
   4.6638861  23.5652828  73.4808044   3.3223104  24.0240650  74.0105972
  82.3205414  16.1984501  66.9406891  81.7268677  15.8517189  66.2746887
  83.0783768  16.5111504  66.4465790   7.0642419  23.6700306  30.0882053
   7.7490010  23.0395241  30.3113632   7.4117060  24.5135612  30.3779583
  46.2804909  49.5733261   6.2778225  45.8567848  50.2529602   5.7536097
  47.1611862  49.9109306   6.4410243  22.4866905  50.0601120  87.6494980
  22.2108459  49.2856102  87.1593094  22.5882435  49.7503510  88.5494766
  72.7638092   1.1498202  65.3732376  72.3189545   1.9952378  65.4332886
  72.0946426   0.5499355  65.0437012  75.4330063   6.6899490  56.4229431
  75.7898560   6.7977967  55.5413170  75.2973175   5.7466741  56.5126724
   4.2207184  17.0150776  57.0612755   3.5292075  16.6909409  57.6383171
   4.9504704  16.4112167  57.1992836   0.8316152  69.0936050  15.1620750
   0.1831318  69.7487335  15.4199696   1.1984580  69.4288254  14.3439779
  81.3565140  30.2647610  20.0589371  82.1553345  30.7132683  20.3363609
  80.7916183  30.9636421  19.7292614  61.1599884  50.5836754  32.8730087
  61.2924080  49.6882172  32.5617943  60.5704117  50.4923668  33.6215324
  85.8614655  49.3359604  78.5619965  86.8170319  49.2808800  78.5531235
  85.6079330  48.9637260  79.4066238  40.6100769  57.0392799  52.0740089
  40.7557182  56.5145073  52.8611794  39.6966209  56.8732376  51.8410759
  82.3871841  68.4816132  44.0659218  81.6836472  67.8327255  44.0514908
  82.5521317  68.6353989  44.9961777  49.7220802  11.1021786  66.6547318
  48.8540077  10.8087902  66.3779602  50.3193779  10.7264967  66.0079422
   6.1615510  62.1073074  54.3981705   6.4115100  62.9836693  54.1053619
   5.5892720  61.7774620  53.7054024  82.1056519  38.8977737  24.9007378
  82.3590698  38.4119987  24.1158581  81.1726685  39.0754776  24.7816162
  52.3255997  47.0520935  24.2524872  51.6902885  47.7169075  23.9867191
  52.5135384  46.5659027  23.4496613  56.2681046  56.9084702  35.3172379
  56.1190071  57.8505478  35.2366562  57.1735229  56.8342018  35.6187820
  70.8940430  64.9741058  64.9399719  70.0279083  64.9632797  65.3473053
  70.8440704  65.6745529  64.2895050  85.1476822   1.1316258  53.6099396
  85.4304276   0.2864768  53.9592361  84.7685471   0.9231642  52.7561073
  30.8670788  32.3832970  74.3941803  30.1706371  32.8968086  73.9849091
  30.7493553  31.4995422  74.0458298  73.8005829  44.6950188  82.6702118
  74.1361923  45.1180077  83.4605713  74.5789490  44.3443756  82.2372818
  84.3119202  29.6276913  28.8266907  83.5233231  29.0863781  28.8631802
  84.6725998  29.5854778  29.7123318  79.5917358  22.6317825  33.8364220
  79.7856522  23.5410328  34.0642204  78.6800003  22.5079670  34.1003380
  26.9388981  61.1663170  28.2930889  26.8857956  61.9694862  28.8110924
  26.0431461  61.0167198  27.9906311  56.4257812  21.3957253  86.8129425
  56.7476425  22.0415459  86.1840134  55.4764214  21.3948040  86.6906815
  42.2256203  51.9259529   4.8383355  42.1214447  52.2224655   3.9342008
  41.7161407  52.5500069   5.3552670  27.0647144  42.7301483  23.2345753
  26.2647457  42.4586029  23.6846218  27.7690830  42.2940140  23.7140408
  34.2168388  62.3954124  31.2913418  34.1408691  62.8218651  30.4377632
  33.3667488  62.5388870  31.7072716  35.1974792  49.3775139  84.9438171
  35.2914276  48.4714775  84.6496964  35.1296883  49.8858871  84.1356125
  71.5790176  12.4930716  61.7869339  72.3777542  12.4735079  61.2597923
  71.4109573  13.4240685  61.9326515  72.2874603  31.9556332  73.3253632
  72.7425690  32.6965981  72.9252625  72.9888458  31.3783188  73.6270218
   8.9816704   1.3711737  84.0233765   8.0717211   1.0752277  84.0486908
   9.4951935   0.5814292  84.1931686  41.2418327  16.7284050  47.0122643
  40.6547470  17.4837322  46.9799423  42.1051292  17.0870876  46.8065987
  41.1941452  65.4350967  41.2391815  40.4649582  64.9414368  40.8639374
  40.8047218  65.9233170  41.9645958  55.3704758  55.7488747  74.1843643
  54.8823509  56.5718269  74.1576767  55.4532700  55.5496483  75.1169357
  24.5579014  20.2736359  86.7253418  24.2372227  20.6899014  87.5254211
  25.4310322  19.9552116  86.9544220  33.4449081  32.7360535  64.1740189
  34.0852966  32.3730087  63.5621948  33.1650543  31.9870586  64.7002563
  21.8577423  43.7135963  29.6504631  21.9719105  43.9178429  28.7223034
  20.9182053  43.8134346  29.8038731  71.0685730  62.2664223  60.8395691
  70.3028870  61.7183113  60.6677094  71.0260239  62.9528732  60.1738281
   8.5221233   4.9975824  84.1358337   8.8159361   4.4574437  84.8694229
   9.2735415   5.5545835  83.9324799  58.7308578  35.7497368  10.5632105
  59.1185722  36.2216873  11.3002119  59.4751701  35.5233231  10.0055666
  22.4974060  42.5349579  22.9976940  22.8439026  43.1145134  23.6761398
  21.6518421  42.2445946  23.3396606  48.4331970  40.4113121  18.7461166
  47.9026527  39.6802025  19.0627174  48.5223198  40.2532234  17.8062782
  19.8128529  23.8673477  16.6838589  20.7091026  23.5434055  16.7734661
  19.2739124  23.2026081  17.1126919  43.6640129  57.6972046   3.3169386
  42.9392662  57.6292152   3.9385123  43.3481483  58.3024406   2.6460063
   6.3107734  27.4666309  15.7658415   6.9458361  27.6525917  16.4574661
   5.5166407  27.2075100  16.2332172  73.9863281   9.6800375  48.7615967
  74.0381546   9.8444624  47.8200493  74.8068008  10.0278482  49.1109962
  64.6443863  41.7860146  47.7146225  64.2250900  42.4363441  47.1511536
  63.9285469  41.4251556  48.2376823   3.5196710  46.9089966  56.3329391
   3.5530908  47.8656006  56.3375473   2.6968126  46.6959610  56.7731094
  33.0985069  44.5602036  55.7277946  33.3688622  44.0796661  54.9453468
  33.6297302  44.1890717  56.4322777  32.4373627  60.6898727  83.1751633
  33.1242371  60.9221954  82.5502930  32.1574554  61.5269318  83.5455933
  85.5396881  33.7003479  23.8610840  85.5996399  34.4117279  24.4987183
  84.5998993  33.5546265  23.7524624  47.4081802  63.4528465  40.7452583
  47.7842369  62.9042969  41.4336700  46.5028610  63.1519966  40.6670494
  63.7179565  40.4274368  81.6541672  63.5802956  41.0986824  82.3225327
  63.2319031  39.6674843  81.9742661  38.9434586  44.2212181  29.0182686
  39.6781998  43.8531685  28.5274220  38.6385727  43.5004463  29.5694180
  63.3523407  20.2262630  49.1899261  63.6513176  20.5773373  48.3511200
  64.0329056  20.4816303  49.8127022  47.5930099   6.4524016  45.8402481
  48.2433128   5.8174033  46.1404419  46.7618637   5.9789209  45.8754845
  51.8371048  27.8665619  34.0733719  52.0075378  28.6840706  34.5411987
  52.5596733  27.7922211  33.4499931  72.8195419   4.8895984  47.8899841
  73.3267746   5.4955363  48.4301529  73.2992172   4.8471599  47.0627365
  57.7441750  19.3477154  88.0977707  58.3853073  20.0574951  88.1351547
  57.0095329  19.7142220  87.6056290  66.8879852  59.1791191  67.2983093
  66.6814804  58.7851448  68.1458817  66.0376358  59.4290276  66.9368057
   8.6957626  15.6284056  87.9909210   8.5969076  16.2717018  88.6928024
   8.8658857  14.8029890  88.4447708   1.2476623  47.2021561   5.1330819
   1.6356257  47.6278076   4.3685327   1.5724577  46.3024750   5.0968738
  84.1486588  24.9563885  11.7216969  84.5037689  24.0676231  11.7367554
  84.9165955  25.5195293  11.6248636  10.7443600  40.0512085  79.2269592
  11.4709978  39.5062256  79.5289841   9.9825697  39.4723701  79.2561874
   1.6599631  38.1720734  46.3333778   2.3188658  37.5435066  46.0384483
   1.2250985  38.4579124  45.5299988  42.0733528  27.1139851  56.5519524
  42.2010460  26.6595840  55.7192192  41.2736778  27.6247387  56.4259338
  28.9773121  27.1402531  74.1542969  28.6689281  26.9294090  75.0355835
  28.4364033  26.6022778  73.5761642  47.3770103   7.5767417  69.2682190
  46.5401230   7.2881064  68.9041595  47.8523865   6.7656617  69.4482117
  39.4569664   0.7112410  12.1182318  39.3644981  -0.2343860  12.0021667
  40.2978821   0.9213068  11.7120743  70.3867340  49.5893707  38.9981613
  70.4296188  50.4595108  38.6016083  71.0966034  49.1009445  38.5813255
  40.2848778  41.7300491  37.2292709  39.5210724  42.2934341  37.3535042
  39.9211807  40.8486786  37.1447372  52.7118645  22.5628510   2.1282606
  52.3554993  22.7115765   3.0041120  51.9605522  22.2750378   1.6096814
   6.9660025  65.7495804  78.5684738   7.1645155  65.2107468  79.3342972
   6.1132331  65.4347534  78.2686462  86.2435303  23.2204399  22.4075985
  85.6000366  22.6987000  22.8871212  86.5887604  22.6237316  21.7435322
  39.3503113   0.6016859  32.7513275  39.6894608  -0.1418248  32.2529259
  39.0712891   1.2295231  32.0848465  32.9412193  10.6195021  88.7732239
  32.0501671  10.3663225  89.0143890  33.4897919   9.9071226  89.1015701
  66.6897354  66.3810959  36.4315529  66.8082581  65.6783524  37.0705605
  67.4493637  66.3098450  35.8535156  54.9661903  50.4333725  42.8455925
  54.6160278  51.2510033  43.1992874  55.5165367  50.7062302  42.1114922
  65.9006653  57.6461945  43.8272972  66.1025925  58.5182686  44.1663361
  66.6951523  57.1369820  43.9876900  82.6143417  59.9538727  55.2330551
  82.5452347  59.0299034  54.9927788  83.1204529  59.9528694  56.0455055
  56.5568237   6.0520983  80.0335693  56.6846390   6.9827189  79.8496094
  56.3242645   6.0211258  80.9615707  65.8709183  46.9838676   8.6555262
  65.7504196  46.4540367   7.8674960  65.8417206  46.3531685   9.3749685
  38.3420372  38.7424393  74.8593140  38.8133354  39.5375748  75.1080475
  37.5623627  38.7425423  75.4145966  69.5640335  37.6407166  70.3556976
  69.6217499  38.5766678  70.5477753  68.8142776  37.3369904  70.8674164
   9.5349035  44.9563065   6.5625744   9.7319765  45.8798561   6.7189517
   8.7804108  44.9687843   5.9736619  15.6332750   3.6816838   5.0309987
  15.1371450   3.2723572   4.3220997  16.2645874   3.0136764   5.2982874
   2.8769739  34.3887482  67.9179077   2.4320128  35.2326126  67.8395920
   2.5265565  34.0069847  68.7227020  45.2186508  43.3345184   2.2577271
  45.4586983  43.4133949   3.1809754  44.6163330  42.5911140   2.2295251
   7.5891242  67.8719330  48.7970161   6.9594536  68.1594620  49.4581375
   7.3207626  66.9783325  48.5832787  30.0088444  35.2085800   1.0134913
  30.7960205  35.6284790   0.6666937  29.3315067  35.3955498   0.3635001
  22.2615166   5.3328161  29.1758480  22.6902237   4.5649014  28.7980251
  22.5344391   6.0593724  28.6156158  63.7306862  52.6860199  55.0764275
  64.6424637  52.9754448  55.1099014  63.7543526  51.8787804  54.5625839
  25.3352680   1.6648495  58.5427437  24.4098492   1.7391714  58.7757874
  25.6810551   2.5510027  58.6494904  19.4963989  19.9365158  12.3203325
  20.0687160  19.2870255  11.9118643  18.6230793  19.5470428  12.2772541
  10.8163157  47.7431450  85.6404724  10.7012939  48.6093254  86.0312805
   9.9349146  47.3703537  85.6206741  37.3785782  48.4847031  12.1601524
  36.7688980  49.2155876  12.2617874  36.9088631  47.8553009  11.6129274
  57.4355469  21.1349487  47.2734146  57.7619820  22.0210743  47.1170425
  57.0939522  21.1597996  48.1672440  24.9509792  43.5675087  53.1349220
  24.6202545  43.3855934  52.2552872  24.3824844  43.0601120  53.7142296
  47.9738541   7.0077987  34.5837631  48.8429604   6.9922333  34.9845695
  48.1424980   7.1433978  33.6513443  21.0205688  28.3218155   2.7040861
  21.5230656  29.1363716   2.7191837  20.2052898  28.5515671   2.2582550
  55.6961555  31.0721931  54.0262032  56.0732307  30.2625580  53.6819077
  56.4467354  31.6540394  54.1458702  14.6411295   5.6536479  22.2518730
  15.1237650   5.6271019  21.4256821  13.8066397   6.0659852  22.0286312
   1.1697834   1.6243422  70.7334290   0.4238872   1.7627972  71.3171234
   1.8347105   1.2153698  71.2873688  77.2832489  64.0415573  14.7010880
  76.7740784  63.8462601  13.9144278  78.1249619  64.3547592  14.3699579
  25.9039364   6.6460738  29.4924431  25.7861004   6.6136999  28.5430756
  25.4469414   7.4422617  29.7635021  21.0756950  64.4914169  30.2299805
  21.3811398  64.6506271  31.1230583  21.1025715  65.3515167  29.8107567
  65.5985413  10.5392923  12.4690943  66.1628418   9.9484901  11.9703474
  64.7192917  10.3754501  12.1280413  60.6516953  44.6510696  64.8383484
  59.7772446  44.8785629  64.5224152  60.5123062  43.8898735  65.4017105
  83.6740112   7.7740879  61.1299858  84.4450455   8.3407764  61.1053619
  83.5437622   7.5072064  60.2200203  68.5073929  64.9581985  46.4732056
  68.4504013  65.2914047  47.3687286  68.3102722  65.7160263  45.9226837
  14.0720587  49.5914841  38.9842415  14.8227606  49.0754051  38.6903954
  14.1148748  49.5539551  39.9397469  77.1773453  12.0351648  19.1398335
  77.3172989  12.7817507  18.5573788  77.7450867  11.3485880  18.7898102
  12.3886852  66.9951248  27.5200214  12.4421902  67.0603790  28.4734936
  12.1547594  67.8775787  27.2323055  76.9649887  20.2150822  71.9786377
  77.2566528  19.6159859  71.2914429  76.1007538  19.8890381  72.2296906
   7.9005046  50.8260612  36.7468262   6.9469476  50.7426491  36.7484818
   8.0652065  51.6839676  36.3555374  46.6957588   2.6676042  75.9952011
  46.8631935   3.2185853  76.7598038  46.3163910   3.2633467  75.3491364
  70.9642410  54.3013535  45.2397118  70.3698349  54.5430946  45.9499741
  71.8003235  54.1324959  45.6740990  38.0885429  60.1239243  56.2478294
  38.8373566  59.9158211  56.8065796  37.9889984  59.3561363  55.6849594
  46.0621414  23.1266956  45.8894768  46.9008598  23.5349712  45.6747818
  45.5085945  23.8530712  46.1761742  51.8913803  37.0501785   6.1215611
  52.5850716  36.4249268   5.9115973  51.3022919  36.5683289   6.7021027
  41.3808594  37.2520676  38.8574753  41.7005615  37.9510498  38.2869949
  40.4764175  37.4971542  39.0527840   7.0012088  59.0104752  43.0088501
   6.8945074  59.7126045  43.6506119   7.5702939  58.3743820  43.4421577
  60.9127769  65.9776001  30.2286549  61.6995354  65.7000961  30.6979427
  60.2476463  66.0712738  30.9106064  69.5355072  11.0112104  22.5761395
  69.6079254  10.2662849  21.9794197  69.2206573  11.7287502  22.0263767
  56.9283142  17.1167870  58.0462875  57.1330719  18.0410328  57.9046021
  56.4749374  16.8467503  57.2476883  78.2714920  61.9660912  24.0845203
  77.3691177  62.0701599  23.7826462  78.8022003  62.3653870  23.3952160
  38.5623207  57.8932915   0.6068889  39.2318840  57.4816589   0.0605607
  38.0511093  57.1611443   0.9516405   8.8756924  43.4056931  40.1803741
   8.5399704  42.6352806  40.6386108   8.3052101  44.1202736  40.4635010
  47.0860367  35.9434509  18.8694038  46.1667747  35.9309502  19.1359138
  47.3127975  35.0214500  18.7480812  57.3383217  17.0326290  73.4238739
  56.9927788  17.3264751  72.5809708  57.6760597  17.8284149  73.8348312
  63.8292046  70.5800476  36.2753830  64.3942871  69.9226913  36.6813240
  62.9474831  70.2141418  36.3454819  49.1581039  46.5208549  21.6378002
  49.2426071  46.3965874  22.5831280  50.0318718  46.7877312  21.3522530
  12.6412430  61.5132217  25.2287483  12.9078484  62.0617905  25.9664650
  13.0025043  60.6498337  25.4294395  38.6396332   2.6671000  37.5164986
  37.8480148   3.1085641  37.2087975  39.3412323   3.3004377  37.3652458
   0.7497888   2.2333300  28.7359447   0.1516086   2.9714925  28.6196308
   0.6755010   2.0086930  29.6634407  35.4453354  21.9935036  72.1202011
  34.8323250  22.0348454  72.8541870  35.1843948  21.2113781  71.6339722
  29.2347698  53.9491119  72.6927719  29.6830177  53.3310547  72.1154404
  28.4773026  53.4643936  73.0206833  64.6940079  36.5736694  81.1011124
  64.9684830  35.6635818  81.2135010  64.9990158  37.0154343  81.8936005
  62.0117264  49.1817741  53.8800545  61.2414246  49.7211037  53.7011871
  61.7592583  48.6453209  54.6315231  79.6331863  21.4593010  85.3520279
  80.3230972  21.1467533  85.9373245  80.1013184  21.7928772  84.5866470
  48.2659225  24.5976028  33.6729813  47.3335876  24.5891972  33.8895760
  48.3323402  24.0659809  32.8797607  73.1555939  59.9656334  62.9262924
  72.5513000  60.4607430  63.4794044  72.5947723  59.5492020  62.2718506
  65.2958145  54.1309052  28.1277065  66.1033554  54.6308746  28.2466240
  65.1063843  54.2008629  27.1920509  14.2880077  18.6492290  84.7905731
  15.2060118  18.8305416  84.5890121  13.7965307  19.1459103  84.1363602
  84.8147964  67.4648895  88.2519379  84.8476181  67.9999619  89.0449371
  84.8542633  68.0972900  87.5344849  74.2445068  19.6679287  22.8270969
  74.6822128  19.6036301  21.9782677  74.8417358  20.1868858  23.3658371
  82.9153214  69.9646530  29.4374733  83.8046875  70.0695267  29.0994453
  82.3832932  70.5487976  28.8971424  53.6994095  18.7393456  34.6982574
  53.3514633  19.6305809  34.6688385  53.5169716  18.3821926  33.8291245
  34.7310448  66.4216919  53.3930359  34.4781494  66.1321487  52.5164337
  34.6483650  67.3748627  53.3635826  11.3379307   5.1918559  77.7897110
  11.0218163   4.3611212  78.1449280  10.9379864   5.2489595  76.9219437
  16.9649124  57.1098518  16.8797474  17.6636581  57.1525879  16.2269402
  16.7848492  56.1747856  16.9769917  41.7987328  11.3117971  67.9239578
  42.5570374  11.7931662  67.5930634  41.9021225  11.3267069  68.8754425
  23.0451012  46.9919014  80.8430405  22.8014145  46.0925522  80.6239090
  23.6597614  46.9028091  81.5713882  40.3588829  63.3051796  22.5950699
  39.5312881  62.8927422  22.8424759  40.3299103  64.1676483  23.0092525
  10.9040337  60.0032043  82.9398117  10.9550381  59.1254539  82.5614090
  11.3546972  60.5631142  82.3076401  39.7850685  47.4154320  81.3160400
  39.4105377  48.2789955  81.4898529  39.1264687  46.7996292  81.6373978
  15.4721060  31.7350540   2.3318307  16.3089828  31.2805939   2.2352004
  15.4184122  32.3039322   1.5638930  77.1712036  61.4003906  12.5760813
  77.5731964  61.1495476  13.4077711  76.2295837  61.3433342  12.7383442
  29.4583702   5.2693501  11.9492188  30.1748371   5.8541265  11.7023487
  29.1415405   4.9147744  11.1184797  83.4888840   5.7455010  33.3603935
  82.7768631   5.8587375  32.7307587  83.8087845   6.6330037  33.5223694
   4.3525343  47.4840889  36.2619896   3.9789078  48.3623505  36.1892548
   5.2812262  47.6015739  36.0620880  19.9135723   5.2373929   2.2229407
  19.8530254   5.6484389   1.3606143  19.1190357   4.7081170   2.2923005
  59.4108734  24.4295940  69.4639511  58.6923332  24.5216427  70.0896149
  59.1840401  25.0247898  68.7494431  36.2598076   9.9311399  74.1997604
  35.5646133  10.0312166  73.5494385  36.0395622  10.5622931  74.8848648
   3.7333148  26.4323616  12.0900612   4.4946523  25.8696899  11.9486475
   4.0943117  27.3179226  12.1312256  45.8468132  54.9000053  76.7023621
  45.0174446  54.9852829  77.1725769  45.7936783  54.0445442  76.2762222
  71.0691986  32.9791145  23.7859764  71.4810562  32.6793404  24.5963688
  70.3394241  33.5262337  24.0763531  18.1954060   0.4972050   8.7140217
  17.9858742   1.1289194   8.0260792  18.7464504  -0.1546705   8.2808456
   4.3163419  12.4150906  65.5417862   5.2234287  12.2086029  65.3164215
   4.3761091  12.8726397  66.3804245  76.5493546  17.5378876  35.6463165
  76.4328461  16.6033077  35.8172455  77.4899292  17.6392689  35.5004768
  20.9957905   0.1068930  86.9872131  21.7974491   0.1810601  86.4694519
  20.2898178   0.2564910  86.3583603  80.2388687  62.2657547  14.7103004
  79.9106293  62.6826324  13.9136181  80.9645615  62.8233376  14.9908438
  71.1088867  66.0859146   9.3349514  70.8759308  65.9836960   8.4121752
  71.6533203  66.8728409   9.3587828   7.4403601  31.0684338  51.5004463
   6.7891164  31.7036095  51.7982140   6.9248323  30.3212109  51.1969337
  55.8463974  61.5526505  28.2274437  56.5372696  61.5047340  28.8882256
  55.2454643  60.8439674  28.4573975  66.0552673   9.3585844  46.1352692
  66.1843491   9.1032419  47.0487061  66.3895569   8.6175814  45.6298981
  73.0781631  70.5976334  54.8276596  72.6007996  70.0581436  54.1973381
  73.8829269  70.1089325  55.0001869  85.9978943  54.5328560  38.3944054
  85.7593460  53.6268234  38.5904388  85.4909286  54.7501068  37.6120911
  72.8139572  61.6505203  10.6248951  72.8224030  61.7951469   9.6787214
  73.5820160  61.1038094  10.7904892  22.6898098  36.7282906   5.0877361
  23.4860210  37.2592430   5.1069980  22.8203449  36.1273613   4.3542013
  20.1946659  31.5418091  63.4468994  19.5179291  32.2170105  63.3983231
  20.7095394  31.7739143  64.2197266  73.9010620  45.5713158  64.0489426
  73.5039062  45.7952576  64.8905716  73.3274612  45.9759750  63.3981934
  78.0918579  45.2305260  14.3671703  78.0587921  45.1362228  13.4152012
  78.1182098  44.3320007  14.6960936   1.9058157   6.8770890  13.9027987
   1.8661283   7.7638450  13.5445795   2.8364980   6.6538897  13.8871679
  83.2122803  24.5174465  30.9960403  83.5150452  23.6187534  31.1261120
  82.6268539  24.4659729  30.2404881  49.3166847  38.6090851   7.6415114
  49.5302238  39.1833916   8.3769045  49.7828789  37.7947006   7.8303862
  61.2614746  55.1960983  78.6433258  61.9097519  54.5059509  78.5031052
  60.5661087  55.0028534  78.0145493  12.9692392  45.6643677  25.7260532
  12.8971062  45.1627998  24.9139843  12.0805063  45.6738853  26.0814342
  60.0505791  36.8297157  84.0552216  59.1390038  36.9176102  83.7767639
  60.2286682  35.8908997  83.9992142  45.3675728   7.5052500  35.8370399
  44.8671989   7.2239189  35.0710716  46.2677307   7.5810170  35.5204849
  45.1499405  32.0064621   9.0350876  45.5200920  31.8438206   9.9027090
  44.9609642  32.9447899   9.0273657  86.6037598  56.1277542  20.3135262
  86.7891998  57.0391922  20.0874081  85.9158325  55.8645248  19.7022190
  59.9020805  48.4619904  67.0528870  60.0177574  49.0700569  66.3227463
  59.1562538  48.8119888  67.5401993  32.7772827   1.6987970   7.9037681
  33.5073357   1.9384131   8.4745941  33.0180550   2.0503459   7.0466366
  60.7072716  20.7324638  44.7062340  60.3585892  19.8976612  44.3935699
  60.2479706  21.3931198  44.1877670  66.6215210  14.4399834  20.1870461
  66.3071365  14.8006229  19.3579903  66.7192459  15.2020140  20.7580032
  51.1105499  43.9198456  62.0472946  51.6555595  44.5077477  62.5703278
  51.2948761  43.0480232  62.3968391   1.4232318  32.6751595  36.8202629
   0.5460060  32.4813156  37.1506119   1.4728515  33.6310692  36.8189468
  86.5330353  38.3569946  37.0195122  86.6519699  39.0487289  36.3686752
  85.6259003  38.4540939  37.3092003  57.8451233  65.3728943  63.9125824
  57.8846321  66.1635132  63.3744354  58.7271080  65.2848053  64.2739410
  19.8591919  65.5234146  12.9131413  19.2096157  64.8260803  13.0025978
  20.1939297  65.4260101  12.0216837  19.9582062  56.8908272  50.3329926
  20.5564728  56.2222366  49.9993820  20.4612522  57.3473778  51.0073357
  23.4816284  68.9408264  76.3032837  22.7548904  69.2850571  75.7840652
  23.2489414  69.1485443  77.2082367  18.5099945  15.0399332  67.4257050
  19.4123383  15.0554285  67.1066971  18.3401966  14.1180220  67.6193008
  81.8518753  55.3496017  80.7590103  82.3828278  55.8738785  80.1594543
  82.1425476  55.6155548  81.6313705   6.6541181  42.7752419  74.9139938
   7.1446166  42.1224060  75.4134445   7.2309937  43.0017586  74.1845169
  85.3452911  34.7204590  81.5158310  85.2538757  33.9171906  81.0033493
  84.8364334  34.5571404  82.3099442  51.8366127  36.5326004  76.1025467
  50.9645004  36.6240616  76.4863281  51.9914398  37.3662338  75.6583405
  61.0673790  62.2563820  36.8244781  60.2722626  62.5701904  37.2552223
  61.2161522  62.8792725  36.1130676  85.3759842   7.0784097  42.1060867
  85.1875687   7.4639363  41.2504578  84.5431747   6.6988182  42.3863869
   1.2186924  55.6744843  46.5663109   1.9029609  55.0225945  46.7181320
   1.6890069  56.5060730  46.5071678  21.8677139  55.4865837  11.5254955
  21.9875641  54.6118698  11.1557016  22.6651039  55.6442261  12.0310125
  53.7680931  24.0658989  56.1596222  53.6026764  24.9674320  55.8837433
  54.2671776  23.6824760  55.4384232   6.7953153  57.1826782  71.7537003
   6.0132070  57.5293999  72.1830292   7.4538469  57.8682671  71.8656769
  24.7926464  51.8957481  18.3855114  25.0511551  51.2897415  19.0798912
  25.3491173  51.6606598  17.6430111   1.1685239  71.1051254  55.4979515
   1.8256441  71.0895691  54.8021164   1.3046412  70.2861023  55.9742851
  12.1749105  70.4276047  77.9120560  11.7726898  69.5757523  78.0817337
  11.5239372  71.0633087  78.2092819  30.8464661  67.4396591  50.4828339
  30.5784168  68.3328018  50.2667923  31.5846806  67.2634277  49.8995552
  66.6754456  42.0823555   0.3393445  66.0248260  41.3869972   0.2423593
  66.1687469  42.8929710   0.2904416  53.2667847  70.6065674  44.8785057
  53.1763268  69.7089920  44.5584946  52.9692574  70.5679016  45.7874680
  70.0571518  28.4566593  20.8876190  69.9385300  27.6024017  21.3028374
  69.3057632  28.5443058  20.3011360  60.2597084  39.9335442   1.0249861
  60.0514259  40.6024284   1.6772459  59.9855690  40.3175621   0.1921538
  73.6513748  43.1255760  24.5003166  73.1039276  42.3564034  24.6581211
  73.4993896  43.3431244  23.5806408  59.9348259  32.3645744  85.0753098
  59.2710266  32.9709282  84.7467575  60.4554100  32.1387024  84.3044586
  70.6615906  71.1762238  80.1099091  71.4724731  70.7465363  79.8377533
  70.2184982  70.5273514  80.6565933  69.9707489   3.4831548  68.1437149
  70.8402634   3.3154871  68.5071182  69.7650452   4.3770161  68.4174423
  32.7063141  42.2688217  85.1041565  32.7168121  41.4183540  85.5432739
  33.6289825  42.5139961  85.0348511  84.8319397   4.7323222  46.3250198
  84.3687286   5.3235979  46.9183693  85.7473679   5.0065250  46.3800430
  38.4931488  13.6045542  63.9974327  39.3987160  13.8289442  64.2115097
  38.4350929  13.7217741  63.0492134  48.5696182  59.0785370  12.5069370
  47.8464050  58.6033554  12.0977964  49.2405128  59.1263313  11.8258734
  53.7950287  22.0289764  45.6634178  54.2520485  21.8831272  44.8351097
  52.8981400  22.2441654  45.4074516  58.8113556  42.1175804  56.8338318
  59.2157516  42.0084190  55.9731445  58.6436501  41.2244949  57.1346779
  81.8699265  34.5145035  35.8626556  82.5873032  34.8118896  36.4222755
  81.0838470  34.8854332  36.2635422   0.9012793  24.3231144  61.8047981
   0.0474700  24.7107506  61.6124954   1.2071707  24.7909260  62.5818520
  78.0411072   5.5130820   3.7057152  77.6397018   6.0796571   3.0468569
  78.0052795   4.6368766   3.3220334  14.0978451  59.2472458   5.3389330
  14.8409920  58.6642609   5.4941554  13.3364792  58.6672058   5.3285728
  52.6665955  43.4195099  68.1745224  52.5505028  43.8873596  69.0014801
  52.2908554  44.0024109  67.5147629  75.7045975  63.3075447  54.5474129
  75.1450729  63.9682732  54.9555931  76.1538544  63.7757378  53.8437157
  27.4996109  48.9327049  67.4774704  26.8496552  48.3386917  67.1020584
  28.0829105  49.1415558  66.7478333  47.1048927  69.8089905  47.1636162
  47.4972382  70.5508270  47.6240273  46.1855087  70.0528030  47.0562973
  65.3455276  65.4023056  82.5435181  66.2705536  65.6472321  82.5675278
  65.0678864  65.4250717  83.4592896   1.3324560  62.8070526  65.0239639
   0.6623515  62.9179726  65.6984177   1.9541675  63.5168190  65.1850204
   1.7477685  28.2656460  66.2081375   2.1517832  29.1333237  66.1963043
   0.8090415  28.4375095  66.1340714  40.9293785  54.6983490  76.0719223
  40.8826942  54.4230118  75.1563644  40.0299950  54.9369698  76.2964249
  68.5358887  48.9596786  36.6228790  68.2698517  48.6286316  37.4807053
  68.1573257  49.8376427  36.5770340   6.2144675  43.3279686  28.3619347
   6.8877492  43.9702911  28.1375599   5.8181300  43.0933685  27.5228214
  83.8109970  14.9599829  18.4929409  82.9761505  14.9148140  18.9590149
  84.2832870  15.6767654  18.9164906  66.3763428  29.2927399  85.4699249
  66.8612671  28.4981213  85.2470856  66.5337830  29.4147797  86.4061661
  73.6793900  56.7834244  31.8959999  73.1001968  56.0234489  31.8393383
  73.0871506  57.5293274  31.9914970  85.9580765  66.4302902  46.4060173
  86.3448105  66.8297195  45.6268349  85.0619583  66.2167664  46.1460152
  77.7767181  41.5277977  80.8170471  77.5740128  41.0391502  80.0193176
  78.7206573  41.4180374  80.9318161   9.9413347  61.4076195  88.1123505
  10.2744017  61.4701500  87.2171478   9.8764553  62.3157845  88.4077454
  79.4447098   5.4817109  16.7360897  80.3599548   5.4943953  17.0160789
  78.9546356   5.7698116  17.5061932  73.1141586  33.1859589  88.1448441
  72.4898987  32.5826874  88.5480728  73.5727005  33.5855370  88.8839722
  25.5940514  37.6498756  17.0896988  26.1880341  37.5754166  17.8366051
  26.0695305  37.2450371  16.3642635  49.0203056  40.1142273  82.3810577
  48.4880562  40.6095238  81.7584610  49.2695465  39.3216667  81.9057083
   6.1662707  29.6245899  29.7399406   6.8668089  30.2751808  29.7869434
   5.8252392  29.7037754  28.8490658  33.9588890  14.6720505  16.5729885
  33.5747719  15.1439581  15.8340788  33.2762489  14.6811247  17.2439194
  47.6201172   2.0720475  21.1234589  47.9084740   1.4245150  20.4801998
  47.4945183   1.5701519  21.9287891  11.6848059  42.9898109  20.0957146
  11.2302561  43.0102463  19.2535744  12.4773254  42.4799538  19.9278126
  75.8276367  45.2581482  55.8787231  75.4269943  45.3422890  55.0134850
  76.5953751  44.7049980  55.7344055  51.4822617  53.9104691  64.4932861
  51.0255737  53.4126091  65.1713715  52.1365623  54.4207458  64.9705048
  70.7006073  21.5982780  63.7935829  70.5931473  20.6664391  63.9842644
  70.9271622  21.9907131  64.6367264  58.3261108  19.4395199  74.1507034
  58.9354935  20.0337257  73.7127533  57.9803200  19.9486485  74.8838120
  44.7123337  54.9773827  57.0016899  44.4753036  54.4092751  56.2686806
  45.5989876  55.2745972  56.7973900  47.8949509  32.5568314  32.9218826
  48.1667747  31.6483612  33.0523643  47.6013718  32.5905838  32.0114441
  47.8241386  22.8324051  60.5354881  47.4169846  21.9665680  60.5634918
  47.9903259  22.9889774  59.6059189  66.3385544   5.5620856  28.4522228
  67.2858658   5.4533548  28.5359898  66.0011826   4.6698637  28.3725395
   4.7292366   5.5086207  60.3478241   4.8965497   5.0928631  61.1936264
   5.2326360   4.9884763  59.7215080  72.1119614  29.0088120  59.3536644
  71.7516403  29.8948994  59.3183327  72.9654617  29.0801067  58.9262466
   2.3066609   3.4756923  63.6495399   3.0506442   2.8925881  63.4988403
   2.3812809   3.7260861  64.5703888  79.2371292  19.3657761  63.0156517
  78.3152008  19.1775780  63.1913528  79.6884155  19.1299381  63.8261757
  42.6523323  26.3315010  77.9075241  43.4253159  26.3232861  78.4720230
  42.0190659  25.7746563  78.3604355   1.0417547   7.9004903  19.0910549
   0.5312297   7.1837082  19.4676437   1.8624741   7.8945699  19.5836163
  25.8059025   2.5676191  71.3979263  24.9189873   2.9061103  71.2752914
  25.8715973   1.8388710  70.7807999  62.4810486  60.5781441  86.1708755
  63.2632446  60.1440659  86.5114212  62.3650169  60.2100182  85.2949448
   7.7392502  64.5872955  16.0828876   8.4983816  64.3126602  15.5685654
   7.6679754  63.9295578  16.7746525  59.2798691  54.0296860  76.5653915
  58.3800087  54.0140228  76.8913269  59.1912956  53.9661598  75.6144180
  83.4163132  37.8798294  13.5201082  83.1488571  38.7779388  13.7152977
  82.8909531  37.3397903  14.1105232  20.3000641   2.5323977  17.3451500
  19.6507015   1.8753300  17.0945053  20.5210705   2.3172431  18.2512932
  37.5896416  36.9957466   7.9357572  36.8473473  37.5868797   7.8100910
  37.7720032  37.0364799   8.8745422  55.8442688  36.4089127  37.7835960
  55.2058182  36.7969589  37.1852417  55.5835991  35.4902229  37.8490944
  14.6043758   9.0697470   4.1919613  15.4422588   9.3083782   3.7954285
  14.5844498   8.1135645   4.1525950  66.1443024  36.4886360  60.5040665
  65.5194702  36.8944283  59.9031029  66.6901855  35.9359550  59.9448013
   6.2920985   0.2345191  83.5118256   5.9773002   1.1166161  83.3142395
   5.4960866  -0.2897313  83.5999069  45.4181404  21.8362579  18.5913372
  44.7210159  21.2083664  18.4015884  45.0081024  22.6928463  18.4715137
  45.0107727  66.5684128  38.9961395  44.4522629  66.2253647  38.2985649
  45.3252296  67.4077759  38.6602516  54.8911705   1.9268314  13.1738472
  54.9945335   1.8404530  14.1215219  54.2217407   2.6025364  13.0665331
  76.1140594  36.3761749  78.9736404  76.1675873  35.5490875  79.4524841
  75.8134766  37.0106163  79.6243057  59.9961243  29.9433498  17.3221931
  59.1928368  29.5941429  16.9361668  60.1686859  29.3739986  18.0720558
  56.3131218  64.4157715  13.0463543  56.4425049  63.8399544  12.2927427
  56.1780891  65.2831268  12.6646624  16.8402824  44.3793411  12.0324707
  16.4592838  44.7405663  11.2321033  17.0002613  45.1427498  12.5873070
   4.4715948  58.6760139  30.5033779   4.7320881  57.7955742  30.7739391
   3.5149055  58.6619301  30.5312977  49.2659798  16.8089046  35.9030228
  48.7392273  16.3159122  36.5320892  49.9266167  17.2497749  36.4372711
   7.3480577  43.3949928  19.2496586   7.1136160  43.8598785  18.4464474
   7.9888043  42.7413025  18.9697208  54.2547989  65.6025543  70.6220093
  55.0390587  65.5396957  71.1671829  54.0125275  64.6935577  70.4451981
  17.1775608   7.0078192  68.7032013  17.5686398   6.4373021  68.0415344
  16.7769661   6.4067054  69.3312225   0.6441882  44.2414017  59.9907227
  -0.0913970  44.5373688  60.5269585   1.4152162  44.3924828  60.5374603
   4.5892816  34.2814636  62.5702744   3.7917740  34.5052299  62.0905457
   5.2979684  34.4534340  61.9502563  33.8289871  13.5656776  77.1129608
  33.5653687  12.8651037  77.7095642  34.1283646  14.2699347  77.6879654
  37.7218819  40.7485809   7.0941682  38.3209648  40.2565117   7.6555948
  37.6446075  40.2167053   6.3021035   7.0337086  29.1281548  78.2710571
   6.8204942  29.8051205  78.9133072   6.4198008  29.2781925  77.5521393
  76.6126938  27.4627018  65.2019958  76.9484787  27.0013771  64.4334564
  77.3909302  27.8344975  65.6171494  28.4544067  59.0113564  29.2593994
  27.5754318  58.7424622  29.5264816  28.3094063  59.6111145  28.5276241
  15.8610563  14.3119440  59.5627975  16.4037533  13.5437460  59.3850822
  16.4102230  15.0557022  59.3148613  48.7552490  53.3214035  76.3199081
  48.7417717  53.7032089  75.4422531  48.9094009  52.3882217  76.1727982
  38.1590118  55.4825172  46.5681229  38.8996124  54.8809738  46.4913940
  37.9711647  55.5127106  47.5062218  40.7078934  31.1724510  77.3947601
  40.0111771  30.5284824  77.5217361  41.5052643  30.6494255  77.3118286
  66.6683731  40.1329994  46.8575706  66.2174759  39.7149582  46.1239738
  65.9966354  40.6712494  47.2762413  74.9208984   5.8945761   3.9010851
  75.4447556   6.2495537   3.1828938  74.9964447   6.5466743   4.5977149
  76.2496033  33.5740585  18.4852657  75.4583282  33.3299828  18.9654083
  76.3876114  32.8544083  17.8693981  33.5897408  62.3451653  47.7049599
  32.9400864  62.2259521  48.3977585  33.8064194  61.4560814  47.4242363
  76.1650467  69.7271118  62.4231949  76.1011734  68.7781525  62.3153534
  75.8260956  69.8915176  63.3031464  19.6056976  30.5899315  23.5962639
  20.5314960  30.7936172  23.7290897  19.5597038  29.6355991  23.6542759
  65.6543579  16.7005558  39.3178101  66.0384979  17.4544983  39.7652893
  66.0877304  15.9426975  39.7103271   4.3148532  36.4283562   4.2367153
   3.9509392  35.5436668   4.2031941   5.0384483  36.3662224   4.8602390
  15.1582327  62.3227081  23.2348766  14.3629351  62.1631546  23.7430859
  15.8703003  62.2227669  23.8667011  84.0108871  67.0085068  29.6402569
  84.0406113  67.9406738  29.8557053  83.6825180  66.9807510  28.7415733
  51.8941078  10.8527012  61.5138206  52.8347054  10.7221451  61.3935623
  51.8122902  11.7658577  61.7889252  62.9665947  24.7446423  25.8943710
  62.9542999  25.3606930  26.6268749  62.1766853  24.9509220  25.3946476
  33.6682091  21.7672157  13.8270006  33.8484688  21.8193398  14.7656269
  33.0103836  22.4449329  13.6714487  39.2241592  28.1887951  60.6441574
  39.8774376  28.8590584  60.8446732  38.9718132  27.8372746  61.4979630
  26.8492031  15.7655582  80.9515457  27.2128658  16.2276745  81.7068176
  27.3586044  14.9569683  80.8974609  35.9889908  66.7314758  64.1467590
  35.2210884  66.1684647  64.2445984  36.5412254  66.5160980  64.8983459
  13.6478872  47.7034531  22.5610123  14.5035219  47.4650764  22.9178028
  13.2709265  46.8737793  22.2681427  36.2030830  32.4542770   0.3967941
  35.9633179  31.9373302   1.1658925  35.5738487  33.1755295   0.3873267
  54.6238327   1.9938600  60.0411224  54.5665512   2.7583952  59.4680290
  54.8765793   2.3510761  60.8924446  83.6745987  19.3286800  79.7464523
  83.4039536  18.9073982  78.9306641  84.5930405  19.0802097  79.8510971
  86.0539932  56.4914474   3.1745665  85.2921295  56.2374268   3.6953971
  86.2131271  57.4048119   3.4126325  29.6187286  60.8130035   5.1880298
  29.3408813  59.9703217   4.8289757  28.8049164  61.2380638   5.4587040
   0.9967394  10.0518188   9.4087477   0.1356981  10.4683809   9.3724670
   1.3164654  10.2392015  10.2912979  20.7229481  54.3973160   0.9722392
  20.7584267  53.4413986   0.9376500  21.6267185  54.6760254   0.8247543
  52.2275581  51.1920204  63.7942200  52.2066574  52.1445045  63.7016792
  51.6329575  50.8723412  63.1156311  68.5649719   7.0190506  79.0468445
  68.0490570   6.6504035  78.3297958  68.9980240   7.7815166  78.6629944
  65.6680069   2.5271804  67.9218216  66.3638458   1.8708777  67.8857574
  64.8596573   2.0251555  67.8180237  63.4828110   9.8840799   2.7441905
  64.3283157   9.8021336   2.3030174  63.2747650  10.8169308   2.6918600
  83.5791321  50.7484398  69.9624634  84.3393173  50.9612579  69.4211197
  83.7524872  51.1800346  70.7990723  33.4466591  46.3986244  82.9113770
  32.8096657  45.9218063  83.4434586  33.5683136  45.8512383  82.1356201
  49.8800163  20.3037758  24.7686634  49.7963905  19.9265709  23.8929043
  50.4732018  21.0462189  24.6540222  21.7938919  41.3453407  38.5110703
  22.4614964  40.6676826  38.6174469  22.2206783  42.0215073  37.9848709
  17.8366776  53.5051918  25.4539204  18.6615887  53.9340515  25.2262497
  17.2924004  54.2070274  25.8108807  74.8999176   1.2189604   9.9552135
  74.6356277   0.7819998  10.7648125  75.6939850   0.7589844   9.6829920
  51.6792183  11.9349289  52.8493004  50.7676544  11.8114643  52.5846519
  52.1853065  11.7522135  52.0576401  22.8812599  33.2988243   9.2550287
  22.0473919  33.7242317   9.4548464  23.5261784  34.0049858   9.2956257
  25.3074112  35.7772713  75.2679062  24.9041309  36.5390396  75.6842117
  25.5507355  35.2067146  75.9969406  52.8716240  22.3326817  32.4355850
  52.6211891  21.5138607  32.0077438  53.0201416  22.0897427  33.3494530
  28.2317047  59.1566620   7.3823857  28.3846722  58.4774780   6.7254677
  28.3977184  58.7223511   8.2190714  10.5870953  57.0685501  34.2155228
   9.8372984  56.6896782  33.7567253  11.2983246  57.0411644  33.5754929
   3.6526427  54.9363365  62.9536057   3.5111547  54.9183846  63.9001198
   2.8856192  55.3908997  62.6053543  74.7734222  62.8179741  70.4582825
  73.9312057  62.3631592  70.4513474  75.3426285  62.2763405  69.9115982
  82.7206345   7.5788260  78.5024414  82.7886276   7.9191527  79.3945084
  82.8866730   6.6402903  78.5908432   3.4154851  40.9707947   3.6358688
   2.5296021  41.0207825   3.2767813   3.9864423  41.1669006   2.8930483
  30.7908077  67.0352478  28.3163872  30.2542763  67.1910782  29.0936165
  30.9319363  67.9057999  27.9442959  58.1441116   6.5994334  18.7273178
  58.4525871   5.7655764  19.0819397  58.8920593   6.9433703  18.2389374
   9.2530870  51.7568817   5.3294206   9.9584913  51.1152992   5.2457180
   9.7030029  52.5937958   5.4451003  66.0371170  12.8465643  27.9971962
  65.6550903  12.3798304  28.7404633  65.9491653  12.2395229  27.2623501
  42.9470482  29.7547264  76.8823090  43.1793633  30.0298367  75.9954147
  43.0170746  28.8002834  76.8630829  54.7902908   5.7924142  36.3344536
  54.0102806   5.3093266  36.6072845  54.9704742   6.3872113  37.0624504
  82.3360672   8.1641216  44.8916740  81.5537415   7.9444075  44.3857841
  82.5067444   7.3841672  45.4196625  15.3951902   4.8398538  25.0283089
  14.6538162   5.2570109  25.4671440  15.4567471   5.2874088  24.1844273
  62.6505814  58.0408783  17.7800236  63.4940758  57.6818275  17.5046444
  62.1872253  57.2964439  18.1638889  58.5492439   9.3166924   8.0998564
  57.9531364  10.0074472   8.3892479  59.0449486   9.7128181   7.3832049
  10.1660328  45.4407082  88.0650558   9.3223219  45.8563080  88.2429886
  10.4248133  45.0559082  88.9024277  52.7740822  20.8171844  40.7937584
  52.4450531  19.9769974  41.1132240  53.4878960  20.5847111  40.1999054
   8.3209085   3.6391854  61.1616173   8.2118473   3.6848798  62.1114845
   8.9227791   2.9076133  61.0245552  31.9400730  42.2512093  82.0918732
  32.2267723  41.8053284  82.8888855  32.7300949  42.6759148  81.7576370
  17.6763916  49.0620995  19.0804577  18.2791634  49.7531662  18.8059978
  17.2273502  48.8025131  18.2759666   8.5364075  61.4536095  12.4381752
   9.4909201  61.4660492  12.5087624   8.3341398  62.1415939  11.8041449
   6.6175423  66.8321838  68.8011551   6.5256186  67.2702332  69.6472626
   5.8547873  66.2565842  68.7453308  65.8091202  70.6725006  63.9776840
  65.9571991  71.4756317  63.4783974  65.2269058  70.1509323  63.4252167
  37.1461868  52.4614677  63.3731918  37.6592140  51.7293205  63.7152405
  36.4333687  52.0477180  62.8864365  35.8555450  38.3212395  75.9797287
  35.3078575  38.9656334  76.4280930  35.3650017  37.5020180  76.0465851
  56.1289062  66.5383224  33.6466599  55.8268661  65.9506149  32.9541245
  55.3716812  66.6375961  34.2237091  50.3636894  52.7553940   5.9477525
  51.2429771  52.6336441   6.3058915  49.7796516  52.4171982   6.6265402
  24.9018936  56.1373405  27.5717468  25.3484287  55.3746872  27.2040462
  24.4892006  55.8108215  28.3713093  70.9581680  63.2638474  26.9773407
  70.5247116  63.4650078  27.8067284  70.3172150  62.7444458  26.4919205
  82.3632202  33.7990417  33.4815216  81.6202164  34.2879028  33.1277008
  82.2439346  33.8356438  34.4305534  59.3664284  32.0196228  70.2021332
  59.0702858  31.7088585  71.0576782  59.0277214  31.3736477  69.5822754
  30.3245354  47.5540886  58.1827888  31.2608280  47.3769150  58.2733345
  29.9085884  46.9774971  58.8236961  25.7176170  61.2859344  45.2160225
  25.6135750  61.0019302  46.1241798  25.1121635  62.0216255  45.1242828
  36.9703331  48.8312759  57.4746780  36.0153809  48.8968658  57.4748840
  37.1777763  48.3536148  58.2778206  14.1992989  60.1568680  53.6338425
  14.7820454  60.3635101  52.9031334  13.3202143  60.1935196  53.2568855
  49.3579559  24.9960098   7.5801463  48.5888634  25.3174057   7.1095819
  49.1516418  24.0831604   7.7810736  11.2804680  62.5380516  63.7416420
  10.3582468  62.2915192  63.6711998  11.6763954  62.2185936  62.9308281
  74.0418243  68.5055161  57.8549690  73.5922165  67.9061890  57.2592354
  73.4773026  69.2777786  57.8889465  27.8370552   4.1897035  66.9750977
  28.6787529   3.9351299  66.5969849  27.9078941   3.9515138  67.8994827
  76.0162811  48.5772285  52.5395851  76.9621658  48.7219200  52.5150490
  75.6724243  49.1203728  51.8303680  25.4960747  50.7513351  58.1222839
  25.1063843  51.3726692  57.5072098  26.3004284  51.1784744  58.4169006
  84.4424133  50.2505074   1.0267725  84.7209396  49.6338196   0.3497566
  84.1622086  49.6961632   1.7550735   0.6410875  24.5697784   9.9216881
   0.2181907  25.2536812  10.4409847   0.6413871  23.8013573  10.4924421
  58.4385376  36.6045647  69.0215988  58.3247910  37.2981186  68.3717728
  57.5586510  36.2503967  69.1504211  41.5336151  30.6667290  43.9371262
  41.2924995  31.1507664  44.7269363  40.9071350  29.9440498  43.8984947
  31.8967972  49.3040466  27.3074532  32.3243141  50.1147614  27.5835114
  32.5199776  48.6145935  27.5366478  32.1431770  18.4495564   5.0599146
  32.5090485  18.8825130   4.2886057  32.1913795  19.1102314   5.7508688
  43.6673431   7.2308793  12.1457462  44.2649078   7.7967238  11.6569014
  43.1483650   6.7916803  11.4719534  70.0737991  48.1192818  89.3582993
  69.2661362  48.2608223  88.8644714  70.6596680  47.6834030  88.7394257
  76.2960892  37.2652016  53.7483482  76.4640808  37.4320107  52.8208885
  75.7770996  38.0160713  54.0365829   9.4026985  35.0296364  66.2466049
   9.9779215  35.4391060  65.6003189   9.3300543  34.1192741  65.9598999
  84.5596542  57.4370461  33.7548485  84.6978836  56.5403099  34.0597916
  84.0777664  57.8600922  34.4655190  30.1760006  27.9335384  18.1685925
  29.9986687  28.5367298  17.4468269  29.7056084  28.3069954  18.9139061
  72.5739899   9.7629824   3.9073193  72.4234848  10.3185873   4.6720958
  72.6182251   8.8748188   4.2614951   9.1280813  48.5735703  88.2787247
   9.6474190  49.3776321  88.2818222   9.4585619  48.0721130  89.0240784
  36.2063370  68.5252991  56.2342720  36.4149895  67.6114960  56.0402222
  36.5646400  69.0151749  55.4940910  28.5925045  48.2819099  56.2716217
  28.7999992  47.7189941  55.5257645  29.2368641  48.0435829  56.9381294
  33.9711914  63.5936356  80.6645660  33.1397629  64.0163498  80.8796844
  34.3310204  64.1217041  79.9518967  25.6307011   9.1985493  37.6072388
  26.2313938   9.5529537  36.9516487  25.2245617   9.9702177  38.0019646
  16.1820946  54.6686172  74.0602875  16.1157818  53.8032417  73.6566086
  16.6969528  54.5237808  74.8541260  53.4030266  58.9494972  38.3179092
  52.4740028  58.7781372  38.1636887  53.8585358  58.3009644  37.7811165
  35.6779175  20.5968857  75.6718063  36.4876671  21.1057472  75.7117615
  35.1474686  21.0423203  75.0111694  34.4467049  52.6204414  21.7813625
  34.8495483  52.6220207  22.6496639  34.8424911  53.3674164  21.3323498
  68.0137253  54.6392937  22.7266331  67.5864105  55.0290909  21.9639435
  68.9434280  54.6254654  22.4992733  17.1201420  19.4205132  58.9377823
  17.0496254  19.5765934  57.9960289  17.0218277  20.2871113  59.3322105
   8.7280407  49.3084373  40.3427582   9.4488249  48.7745399  40.6769066
   8.0951281  49.3325653  41.0604439  59.6043549  28.9815311  46.8802567
  60.5316391  29.1016521  46.6754417  59.5667572  28.9938889  47.8366394
  56.5546455   9.6682034  77.6044846  56.9430428  10.4670553  77.9611588
  55.9134369   9.3992538  78.2623215  84.2973709  11.8531189  25.2746468
  84.3431320  12.6354427  25.8242893  85.2101135  11.5909147  25.1547432
  84.9650345  51.9964600  38.2574234  85.2665482  51.6512718  39.0977592
  84.1157150  51.5777969  38.1173668  55.7794113  33.8993492  84.8860550
  56.1697235  34.5056305  85.5155945  56.2395477  33.0728798  85.0325394
  53.3639221   0.7050405  11.3920603  53.9784317   1.1198705  11.9974747
  52.7596436   0.2232679  11.9568405  65.7240906  63.2961502  22.8796673
  65.5058517  63.9462662  23.5474663  65.0161514  63.3639526  22.2389984
  15.8434343  61.1998100  55.3914070  15.1375999  60.7836914  54.8965569
  15.7554407  62.1326637  55.1957741  18.9352398  22.8847389   2.4525917
  18.2671127  23.5057507   2.7427318  19.2197208  22.4468327   3.2548018
  47.6607857   4.3525462  64.5543747  47.1606483   4.3596425  65.3704910
  48.4521751   3.8560512  64.7627640   1.3223176  47.8320541  78.5910568
   1.4516648  46.9796104  79.0068054   1.4682248  47.6686859  77.6592560
  12.5698824   6.1296921  15.4030628  12.9388113   5.2485356  15.3423500
  11.6579514   6.0268073  15.1309795   1.0093774  47.2185287  75.9999008
   0.0614809  47.0860519  76.0130692   1.3745880  46.3339691  75.9798203
  53.4261932  12.8251848  12.1609354  52.6440010  12.7033548  11.6228199
  53.3718719  13.7326851  12.4604759  31.5251274  39.0929832  85.7845306
  30.8379326  38.6942978  86.3184280  31.4420166  38.6680717  84.9308472
  16.0114231  58.2494774   0.1781790  15.3435717  58.9130669   0.3509625
  16.8412476  58.7220268   0.2439241  53.2989960  33.8551064  62.1431046
  53.6309471  34.7406006  61.9949951  54.0834084  33.3074608  62.1749268
  79.3227844  54.4024506  81.3508682  80.0639420  54.8404770  80.9324722
  79.6978378  53.9852905  82.1264648  66.6787720  59.1995773   3.6714506
  66.6369247  58.6582375   2.8831434  66.3962936  60.0670013   3.3815999
  29.7059231   3.5605903  72.3009415  30.3296509   3.4759719  73.0220795
  29.8869381   4.4232283  71.9276810  34.7719994  43.7046089  53.3616295
  35.4163666  44.2116280  52.8677101  34.9097404  42.8008919  53.0778084
   0.9392115  60.7541199  22.4363289   0.3859471  60.0028343  22.2225647
   0.9507783  61.2785721  21.6356735  28.7954216  57.2522964  67.1542206
  29.6672707  56.8715973  67.2599564  28.5024910  57.4317894  68.0476456
  32.6330490  49.9393692  38.4910583  32.9764824  50.3104210  39.3038330
  33.0505524  50.4517326  37.7986679  71.3981323  14.9340725  18.3556118
  70.7680817  15.0769224  17.6493130  71.8322906  15.7802286  18.4640522
  63.5985756  34.6584587  83.5451050  64.3730240  34.2120972  83.2027283
  63.2736931  34.0794907  84.2346573  78.8417587  64.9496994  76.8657990
  78.3925400  64.1752625  76.5271606  78.2329788  65.6701431  76.7027969
  27.5353336  30.0986404  15.2537594  26.9148979  30.6946239  14.8341255
  27.0208721  29.3151703  15.4480162  52.8469543  10.7785015  36.4959908
  52.2809601  11.4651346  36.1432648  53.5371475  11.2520685  36.9603195
  26.3518333  41.2736282  67.6103592  26.9003811  41.6293030  68.3095169
  26.5958996  40.3493767  67.5611420  18.7921944  65.2095261  24.0416679
  19.1841774  66.0498505  23.8040943  17.8822823  65.2795029  23.7528877
  69.8618851   5.8833132  84.4641266  69.2185059   6.2200637  85.0877457
  69.4801636   6.0639544  83.6051254  42.0715141   5.2044454  65.6307831
  41.4767113   5.1981263  66.3807220  42.0579758   4.3038621  65.3067551
  77.9815521  69.8312454   0.4159843  78.7703018  70.3628769   0.3088830
  78.2391586  68.9581680   0.1200055  42.1479149   0.1692874  18.7178764
  41.5133934   0.8394958  18.9717140  42.8541451   0.2531982  19.3585224
  56.5169411  38.5272255  49.1557808  57.2097816  38.2274818  49.7442970
  56.9493027  39.1552353  48.5770760  25.7476482  42.7729187  83.8707352
  25.0180187  42.3332481  84.3072739  26.0196877  42.1625061  83.1854477
  18.2319126  66.7972946  79.6500854  17.9700584  65.8847961  79.7725830
  18.7321205  67.0107422  80.4377823  80.1892014   7.8380175  10.5066366
  79.7241135   8.6569958  10.3357582  80.3782120   7.4840951   9.6375885
  16.8543053  18.3948956  15.2570009  16.4192619  18.4867306  14.4093361
  16.1657619  18.0897427  15.8477812  37.6889343   6.1369100  72.0140915
  38.4874458   6.6479316  72.1462555  37.7939568   5.3763404  72.5857010
  29.5537815  69.8344269  31.2763577  28.9365349  69.7672195  32.0048637
  30.0400524  69.0102158  31.2976284  39.8441010  70.4526215  29.9765930
  39.2928619  71.1695328  29.6629009  40.6988907  70.6156158  29.5778446
   5.5367961  42.8089752  69.7802963   5.5339322  43.6963425  70.1391907
   4.8032188  42.3729134  70.2138214  57.0314560  67.0600586  75.8440781
  57.7069664  66.4474945  75.5530777  57.3591232  67.4001312  76.6766739
  81.5922699  33.5716591  25.7303696  81.7264786  34.0364647  26.5563049
  80.6423874  33.4761009  25.6609192  84.7213593  38.9393616   8.0315371
  84.5173950  38.0043411   8.0124388  84.2316513  39.2760506   8.7819118
  45.1989861  34.1933670  77.3228760  46.1214333  34.3840027  77.1526413
  44.7849846  34.2238426  76.4603729  55.0771904  27.0281811  22.7338638
  55.6897049  26.5042667  23.2501678  55.2378273  26.7615490  21.8286915
   1.1192042  13.4800720  10.1027470   0.7105362  13.5360441   9.2389822
   1.3544669  12.5570383  10.1970463   2.8558149  13.2322636  78.8045044
   3.0604687  12.5820398  79.4764862   2.6387203  12.7149878  78.0289230
  11.5315619  45.1692924  69.8847275  12.0935917  45.2778473  70.6519089
  12.1123190  45.3205795  69.1390305  69.5444870   9.4524250  78.3013382
  68.8709412  10.0294342  78.6613693  69.3563614   9.4207783  77.3633423
  26.9699955  14.3955507  71.2704239  27.5310383  15.0948896  70.9351807
  27.3447037  13.5930605  70.9073334  41.7906914  41.5270042  20.4410210
  41.4061470  40.9992409  19.7411461  42.7322769  41.3704567  20.3692932
  63.3245735  64.7843018  30.9737663  63.9999428  64.7035675  30.3002739
  63.7937622  65.0973129  31.7471466   4.0645132   7.9465556  11.9638309
   4.1505156   6.9935837  11.9377661   4.0686822   8.2126541  11.0443707
  85.4378662   8.6624231  22.0519371  86.2511673   8.9682655  22.4534721
  85.1538849   9.3916445  21.5007343  29.3213558  65.4985428  85.0636978
  29.2556992  65.0254517  84.2341766  30.1612377  65.9549332  85.0133133
  49.1340637  12.7246475  40.5317459  49.3363533  13.0309582  39.6477280
  49.0935936  11.7716665  40.4516182  18.7506237  26.2627850  15.1017818
  18.0622253  25.6093369  15.2256546  19.5623684  25.7557411  15.0873852
  51.0740547  49.2560120  33.1001015  50.5696793  48.4584045  33.2602921
  51.8826981  49.1318893  33.5970116  69.7076569  64.6913071  10.8814592
  69.8414307  63.7518120  11.0067062  70.2243500  64.9053421  10.1046419
  75.1307831  10.0831785  26.9705677  74.5740356   9.3283520  26.7795200
  75.8212585   9.7348585  27.5346146  15.7392731   9.0293913  86.5313034
  16.6197281   9.3108997  86.2827454  15.2398205   9.0564995  85.7151947
  23.6705742  69.3488007  85.0218124  23.9882660  68.8695526  84.2565536
  23.0573349  69.9910965  84.6645737  49.4595985  25.6526241  43.1049957
  50.3710976  25.6764565  42.8137436  49.1172142  26.5206661  42.8916626
  51.7322998   6.3166337  30.9865437  51.8279305   5.7603669  31.7596245
  52.3278999   7.0493345  31.1435261  24.4134827  65.3062286  74.4425964
  23.7281780  64.8623428  73.9430389  24.2519054  65.0502243  75.3506622
   4.6147161  33.1479568  76.5085754   5.0787592  33.4104881  75.7136078
   4.8022900  33.8453865  77.1367798   2.2867053  63.0721664  28.1927185
   2.8995926  63.8060532  28.2375603   1.4314017  63.4819679  28.0632935
  18.6513462  58.5870018  14.7260466  18.3548183  57.9832916  14.0449905
  19.6054668  58.5846138  14.6493664  69.0216293  64.1034164  52.5824890
  68.9316483  64.3758774  53.4956703  68.1485519  63.7976036  52.3366394
   9.2047567  39.0770454  41.5871048   9.6738701  39.8149605  41.9765205
   9.5537291  39.0136871  40.6980400  30.2183285   6.8749003  20.1390190
  29.2910862   7.1105108  20.1696587  30.6537647   7.6589947  19.8046188
  65.4224014  62.5928230  32.2195015  65.9344025  62.5052834  33.0235023
  66.0496216  62.9093361  31.5693874  70.0018616  44.3626404  15.6400909
  69.9965286  45.2148819  15.2043276  69.3529434  43.8455544  15.1628494
  24.8580189  51.0758667  80.9526901  25.6987114  51.2570267  80.5323944
  24.7995510  50.1206017  80.9694672  73.2657776  24.3839035  85.8908768
  72.7497025  24.1513042  86.6627579  73.7010117  23.5693150  85.6393890
   2.8535361  70.4278564  19.5828342   2.5184762  69.6753922  19.0952263
   2.0717621  70.9258575  19.8217049  73.4035339  49.2516670  84.6380844
  74.0144653  48.9593315  83.9616776  73.5877380  50.1854515  84.7398224
  23.0959301  56.8695107  71.2739563  22.2900505  57.3860092  71.2694626
  23.0611725  56.3785515  72.0949173  30.4433193  44.8428574  56.3676453
  31.3053398  45.2118607  56.5599747  30.4833107  44.6118431  55.4396019
  38.2805061  43.0806236  66.0755310  37.5748024  42.4968796  66.3538437
  37.8410454  43.9047661  65.8660355  48.8295860  27.3841171  33.9633369
  48.8659325  26.4368134  33.8309402  49.7098961  27.6903648  33.7453880
  73.0310745  25.8248539  10.9237280  73.5340500  26.0449486  11.7078238
  72.1429596  25.6687603  11.2448530  65.8284149  67.6469498  70.0824127
  65.7950668  68.4201584  69.5191345  66.6684265  67.7170715  70.5359421
  80.6718216  31.1773357  71.3389282  80.5188293  30.4866104  70.6941605
  80.1253891  31.9057350  71.0438385  15.2901134  61.0873070  75.4909515
  15.1996250  60.1563263  75.6942291  16.2290096  61.2121010  75.3526230
  63.6939812  49.8595848  14.7361259  64.1486893  50.2713127  15.4709435
  64.3913803  49.6257782  14.1235867  41.4057693  57.4645882  80.5654984
  40.6311607  57.0160065  80.2263947  41.4730186  58.2594643  80.0364532
  28.1048775  59.7766533  37.8683052  28.1717720  59.9090385  36.9226685
  28.7750340  60.3511276  38.2385788  18.6913795  56.6849823  30.3208256
  18.5858154  57.6117401  30.1058521  19.3400955  56.3659630  29.6934299
  63.8944283  25.2280254  71.8328781  63.3921127  25.6139145  71.1152420
  63.6171799  25.7155495  72.6085587  34.6985512  43.3430748  60.9006157
  35.1519890  43.4396706  60.0631828  34.4141960  42.4291992  60.9150009
  28.1924267  34.5181694  83.4836578  27.6630440  35.0027390  82.8502731
  29.0965633  34.7331314  83.2544022  33.0232658  26.4282513  15.4479971
  33.8807793  26.8531780  15.4295740  32.4886017  26.9414196  14.8421707
  79.3286514  32.2819824  33.4988480  79.5250626  32.2666283  34.4355545
  79.9978638  32.8540306  33.1231499  22.6946411  20.5350952  21.3963242
  22.4011269  20.8354988  20.5361862  23.6093788  20.8123341  21.4475441
  66.6066666  70.6908035  85.4732742  66.1897354  71.5307236  85.6654587
  67.5120468  70.8007965  85.7638168  56.6400261  23.4305687  30.5956726
  56.6855316  22.4880543  30.4349689  56.9189911  23.8279362  29.7707424
  36.1812630  54.0382843  26.8077450  35.4788857  54.4174881  26.2794418
  36.8028412  54.7558098  26.9303417  68.6622543  68.9523849  18.7197781
  69.4168854  68.5793381  18.2641449  68.9729843  69.7968521  19.0461960
  81.6605682  58.6435089  51.6197128  80.9937134  59.0759583  52.1531296
  82.2516708  59.3490295  51.3569069  75.6867065  68.3976517  48.2638283
  75.0397034  68.5067291  47.5668907  76.4980774  68.7456970  47.8940125
  28.6130657  13.7083216  80.7490234  28.0402985  12.9816093  80.5039520
  29.4876270  13.4241009  80.4833298  66.5153961  38.4609032  83.0613708
  67.2552338  38.6811714  82.4953766  66.5117264  39.1471329  83.7286835
  13.2493515   6.0982003  19.5406456  12.6851091   5.3785839  19.8235149
  14.1353254   5.7381911  19.5815659  13.0339880  37.3451805  15.0903587
  12.4811440  37.1431007  14.3355360  13.5127621  38.1329193  14.8325319
  52.3340988  33.6117516  46.5632210  52.2149315  33.9739037  45.6852264
  53.2468529  33.3240585  46.5817871  67.1113205  62.2003365  72.1115875
  67.5679626  63.0410118  72.0803986  67.0105667  62.0170021  73.0456467
  44.0096207  24.2079277  64.6438141  44.8691483  23.9358902  64.3221970
  44.1070900  25.1424255  64.8266983  10.6775866  46.6829491  62.5487976
  10.4106131  46.7235069  61.6304779  10.2678413  45.8847618  62.8823166
  10.8215551  34.5047493  74.7704391  11.1255865  33.6833382  74.3843231
  11.4293709  34.6700325  75.4911804  18.6531830  55.0704536  54.5742073
  18.5567570  54.2573433  54.0784340  17.8720322  55.1085396  55.1260986
  56.3047218  51.7996750  40.3945694  56.4095650  52.6275558  40.8634567
  56.7225037  51.9501114  39.5465965   6.7833400  52.4377251   4.3702741
   6.8038940  53.3725891   4.5748253   7.6657910  52.1283531   4.5747285
  53.6240883  18.7319889  49.1639366  52.9473305  19.0634384  48.5737076
  54.3476830  19.3516159  49.0706482   5.4049716  59.0927086  55.3635254
   5.2216330  59.6118317  54.5804977   4.8099637  58.3455811  55.3003044
   5.8786354  50.3330345  80.7388458   5.9090757  49.5624924  80.1717758
   4.9746690  50.6413841  80.6756210  80.3953781  45.5329857   5.7888036
  80.6948929  45.9525375   6.5953407  79.4418030  45.6108475   5.8181653
  57.2420807  42.8619347  37.2741013  57.7031822  42.9314117  38.1100388
  56.9572716  41.9490204  37.2328224   6.5993996  37.2589531  17.1319809
   6.7590351  36.8725357  17.9930439   6.9286060  38.1546555  17.2066593
  30.9906807  57.4475098  29.5477772  30.6794777  56.9357529  30.2944298
  30.2146015  57.9134712  29.2366295  85.1552582  39.1002045  75.4921494
  85.0286789  38.8287201  74.5830231  84.3012085  38.9664764  75.9031754
  52.7437859  33.0031967  34.3262596  52.2054291  32.2211456  34.2046242
  53.0831795  33.1985588  33.4528313  84.9918213  42.2158318  69.5671310
  84.5798111  41.6417274  68.9214630  85.6803284  41.6792831  69.9599380
  60.2024574  55.7987442  71.6205521  60.7077065  56.5972595  71.7732925
  60.4594193  55.2128563  72.3325424  41.0353737   4.2951956  53.3057823
  40.3954544   4.9723592  53.5252953  41.2003822   4.4157062  52.3706474
  64.6830597  11.9149008   9.1768694  64.6322937  11.2191954   9.8323450
  64.6435318  11.4564943   8.3375044  18.7178936  46.7962456  65.2402344
  18.0107174  47.4331856  65.1380463  19.4989109  47.3280220  65.3934021
   0.2157575  17.2972717  17.5487404   0.7080460  16.5797062  17.9474697
  -0.5607269  17.3907223  18.1006203  67.5005112  45.1432152  81.7961655
  67.5370255  44.4093475  81.1827011  67.9351959  45.8615189  81.3364716
  83.0502243  14.5988197  -0.0104628  83.2308426  13.6797543   0.1868335
  82.1900177  14.7622385   0.3762859  70.0738907  57.3416862  24.9961433
  69.7905502  56.6010170  24.4600887  70.7194672  57.7960358  24.4548149
  67.4522018  51.4319992   9.9396305  66.9873734  51.6986732   9.1465015
  67.6351929  50.5016327   9.8086224  26.5883217  24.2949734  11.0622559
  26.5058842  23.9098091  10.1898556  26.9154682  23.5809307  11.6093855
  74.6416245  58.5254784  64.7764969  75.0664444  57.8118896  64.3005295
  74.2929535  59.0960350  64.0915756  71.3282700  21.7146797  28.1219501
  71.3564377  20.8480034  28.5273018  70.6892395  22.2017498  28.6421719
  47.0584030  50.3242836  53.9614258  47.2460938  49.4072189  54.1614151
  46.6885071  50.6752319  54.7715149  86.9306412  42.9529877   4.7093344
  87.0032425  42.0184517   4.9032607  85.9886627  43.1225624   4.6969762
  22.6819744   0.3507339  21.4236546  22.4117527   0.7682139  22.2415314
  23.2138405   1.0123389  20.9813557  67.6721497  39.1455116  42.4516602
  67.8317490  39.9741554  41.9998703  67.3341827  38.5630493  41.7714043
  42.0945587   0.6811755  42.5962219  41.1446114   0.7904831  42.5527725
  42.3048248   0.1157348  41.8530540  18.9077129  57.4704971  86.1559601
  18.0683517  57.8761368  86.3731232  19.5466042  58.1770630  86.2498398
  76.5541840  61.2409973  74.8887253  76.0994110  61.8277664  74.2844772
  76.2142410  60.3710670  74.6792221  77.1582413   3.6837759  18.9301758
  77.3730469   2.8700061  18.4742508  77.9977798   4.1334887  19.0258865
   5.5411816  57.9070396  14.1771908   5.9131041  58.7885399  14.1478100
   6.2837462  57.3406525  14.3870325  47.7369347  61.3765450  82.7732925
  48.3658104  62.0254936  82.4576721  47.6731339  60.7391586  82.0620270
  53.5903397  28.3130798  17.7709007  54.4771500  27.9630566  17.8562355
  53.0926781  27.6067734  17.3589535  35.9007797  42.3886642  20.9964886
  36.8380623  42.1944618  21.0006771  35.4872398  41.5675774  20.7299767
  61.2337914  41.5362663  80.3311920  61.7726097  41.5471191  79.5401306
  61.2747307  40.6299744  80.6364594  81.3013687  44.7317657  25.1061707
  81.1736298  44.9732056  26.0235710  80.4212189  44.5348969  24.7855263
  19.8502102  41.4815369   7.6474600  19.9392052  42.3968811   7.3820291
  20.3318634  40.9910851   6.9813509  80.3253937  48.7900810  16.0828705
  80.5960159  49.5481682  15.5648870  80.1049347  49.1526222  16.9408875
  73.7704620  14.3815870  80.4573975  74.4687653  14.6696663  81.0452881
  73.7692261  15.0284948  79.7518921  28.7172184  22.1006241  87.8446350
  29.6021690  21.8953228  88.1462097  28.8484383  22.5901489  87.0326157
  76.9463120  67.9022369  25.7997055  76.3378906  67.6237411  25.1152382
  77.2034073  67.0902405  26.2365074   3.1192830  67.4306870  89.3712997
   2.7743320  67.1569977  88.5213928   3.1330397  68.3867874  89.3275757
  76.3623123  60.1036644  34.5580788  76.7167664  60.2664299  33.6839523
  76.7205200  60.8090286  35.0969467  59.1080017  55.3972626  44.0522919
  59.4940834  55.0294380  44.8471985  59.1754875  56.3448524  44.1695786
  64.5193710  13.7199860  73.2672043  64.1453705  13.0027008  73.7789230
  65.2586288  14.0281239  73.7914047  75.0758209  30.6803551  76.7589035
  75.3884430  29.8104210  76.5104752  74.5333023  30.9595547  76.0213776
  68.8386612  65.1002960  34.7221642  69.2600098  65.9372482  34.9176445
  69.1823273  64.8539352  33.8634262   9.4056950  26.3367081   6.3265910
  10.3417387  26.1367912   6.3359332   9.1242809  26.2081928   7.2324176
  83.5125580  68.2702713  61.6143723  83.2731094  67.7713013  60.8333969
  84.1487427  68.9135742  61.3018608  80.6939774   3.8330920  69.4778442
  80.1239090   4.2203045  70.1421661  80.2215424   3.0554898  69.1805725
  63.8252945  37.0740700  66.1619720  62.9579086  37.4486313  66.0084152
  64.3799286  37.4710655  65.4904022  60.3979530  40.2599525  84.7919769
  60.2922974  39.6631508  84.0511017  59.5039520  40.5004921  85.0351486
  11.3231869  12.5050840  23.1300774  10.5288963  12.8513889  22.7233734
  11.4593487  13.0585184  23.8991032  18.7731113   7.7477860  18.4333591
  19.4715767   8.0447197  17.8500824  18.6037083   6.8450289  18.1639824
   5.3817801   4.6447806  80.0541916   5.6853189   5.5197625  79.8123169
   5.2116060   4.2107091  79.2182159  32.4430656  66.0126801  86.2243805
  31.9560776  65.9412842  85.4034195  33.0872536  65.3059006  86.1829834
  80.0231552   6.5078530  43.5302429  80.1498337   7.2520928  42.9417801
  79.0742722   6.4496136  43.6419029   5.9683919  45.4512329  70.9338379
   6.7525358  45.8470650  71.3141861   5.2863727  46.1130104  71.0484314
  64.1902237   5.2893748  67.6378174  63.3532944   5.1774182  68.0886383
  64.5652313   4.4092360  67.6068878  81.4392929   7.9493728  29.0590763
  81.4552765   7.3976049  29.8410797  81.9737701   7.4763770  28.4212399
  86.0412598  28.6508656  81.9801788  86.3706436  29.2902031  81.3485260
  86.8042679  28.4246502  82.5120468   3.9285843  10.8966494  79.7082138
   4.5726595  11.0297680  80.4036865   4.4231291  11.0169401  78.8975449
   4.4731908  50.1664352  42.4144516   4.7951288  50.2842598  43.3081551
   4.7207499  50.9730301  41.9624023  74.9014130  54.2288742  53.9413757
  75.4671783  54.8936729  54.3340302  75.3327408  53.3983078  54.1422310
  26.7574978  48.6465645  74.7077713  26.1078472  48.6544189  75.4107132
  27.3610668  49.3549919  74.9315186  33.2717400  42.5310669  11.4738674
  32.6779251  41.7938080  11.3322134  33.6352005  42.7156830  10.6078176
  69.1755066  61.0085640  64.2511520  69.9638672  61.5092735  64.0413666
  69.3348694  60.6687012  65.1316757  36.7789879  62.2243881  34.0510406
  36.8205719  62.9108696  33.3852730  35.8546410  62.1844101  34.2964363
  55.7567520  20.1444302  10.7519283  56.1600876  20.8152905  10.2010202
  55.0281868  20.5930920  11.1810312   2.6630616  54.9709435  16.3370190
   2.8333199  55.6092911  15.6443739   1.7313020  54.7686539  16.2525463
  59.8201752  44.0861511  71.3726196  60.0078278  43.1476135  71.3854675
  60.1492691  44.3846169  70.5247726  47.7280235  24.0544109   4.9045467
  47.7736702  24.3248806   3.9874892  47.4155693  24.8313828   5.3681431
  72.2819901  43.9554863  73.8089371  72.8041458  43.1737938  73.9893341
  71.3874969  43.7044373  74.0393524  15.6188536  53.0451431  85.0349121
  15.0417309  52.2882462  84.9335785  16.3142242  52.9038391  84.3924789
  82.1798172  39.5258369  80.5978241  82.3111649  38.9547577  81.3546906
  81.6693268  40.2606506  80.9379501  81.8813934  68.1944275  24.1744347
  81.0283127  68.6240845  24.2366982  82.1574783  68.0772705  25.0834370
  52.7747307  56.7282944  35.4746132  53.2687225  56.0874519  34.9632225
  51.9022942  56.7277870  35.0808067   1.8081729  30.8038216  44.0261765
   1.4258924  30.2470360  44.7044678   2.7194111  30.5169621  43.9662743
  50.2961617  27.2220287  57.1384773  50.9149208  27.8786144  56.8186913
  50.7722244  26.7604370  57.8287888  78.6074371  34.2742004  64.3780365
  78.7062225  34.1998444  63.4288521  78.6424103  35.2152710  64.5494919
  81.9172668  68.0175476  48.8018188  81.7012177  68.4147568  47.9581490
  81.8040543  68.7256012  49.4359131  39.8233871  62.0895920  72.8601379
  40.7151833  61.7429695  72.8880310  39.8929367  62.8877945  72.3364334
   2.0753925  58.6116028  55.1031265   2.4765496  59.4078369  55.4514313
   1.1464878  58.8275566  55.0210838   8.3392830   2.4499485  -0.0721904
   8.3442202   3.0531332   0.6710294   7.4476848   2.5015380  -0.4166064
  31.2065678  30.3429737  13.6702137  31.0317841  30.0740528  14.5720816
  31.1180248  31.2959843  13.6830177  62.8990555  39.2191315  34.0993767
  63.6681366  39.7493668  33.8905716  62.1816635  39.6411324  33.6266212
  40.9574776  60.0761452  48.1866837  40.3217964  60.6982613  48.5404053
  41.7974052  60.5311432  48.2477608  78.9198303  10.1198301  59.9883347
  78.5924149   9.7664976  60.8154945  79.1493683   9.3472157  59.4719963
  31.4942341  43.2287903  37.5548744  31.7209530  43.7454491  38.3281136
  32.0880280  43.5441475  36.8735619  40.2857361   9.5381727  83.5509415
  40.2658844   8.8578367  84.2239761  41.1655006   9.9102869  83.6124039
  81.2937164  59.3272018  69.7747498  81.0112839  60.1030350  69.2904434
  82.0232391  58.9777832  69.2629395  44.3854523  28.6858654  31.0113907
  45.1754112  28.3386002  31.4256420  43.7131271  28.6263008  31.6901150
  68.7962036  34.9654961   3.7981503  68.0689774  34.3442917   3.7598000
  68.4469299  35.7674446   3.4094131   0.2752132  41.5409317  30.4312801
  -0.3985249  42.1681709  30.1688290   1.0714748  42.0655785  30.5146046
   4.3869257   2.4395301  74.3912659   4.8887715   2.8713980  73.6999817
   5.0404763   2.2023063  75.0491638  42.8809052  45.3396835   5.4556613
  43.5197220  46.0340118   5.6170759  43.2280502  44.5810242   5.9248686
  38.4789162  46.9278412  83.9950027  38.7848053  47.6621475  83.4625931
  37.5754585  47.1529770  84.2170563  38.7346535  55.0156746   3.1454685
  38.6651459  55.0226173   4.1001163  39.2220612  55.8121490   2.9350102
  17.1230698  42.6864433  56.0673370  17.6987877  42.2438583  55.4437218
  17.6458244  42.7592964  56.8658676   9.8532753  60.9942398   3.5306082
   9.0046349  61.3976097   3.7131858  10.4649544  61.7295647   3.4935153
  21.1927872  62.5297585  47.7264557  21.5853462  62.4774437  48.5978889
  21.0137749  61.6198196  47.4893875  58.2144737  29.9654980  54.8703156
  58.2993088  30.9154129  54.9521599  58.4408455  29.6292210  55.7374420
  52.1099510  15.6349945   6.0210819  51.8969994  16.5680103   6.0402045
  52.8611488  15.5728188   5.4311099  44.3402748  44.9595032  87.0034027
  44.4941330  45.3427124  87.8669434  43.4344215  44.6519127  87.0358047
  19.4461060  54.4814949  39.4708138  19.8083115  54.3220024  40.3423653
  20.1946735  54.7721519  38.9498596  57.8204117  71.1246872   6.0551724
  58.0469322  70.9102859   5.1502123  57.8869896  70.2919617   6.5224628
  43.2790298  38.9277000  21.9074059  43.7135468  39.5516968  22.4888306
  43.8941612  38.8057823  21.1842346  80.6213913  27.9377747  28.9830685
  80.7710037  28.8528423  28.7453747  79.8203506  27.6972809  28.5175400
  77.6510239  14.8620529  76.4194183  77.1528854  15.0204878  75.6175537
  78.5634155  15.0023127  76.1662369  62.0882988  65.3805695   5.6915784
  61.1378708  65.3793259   5.5779152  62.3968010  66.0847015   5.1212707
  68.2931442   6.0425930  72.5252686  69.2014313   6.1524563  72.2438889
  67.8342438   6.7954659  72.1526718  29.9501324  38.5565567  20.1560020
  30.6582241  37.9891930  19.8511505  29.6325169  38.9898949  19.3638096
  79.1065216  31.5808220  52.7541504  79.8244247  32.1910515  52.5854149
  79.0904770  31.0113163  51.9849701  25.9513264  58.3485107  77.1509323
  25.7397251  58.4780273  78.0754166  25.2509518  57.7852974  76.8215408
  38.9155617  41.4359856  62.8581886  38.0048828  41.2095375  62.6694756
  39.3538284  40.5924339  62.9703255  74.3193359  44.4803429  15.1205950
  74.7467270  44.0056610  15.8335056  73.5280685  44.8455276  15.5165358
  67.0434494  34.9490814  70.5660706  66.7806015  35.4888420  69.8205566
  66.8498993  34.0524178  70.2926483  72.0343399  18.5979290  68.9584198
  71.6533356  17.9390354  68.3779602  71.4567490  18.6074963  69.7216492
  59.1788292  54.1689911  60.4472198  59.8490105  54.8496513  60.3856735
  58.3654518  54.6475105  60.6074181  17.7995262   1.1840326  60.3666840
  17.7577381   1.1246730  61.3211288  18.0991402   0.3194050  60.0858269
   4.7491965  38.2550278  81.3427582   5.2006946  37.4846039  81.6874695
   3.8453498  37.9663696  81.2163773  44.5803413  38.4993401  84.8889771
  44.9355164  37.6331596  85.0885239  45.2747879  38.9349174  84.3947601
  72.2521210   6.7773495  43.1182899  71.5462418   7.2322688  42.6589279
  72.3880539   5.9751601  42.6140594  13.5994616  49.1187096   8.0225105
  13.8521204  48.7237396   8.8570118  13.5729961  50.0587997   8.2007418
  43.7983818  24.3282890  12.3226433  44.1512718  23.5439892  12.7428465
  43.2079239  24.7046089  12.9753113   7.5026412  31.6306515  72.0333328
   6.6513591  31.5238857  71.6088867   7.8233461  32.4755058  71.7177353
  33.6669769  48.5524254  70.9370193  34.4599533  48.1350098  70.6005936
  32.9704742  48.2469101  70.3558350  52.7151222   7.7978406  57.0349693
  53.3752251   8.0103292  56.3751602  52.6195488   6.8469772  56.9805984
  30.5287285  71.2307205  73.1022186  29.6550236  70.9912491  72.7931519
  30.4290733  72.1228638  73.4344559   5.9849887  38.1713028  54.6262093
   5.6120081  37.9953384  53.7624054   5.5541420  37.5429382  55.2056580
  11.2391367  50.0166588  54.7489624  10.4236193  50.0652504  55.2477646
  11.9103689  50.3274231  55.3565025  72.7906952   3.4086962  69.2975540
  73.2532196   3.6477990  70.1007538  73.3904572   2.8173401  68.8427811
  78.0961456  34.6706696  20.1592331  77.8099213  35.5814514  20.0900707
  77.5400314  34.1972008  19.5405273  67.7745056  21.0730171  46.9423485
  67.6378555  21.7167358  47.6374626  67.2378235  21.3882256  46.2151260
  31.3043327  43.4504433  76.7274170  31.8653755  44.2232132  76.7929306
  31.4383087  43.1321831  75.8346710  62.3946457  14.5330782  51.1194077
  61.5466805  14.1854782  50.8430786  63.0157814  14.1866789  50.4787598
  74.2849884  30.7878666  31.0303516  75.0319519  30.6904011  31.6209221
  73.7187347  30.0439072  31.2355766  40.4693909   3.0062017  15.5391674
  41.2379150   2.8722112  14.9845047  40.7084389   2.6132858  16.3786354
  49.7364731  19.3908062  68.3892822  50.3422813  18.9453468  68.9815521
  49.2804260  18.6820087  67.9355621  38.0407028  56.5604362  51.2651482
  38.1004219  55.8449516  50.6321068  37.3702698  57.1420479  50.9067078
  56.4818420  53.4209290  29.1270580  56.0713120  53.3883057  29.9911385
  57.0009193  54.2250748  29.1387119  12.3842888   2.3986444  13.9968281
  12.6597357   1.7131958  14.6055326  11.7294235   2.9007232  14.4819059
   9.7877111  57.4218941  71.6770935   9.7761517  57.7908096  72.5602646
  10.5608835  57.8085747  71.2660980  50.7105675   4.7151170  61.7915878
  50.6621056   3.7871983  61.5616989  51.3609581   4.7544994  62.4927826
  34.0235138  14.3377323   1.9932749  33.8272400  14.6436787   1.1077771
  33.5492439  13.5099564   2.0712991  84.8795166  19.2924576  65.4890518
  85.6578445  18.7371387  65.4436417  84.6331253  19.2843266  66.4139633
  66.8300018  38.1276932  27.3327503  67.1930237  38.7158432  26.6705379
  67.3151703  37.3104324  27.2190666  48.8954277  51.5417862  16.4164143
  48.0611687  52.0099831  16.4484768  48.7193298  50.7084312  16.8531570
  64.2644424  12.8900576  49.4347229  64.4746246  13.5262003  48.7510719
  64.0943909  12.0761786  48.9604683  35.4522629  44.0094719  57.4074745
  36.2003708  44.4292374  56.9827805  35.6274414  43.0717163  57.3290062
  57.8106918  18.8220005  55.0998001  58.3821297  19.2008095  55.7677765
  58.4100876  18.4985771  54.4272270   1.4409522   8.8087254  32.1411591
   1.1886377   8.8868895  31.2211246   0.8387729   8.1569910  32.5001183
   7.5841107  25.0545406  62.6068535   8.0321503  24.9661713  63.4480934
   8.2904491  25.0893593  61.9617920   5.3194890   4.0816259  84.5874710
   5.2020640   3.1482708  84.7643585   6.1938195   4.1443858  84.2029724
  79.9156647  64.0336838  55.9567337  79.2853394  64.1593704  56.6660500
  79.9738998  63.0838432  55.8535805  78.0687408  53.8448753  56.6081963
  78.0556259  54.3913231  55.8224144  77.2849808  54.1036110  57.0929718
  76.2731781  22.7906322  39.2182503  77.1861038  22.5042210  39.1906700
  75.8418427  22.1606312  39.7955589  85.3903046  37.0106087  47.8600807
  84.7943954  36.3960381  47.4317894  85.9256592  36.4638214  48.4351044
  66.4369659  23.3573341  74.5022354  66.8486557  24.1718254  74.2135391
  67.1472855  22.8608894  74.9086990   8.7972069  58.6509171  58.2677803
   8.5067577  59.0304565  57.4384346   8.6647854  57.7091141  58.1595879
  83.6741867   5.8278441  49.5277100  82.8100739   5.6722841  49.9089394
  84.1740189   6.2449074  50.2294617  51.9594765  54.2684784  61.9766579
  51.2764740  54.1948929  61.3100815  51.5149117  54.0622330  62.7988853
   3.8677580   5.2315907  50.7674751   3.3107443   5.3043308  49.9924431
   3.8283556   6.0977960  51.1728973  81.1074448  44.6356506  31.2795162
  81.3122406  45.3089561  30.6307106  80.1948395  44.4051476  31.1055946
   3.5050197  65.4066772  17.3133125   3.4847505  64.5068512  17.6391048
   2.5866702  65.6243515  17.1536732   4.9948082  32.4761200  33.9559021
   4.9169602  32.5093880  34.9093513   5.1200476  33.3881912  33.6938515
  42.3830452  57.6271667  64.4252548  42.5697479  58.5521622  64.2647629
  42.6976662  57.1795387  63.6398392  84.9848099  56.4313087  85.6472473
  85.0730438  56.4584465  86.5999832  85.2954559  57.2877083  85.3534546
  65.5344543   2.9987526  27.9945679  65.3927231   2.1537995  28.4214134
  65.1929779   2.8796551  27.1083164  26.6831055  33.9815063  11.9246931
  25.9965324  34.6434021  11.8425627  27.4022522  34.4355888  12.3638620
   9.4575138  24.9920788  64.6026077   9.2221918  25.6044178  65.2996674
  10.2759724  24.5942879  64.8994598  66.8883209  30.1232643   2.6092463
  66.6434860  30.3362656   1.7087376  66.0892029  29.7660942   2.9966278
  60.1133118  14.6356010  69.9045639  60.0798035  15.0620718  70.7608490
  59.9612083  15.3433924  69.2783585   6.7746654   4.4764476  76.2130203
   7.4538770   4.1630564  75.6157913   6.3613281   5.2024832  75.7458420
  81.8716202  69.0921783   5.3589191  81.5601730  69.3836823   6.2158089
  81.6464996  69.8088913   4.7657304  31.2015648  36.2066383  13.1092644
  31.5212231  36.5189247  13.9557438  31.8803291  36.4663086  12.4863024
  64.3291931  52.5792427   5.2615671  63.9405746  51.8669739   4.7537446
  63.7230911  53.3116035   5.1496429  67.3663254  19.9735889  37.3811378
  67.6472778  19.5503807  38.1924324  68.1817627  20.1879215  36.9279747
  74.6993408   1.3643030  55.2732239  73.8513184   0.9334334  55.3801804
  74.7137451   1.6405691  54.3568687   9.4495621  47.8848534  77.1526108
  10.0695572  47.4599037  77.7452774   9.6759224  47.5464134  76.2863235
  63.1451263  49.4068832  26.9549007  63.3636398  49.7230186  27.8315659
  62.7632027  50.1662445  26.5147476  15.7168083  29.6806240  70.3478775
  16.2976151  29.8497562  69.6060638  14.9548826  29.2485409  69.9618607
   6.2524981  63.7498474  72.4475632   5.5501919  63.1940308  72.7853012
   6.1306720  63.7393799  71.4982071  54.3700371  41.1985664  14.7839432
  54.0783005  41.7181511  15.5330467  54.0369339  40.3183708  14.9586802
  85.5818863  36.6146851  67.8178101  86.5363007  36.5417099  67.8143082
  85.3550034  36.8324127  66.9137344  82.9378738   1.7010164  27.8802662
  83.7247391   2.0148292  27.4346218  82.3093948   1.5452137  27.1753063
  11.4354162  70.9557037  73.9502945  12.1315012  71.0451279  73.2993698
  10.6494017  71.2728653  73.5055237  61.0592766  24.8529816   1.2525902
  61.3286285  24.4075966   0.4492752  60.2701569  25.3353596   1.0059468
   0.2654934  18.3156872  15.0315113   0.1437540  18.0208187  15.9339876
   1.0892035  17.9127655  14.7569427  65.7742310  31.5124912  55.3790894
  66.2124710  30.8024178  54.9100800  65.5137177  31.1232090  56.2138519
  62.9918442  21.7873306   9.0418320  62.7929497  20.8609619   8.9057608
  63.5807495  22.0140915   8.3221083   6.4211969  62.9234085  42.7076683
   5.6121683  63.2528725  42.3163109   6.8759561  63.7080345  43.0139160
   6.6951714  64.6608658   6.6788492   5.9827857  65.2554169   6.9139094
   7.3438997  65.2210464   6.2527199  76.5848007  54.3692474  10.1983395
  77.0887680  54.8756981  10.8353319  75.7429047  54.8215561  10.1448984
  63.6518822  65.2188110  14.6111135  64.3049774  65.1978226  15.3105850
  64.0303421  65.7952881  13.9472837  32.1138611  63.9224854  57.6354370
  31.8526745  64.8252106  57.8173561  33.0686913  63.9313393  57.7021446
  17.3106499  41.0123901  80.2255173  16.6892471  41.1825333  80.9334259
  17.5873051  40.1063042  80.3622818  34.0817528  17.9509373  16.4971237
  33.4637146  18.5763969  16.8753586  33.6240730  17.5918140  15.7369976
  62.3898582  28.0929203  66.6848602  62.6646919  27.2675953  66.2854385
  61.6779785  28.4042091  66.1257935  51.6328506   2.6714575  54.8119507
  50.7214622   2.6077664  54.5263824  51.6011467   2.5026083  55.7536087
   9.9068546  46.0886650  17.2227249   9.1577301  45.5382500  16.9944973
  10.0716858  45.8979568  18.1461391  36.2324181  57.9534760  71.2776947
  35.7002449  58.7303200  71.4495621  35.8674240  57.2810631  71.8529053
  79.9643784  13.6274939  87.6031113  80.2969284  14.1823683  88.3086243
  80.0574646  14.1615791  86.8142319  82.2703400  24.6740208   4.4979258
  82.5224686  25.4402390   5.0132627  81.9570007  24.0424614   5.1453714
  30.7834225   1.2424588  81.8923035  30.3424721   0.8798692  81.1239777
  30.3557281   0.8184050  82.6362686  31.3790169  63.1053619   4.1840625
  30.9333744  62.3077011   4.4693151  30.7487526  63.8055382   4.3536353
  65.0060654  32.1875458  73.9549332  65.9629364  32.1709061  73.9736633
  64.7669983  32.8934975  74.5555267  10.3602276  43.8575096  63.0291672
  10.6343470  44.0011024  62.1233673  10.7518301  43.0172462  63.2675743
  33.5113258  64.1864166  29.3809395  32.6971436  64.3300858  28.8985519
  34.2000046  64.4617310  28.7758331  35.9919243  47.8954201   6.6311445
  36.8052063  47.9477425   7.1332078  36.2770767  47.8167076   5.7208009
  82.3871765  37.8527527  29.6071568  82.8312836  38.2319908  28.8487511
  81.9243698  38.5892296  30.0067081  66.5688095  37.3680878  13.8041019
  66.3040848  37.8097725  14.6109905  67.4945755  37.1634827  13.9356976
  50.3999863  11.1644068  77.8742523  50.4492378  12.1181631  77.8097992
  51.1543655  10.9213457  78.4109726  55.7238579  60.7952042  25.1211586
  55.6360207  60.0460091  25.7104149  55.8724442  61.5410080  25.7024746
  18.3734608  49.4300766  82.9501343  17.9646263  48.9038506  83.6372833
  18.7594833  48.7879486  82.3544159  64.8282776  63.6389885  60.7052956
  64.1800003  63.6923409  60.0030670  64.4563370  63.0140457  61.3276596
  31.9734764  12.4908457  15.9567499  32.6351967  12.0106468  16.4545135
  32.4668846  12.9302826  15.2641649  52.6448364  11.4990349  20.7152576
  53.1215439  12.3290529  20.7224350  52.7187691  11.1881628  19.8129692
  61.4521713  63.5604324  61.3282318  60.8513565  62.8426666  61.5283928
  61.7264214  63.8890343  62.1844063  59.3463745  58.7353897  89.1852570
  59.0516510  59.5600891  88.7989349  58.6409988  58.1166458  88.9959564
  60.2545624  25.7374687  62.2572060  59.3369522  25.5327473  62.4369736
  60.2715912  25.9646111  61.3275032   9.6899796  39.5957680  66.0570755
   9.5188475  39.4163170  66.9815979   8.8717985  39.3710098  65.6140289
   0.8483604  11.1095533  66.7331161   1.5624720  11.4693069  67.2592850
   0.1803680  11.7951288  66.7352448   2.7982614  54.9669952  33.1541557
   2.4870963  54.1911392  33.6204720   2.2302639  55.6741371  33.4600410
  23.6044521  54.2619476   3.1564178  23.5293484  54.6179314   2.2710562
  24.4775333  54.5253792   3.4472220  84.0150223  46.9111404  59.1145325
  83.5931778  46.1559067  58.7047768  83.3021774  47.3739967  59.5548134
   3.6176548  61.8086510  26.0223808   3.2848787  60.9507446  25.7587795
   2.9513025  62.1513443  26.6180058  18.5159245  60.4964371  32.9275360
  18.4093590  59.9736290  32.1328354  17.7996273  61.1305389  32.8949203
  64.2362976  11.5744495  55.0744095  63.9840546  11.9184904  54.2175293
  65.1143570  11.9248857  55.2241859  82.6310883  37.6972694   3.3145320
  83.0027695  36.8822136   3.6518328  83.3585510  38.3190346   3.3356752
  78.1167450  41.8944321  73.4492645  77.3263931  42.4155884  73.3079529
  78.8233261  42.5385361  73.4952316  82.8138962  13.5911636  37.4192924
  82.1623077  12.9263573  37.6422272  83.6408920  13.1110897  37.3764191
  53.7242355  61.9807014   7.9485865  53.5485764  62.8495712   8.3097515
  54.0003357  61.4593353   8.7023621   7.0454812  29.0872841  13.6786585
   6.8789415  28.4608707  14.3830042   6.2859316  29.0065517  13.1017714
  28.8724670  59.4008217  17.3548145  28.7386799  60.1670914  16.7969933
  28.6209221  58.6581039  16.8058834  82.0487289  69.1398621  35.3708420
  82.6155014  68.4389191  35.6928368  82.6213608  69.6796341  34.8259010
  57.8498840  14.9722853  79.0074997  58.2067261  15.3979206  78.2279282
  58.2927208  15.4023132  79.7390823  52.1917648  28.7825165  55.7623482
  52.3472710  28.2341385  54.9933701  53.0672531  28.9999123  56.0824966
  39.8384247  40.6922417   0.2485215  39.4702568  41.3571091   0.8304478
  39.0776749  40.3058434  -0.1852818  74.9592209  49.5540504  34.6299820
  74.8247910  50.5017471  34.6356010  74.0756760  49.1869850  34.6007881
  49.8890152   0.4297297  45.0213890  49.0524559   0.7404864  44.6752243
  49.7613144   0.4045687  45.9696960  69.3577042  60.4049377  66.8096619
  68.5316010  59.9289627  66.8946915  70.0238876  59.7824364  67.1010742
  74.1262436  67.2158890  72.1504211  74.6163330  66.4492340  72.4475479
  74.3394852  67.8980255  72.7871704  58.4672928  21.6668930  65.0552902
  58.0829277  21.3076801  64.2556229  59.2968483  22.0505581  64.7709045
  10.4833250  17.2388973  77.4092102  10.8628511  16.5960865  78.0083694
  10.1457920  16.7174454  76.6809311  45.5953178  64.8856812  63.7654305
  45.3834915  64.1758575  63.1592026  46.5506783  64.9412308  63.7447472
  23.3772240  65.6974182   1.0513635  23.5297127  66.6391678   0.9733869
  24.0961075  65.2970810   0.5623151  79.7551575   7.9413080  63.9189415
  80.2935486   8.4428520  64.5311661  80.3397751   7.2586999  63.5895538
  23.4106121  47.5631447  61.8689995  22.9860172  46.7511520  61.5921974
  23.1815834  48.1969643  61.1892548  67.7979050  15.5368948   2.8575449
  67.5178299  15.7751484   3.7413018  68.5062180  16.1488953   2.6576121
  15.8887043  48.5914726  60.1576691  16.4465504  48.3263626  60.8889389
  14.9960566  48.4822273  60.4855042  29.6544952  39.3234711  29.5902081
  30.4870052  38.9189186  29.3462868  29.0298290  38.9943962  28.9438839
  14.3056908  46.9429016  37.8597946  15.0855141  47.2887268  37.4256172
  14.4294357  45.9937515  37.8540840  76.7306061  18.0096760  56.0780754
  77.3357925  18.5623417  55.5835686  75.9523849  18.5540199  56.1976547
  85.5705795   3.6622527  21.4457626  85.5094986   2.8054116  21.8680477
  85.7641754   4.2684255  22.1608181  86.7330399  69.7970810  88.1290207
  87.3583755  69.7271500  87.4077072  85.8772354  69.6815643  87.7161331
  66.4263535  19.9302845   8.3131609  66.3415298  19.5000362   9.1639986
  67.3327408  19.7677422   8.0518694  25.0073280  61.0253334  11.3262434
  25.6595058  60.3328590  11.2195768  25.5126190  61.7896156  11.6033373
  44.3172913  46.2111130  28.5283451  44.1916656  46.3265610  29.4702168
  43.4503288  46.3602219  28.1510220  17.5488415  40.9732246  28.8782139
  18.0691280  41.3020325  28.1451225  17.9863205  40.1623726  29.1377468
  20.5488815  16.9954624  86.9339828  19.7831059  17.2386646  87.4542465
  20.3832150  17.3761597  86.0715179  18.5752621  29.5436268  83.1010513
  19.5160751  29.5821934  83.2731476  18.2778645  28.7636623  83.5694962
  55.6531143  61.4513092  68.7859421  56.2663040  62.1035538  69.1247787
  56.0499382  60.6098213  69.0110321  63.1372299  29.8063107  49.0295982
  63.9774895  30.2035618  49.2584801  62.8000145  29.4652004  49.8579483
  84.8753891  44.5607147  76.4726410  85.2606430  45.0575829  77.1943970
  85.6145477  44.3602600  75.8984528  82.9990616  67.0743027  40.0504036
  83.4994812  67.4873428  40.7541161  82.1703415  67.5529938  40.0329704
   2.0490303  51.7137451  80.5696564   2.5124753  51.4743690  79.7670670
   2.3381982  51.0684090  81.2147598  -0.0480037  53.2242317   7.3564429
   0.7566973  53.0435371   7.8422799  -0.2798975  52.3859100   6.9568534
  19.8766499  53.0817032  74.0573196  20.4835815  52.4231796  73.7193604
  19.0216846  52.8154030  73.7191620  57.8088226  25.2947712  75.9706726
  57.1039124  25.4186497  76.6062698  58.6098824  25.3163109  76.4941864
   9.3637686  46.7137337  37.1664238   8.8672886  47.3986588  37.6143303
  10.2444811  46.7755775  37.5362244   4.9200063  45.7877045  32.4253006
   5.4747534  45.0319328  32.6184311   5.2771306  46.1454735  31.6124687
  52.1710701   5.2081661  50.0990028  52.7735710   4.8518877  49.4460945
  52.7334518   5.6871004  50.7077560  72.5206604  55.5890388  22.4280910
  71.8010254  56.2082062  22.3056965  73.0559235  55.9776497  23.1199818
  37.2107353  52.8297195  88.1379547  37.6822357  52.5159645  87.3662796
  36.7572479  52.0560074  88.4725418   7.3445129  53.6422768  64.9098816
   6.5742207  53.7816887  65.4607468   7.2323399  54.2537880  64.1820755
  81.3723831  54.5977364  67.7098999  81.0240860  55.4619637  67.9290543
  80.6439133  54.1472435  67.2825546  19.6701374  12.1716337  23.7722569
  19.3738632  11.4023256  24.2586918  20.1438522  12.6956387  24.4181995
   2.8638825  43.3055344  56.2436600   2.0431440  43.5846291  55.8377953
   2.6566834  43.2292137  57.1750450  44.7107277  42.1294212  10.1593370
  44.3252792  41.3962059  10.6389818  44.2624207  42.9023438  10.5026245
  28.7240047  50.4390450  75.4563751  28.9982376  51.3554497  75.4914551
  29.4077873  49.9660950  75.9307175  44.0905800  24.1790314  16.7476215
  43.3949661  24.2888985  16.0993290  43.6285973  24.0779438  17.5798359
  15.6535120  68.8576660  64.5184021  15.3384228  69.6794968  64.1421814
  16.3544083  69.1205139  65.1149673  12.5619431  13.0251913  82.1952286
  13.4633303  12.7037735  82.2158051  12.0303297  12.2621183  82.4218063
  31.1603966  21.6056328  84.6713333  30.9790802  21.5648117  83.7323532
  30.6791401  22.3753300  84.9749603  59.8953400  42.0399055  76.0307388
  58.9786339  42.1447449  76.2854843  59.9263611  42.3353653  75.1208115
  84.6636658   3.9383795  54.1191597  84.8624878   3.0027778  54.1559296
  85.4953232   4.3680110  54.3191452  39.3549957  49.1577682  78.6653519
  39.1455765  48.2520943  78.8936691  38.5223427  49.6232986  78.7441177
   7.8624949  43.1352921  82.7810287   7.7063904  44.0496826  83.0171509
   7.9874420  42.6895523  83.6188431  14.3087864  50.6666870  22.5867271
  14.4876175  50.6494370  21.6465397  14.3019142  49.7453423  22.8461704
  14.1019697  21.2606125   9.6250362  14.2734375  22.0845203  10.0811110
  14.9708099  20.9066887   9.4350700  45.7437630  49.7443619  41.7132263
  45.9327888  48.8062820  41.6907654  45.1968727  49.8970032  40.9426117
  55.6600800  45.0033989  66.8267365  56.5628548  45.0835915  66.5188370
  55.2516785  45.8363380  66.5908203   4.1426635  61.1323051  83.5409088
   3.4392014  60.5663109  83.8587570   4.6887174  60.5574989  83.0045776
  82.8901443  18.6569500  44.9334488  82.5895386  19.5493736  44.7618408
  82.7646408  18.1980572  44.1028481  51.6852074  37.6795692  79.0262375
  51.8428192  36.7809715  78.7365646  50.8582878  37.6349106  79.5062866
  82.5140991  36.6474228  33.4762497  83.1983948  36.0170212  33.2513695
  81.6955795  36.1965523  33.2689552  18.0337315  34.9492340  68.7378311
  18.1056404  35.8083458  68.3219147  18.1067524  34.3262329  68.0148010
  58.6555786  10.1915569  68.9085388  57.6988754  10.1642609  68.9229507
  58.9231987   9.5662956  69.5820847   1.1629806   6.5741949  88.1869583
   1.3898704   7.4115252  87.7824402   0.8468505   6.8077016  89.0597534
  47.1869621  22.9759121   1.8249125  46.6283798  22.7845573   2.5783072
  46.7749138  22.5106258   1.0969311  80.2080078  17.7388725  83.5824966
  81.0219574  18.1044846  83.9289780  80.4402161  17.4220943  82.7095947
  81.4562531  35.8105736  49.1402588  81.6399841  36.7317543  49.3243866
  81.1206284  35.8078156  48.2438354  51.7435913  26.5000114  16.8923931
  52.4558754  26.1347866  16.3675175  50.9551926  26.3319206  16.3762474
  78.5074692  46.9832306  32.7796135  78.5717697  46.7821121  33.7132339
  78.7508698  46.1676712  32.3416023  15.5841351  28.6411114  80.6320114
  14.8137445  28.7501411  80.0744858  15.7619009  27.7007408  80.6136856
  86.3111725  51.2402954  81.9418259  86.9951096  51.3528976  81.2816849
  86.7779388  50.9390144  82.7213135  48.5307159   5.4430914  11.2034321
  48.1142960   6.2620368  10.9348145  49.4606590   5.5756388  11.0193949
  66.6266708  33.8624268  54.2697563  65.9809647  33.2030602  54.5238037
  66.1401978  34.4732056  53.7161140  26.1848907   8.8763981  84.8024368
  26.8663445   8.2459183  84.5693130  26.6651611   9.6560507  85.0812073
  79.1802750  69.3344803  86.4216995  78.6859894  70.0842361  86.7530365
  79.7605209  69.7050934  85.7567368   6.2600756  33.1223068  27.4326000
   5.9495230  32.2169914  27.4188690   6.4492497  33.2966690  28.3545780
  15.7356653  71.3458099  63.1274986  16.3338318  71.9929504  63.5011826
  16.1907921  71.0189896  62.3514290  79.0057907  43.4792442  23.5912819
  78.2282181  43.4770050  23.0330677  79.1065903  42.5676384  23.8652306
  56.1545143  43.1629333  26.3769798  56.5095291  42.9828262  27.2474728
  56.4175682  44.0646820  26.1929016  23.7992134  48.1259460  53.5484161
  24.0082588  47.3859825  54.1184883  23.0496693  47.8272743  53.0334320
  72.5583725  64.2169189  73.4872665  71.9625473  63.5577240  73.8432007
  72.6687469  64.8486404  74.1978760  37.7483864  25.3983593  44.1978607
  38.4502983  24.8100758  44.4762039  36.9598770  25.0401154  44.6054688
  61.8270531  14.5981741  82.1923370  61.5081825  13.7320881  81.9384689
  61.0338440  15.0995970  82.3810806  32.3418770  29.9276848  10.1400499
  32.6275978  29.7938805  11.0437593  33.0817070  30.3634377   9.7169676
  19.3123207  60.3065186  81.8370667  18.6571178  60.4976921  82.5081787
  19.7929535  61.1274605  81.7308426  34.9755135  19.7570705  70.6513824
  34.5687752  18.9560070  70.9816742  35.9017792  19.5344658  70.5580368
   5.6926332  62.2977142  49.1704483   5.5629373  62.8855667  49.9146538
   4.9513140  62.4765587  48.5919228  80.8668442  11.9829416  70.7494202
  80.0874863  12.0599232  71.2997894  81.5767746  12.3299465  71.2896194
  63.7082748  45.5120163  23.4326382  64.6137238  45.2837868  23.6431103
  63.3148994  45.7341270  24.2765312  40.5460892  11.1245956  16.4284821
  39.6570244  10.9574471  16.7413006  41.1033173  10.5889044  16.9930706
  34.7176094  45.1822357  14.9503489  34.1614075  44.4036598  14.9767303
  34.4959793  45.6069412  14.1216536   5.4533024  65.4597168  87.5181885
   5.5918641  65.4625931  86.5710754   4.8100204  64.7660675  87.6640320
  44.8041801  60.9350739  79.1929169  44.7880135  61.6961250  78.6125946
  44.5934792  60.1951180  78.6234436  62.7243156  51.4637451   8.5991745
  62.7191277  50.5077858   8.5507631  62.2355156  51.7453842   7.8258777
  84.3706665  31.4851227  26.5636444  84.3814545  31.0837269  25.6947384
  84.3844376  30.7444534  27.1698208  27.0322838  62.7410774   9.0341740
  27.0524731  62.5028534   8.1073122  26.4922123  63.5306892   9.0668125
   5.5143390   0.5735531  12.3965406   5.9432468   1.2270547  11.8440866
   5.8517175   0.7446304  13.2758245  22.5378532  22.6308537  74.0074921
  22.8560028  21.8292866  73.5921555  21.9356174  23.0096416  73.3671265
  50.0866508  47.8672256  51.4455414  49.6558723  47.2598114  52.0469627
  50.4438972  48.5516052  52.0114250  11.3036747  37.7439117  20.3889713
  11.4795132  37.6757622  19.4505329  11.1326904  36.8439560  20.6665897
  69.9057922  34.1179581  50.8698997  69.6662827  34.9629555  51.2504845
  70.4595718  33.7051430  51.5325737  77.5979004   5.6549954  33.1090240
  77.4380035   5.7716470  32.1725082  77.6132660   4.7059817  33.2329941
  28.7743835  47.4174767  19.7118607  29.0682297  47.3304100  18.8050499
  29.4192486  47.9966164  20.1180363   7.6651549  33.9961853  85.5274353
   6.8978696  33.7890396  84.9939575   7.6782389  34.9524765  85.5670395
  84.0647736   1.8244103  83.5995941  83.4079285   2.5128319  83.7038193
  84.6759872   2.1728277  82.9505539  77.3485107  10.7863035  10.2964067
  77.2729950  10.4969654   9.3871145  76.4518280  10.9986610  10.5554323
  38.8069763   1.8758264  30.2775364  39.5135269   2.0550637  29.6571369
  38.0066032   2.0849845  29.7959881  78.8396225  67.4698639  49.1017380
  78.8680573  67.1743469  48.1917419  79.7528534  67.6523972  49.3229294
  22.4126511  52.0870628  29.7990952  21.6028004  52.0396156  29.2910366
  23.0096741  51.4849854  29.3549099  41.2542152  53.8442421  31.4789486
  42.1039047  54.1698570  31.7759838  40.7004433  53.8735008  32.2591476
  11.2686853   8.1757812  79.1725235  10.6582699   7.4523869  79.3150864
  11.8325424   7.8763571  78.4593277  71.6100540  14.2945166  50.6026688
  71.1779327  15.0844822  50.9274101  71.2818146  13.5933504  51.1655655
  27.8417053  68.4695206  73.2711487  28.4044552  68.7325058  73.9994202
  26.9759769  68.3605194  73.6646729  21.7922115  69.6751175  24.5867710
  22.1597672  68.8389587  24.3004608  20.9241238  69.7054214  24.1846046
  76.7877426   0.4264540  12.4382210  77.3864517   1.0778394  12.0728846
  76.9455872  -0.3619116  11.9188032   7.2366080  10.3957243  75.1656647
   7.0012116  11.0223579  74.4814529   7.6841202   9.6893444  74.6998444
   4.5559888  11.0936813  58.9779320   4.4804120  11.2639046  59.9168358
   4.2450118  11.8981953  58.5628624  73.0066223  57.7371559  53.9645500
  73.3930588  58.3973808  54.5398788  72.2905960  58.1938133  53.5229683
  69.3674164  53.6162262  35.3451653  70.0067749  52.9754143  35.0340195
  69.7815247  54.0157547  36.1100960  68.9517517  35.1100464  41.0776787
  68.0346603  34.8483238  41.1593933  69.1562576  35.5302353  41.9130554
  77.6339722  69.5285339  17.9990883  76.9327164  69.2258911  17.4221210
  77.7587433  68.8115616  18.6208706  55.9712753  19.8973770  68.3867111
  55.7385597  19.2286968  69.0308685  55.1716805  20.4117699  68.2759018
   1.7910248  28.3438873  78.7019577   2.4699085  27.9168758  79.2244568
   1.6223507  29.1690922  79.1567307  52.8106422   2.7264719  79.7477112
  53.4020233   2.9978411  79.0456772  52.5569611   1.8332398  79.5153046
   1.5069468  41.5846710  72.9735641   2.0198410  41.1370392  73.6464691
   0.8780143  42.1137657  73.4642105  34.9128227  68.8762207  29.6644382
  35.8572502  68.8461533  29.5115166  34.7481575  68.1672363  30.2860947
  15.4725990  17.1930790  73.1520309  15.5514431  16.4390507  72.5676880
  16.3723946  17.4951038  73.2760468  39.9220276  16.4734840  11.7404594
  38.9713440  16.5274258  11.8380394  40.1250458  15.5485611  11.8802280
  39.9137306  31.9744663  74.4227829  40.6542435  31.3875866  74.2696609
  40.0265198  32.2718811  75.3255844  28.0743065   9.4509373  31.9593010
  28.4428806   9.6898375  32.8097763  28.3312359   8.5372753  31.8350353
  30.6916084  12.2701006  79.7933731  31.3110561  12.8357229  79.3323059
  30.2496185  11.7823315  79.0984268   6.8165774   0.4760071  80.0406342
   6.3718500  -0.2932060  80.3966675   7.1333413   0.9475138  80.8110733
  10.7244291  47.8526840   3.7551396  11.3473663  48.1887093   4.3995538
  10.0435648  47.4295235   4.2781987  54.3848190  60.1340904  47.8947868
  55.1773491  60.3624954  47.4090347  54.1649742  59.2525253  47.5935440
  51.1180077  22.8378410  24.4060287  51.9470100  22.9752083  23.9476414
  51.3590012  22.8036060  25.3317604   5.5550270  68.3758087  64.4350662
   4.8849096  69.0591888  64.4479065   5.1176605  67.6046677  64.7960205
  13.0953493   5.9582615   8.1639338  12.9000034   6.5562530   8.8853760
  12.7963018   6.4212995   7.3813753  82.8132629  33.0924911  39.4990005
  83.1645050  33.2018471  40.3826866  83.0984192  32.2178841  39.2344551
  19.0665703   7.3737612  21.3648853  19.0181332   7.6948605  20.4644508
  20.0039234   7.3324704  21.5543480   6.6067739  60.2299194  45.7523041
   6.9065108  59.7541542  46.5269241   5.6522536  60.1675110  45.7873573
   5.6394167  54.6758881  23.2955914   5.2500291  54.5953903  24.1662979
   6.5830011  54.6312103  23.4501381  75.5191269   1.5815142  57.9040337
  75.1195526   1.3161151  57.0757027  75.5552826   2.5368869  57.8572655
  60.7583351  25.0397701  37.9443245  61.0730438  25.9048901  37.6821060
  61.5531960  24.5486012  38.1521339   5.1581483   7.6411161  74.9915237
   5.1932316   8.0075026  75.8751297   6.0628748   7.6774611  74.6810760
  86.9529800  41.6319046  85.7299423  86.5093002  40.8684158  86.0993576
  86.3333435  42.3512344  85.8518066  53.9910851  48.1989861  13.5572348
  54.4696960  47.8084908  12.8260183  54.1844788  49.1345558  13.4977255
  52.4357643  39.8929977   7.0830712  52.4080353  39.0256805   6.6790590
  51.9085159  39.8043404   7.8770375  24.4683647  34.6254539  32.5982742
  24.0185642  34.8701057  33.4070129  23.7935505  34.6835632  31.9218998
  13.7955790  58.0461464   2.0377111  13.9386101  57.5266037   1.2466058
  12.8849030  57.8732033   2.2764378  82.5571060  58.9927635  17.8742771
  82.0917664  59.6064491  18.4426785  83.4171371  59.3922005  17.7437744
  13.6065750  37.5476074  89.2367477  13.4825563  36.6002312  89.2944565
  12.7912121  37.8731079  88.8553467  72.5841904  23.8349304  70.5139999
  73.3568954  23.5148869  70.9795456  72.0154724  23.0686874  70.4387207
  14.7123537  69.2834244  78.2080841  14.9929276  69.5131989  77.3222427
  13.8562660  69.7007370  78.3039856  63.9936714  43.2637863   5.6083136
  63.8137512  44.1088753   5.1963825  63.5097504  43.2918053   6.4337025
  28.6953011  30.1698112  85.8037796  28.8320656  31.1168213  85.7773209
  29.1878586  29.8780231  86.5709076  71.8868408  69.8731918  76.5819321
  72.4608688  70.1574936  77.2931976  71.1576767  70.4930420  76.6003189
  27.0583611  16.0864887  67.6615372  26.3380833  16.6895790  67.8451462
  26.7621231  15.2461061  68.0111542  60.9425278  48.4703369  50.9154587
  61.6981125  48.3746300  50.3356628  60.7191238  47.5743828  51.1676292
  19.8058167  62.1289139  75.0069733  19.9805546  61.7876854  75.8840485
  19.3867111  61.4020348  74.5462875  60.2160339  70.0954361  19.3512306
  59.3510246  69.7071762  19.2199078  60.4406548  70.4731064  18.5008526
  75.3490677  49.9689064  71.9180908  75.2793274  49.7649269  70.9854813
  74.4747620  49.7957764  72.2671585  57.9466019  57.0465012   3.5634370
  57.4875221  57.1552658   2.7305818  58.7791405  56.6379128   3.3264439
  16.6226521   9.6866465  68.3814316  16.8302536   9.8388901  67.4595032
  16.5293427   8.7366390  68.4522171  42.1411896   2.6338506  49.6820793
  42.6501503   3.1576192  50.3008347  41.2294807   2.7950208  49.9250641
  61.1023216  59.5775261  30.3128319  61.8752670  59.8896217  30.7833462
  60.3893623  59.6524239  30.9471149  39.4052391  11.2543621  86.2223358
  39.6988335  10.7448149  85.4670868  38.7313499  11.8364410  85.8712082
   4.8712597  34.6603699  38.3313560   4.2295566  35.3589592  38.4595184
   4.8174582  34.1361694  39.1304474  27.7161636  58.8662720  19.8267002
  26.8801517  59.3060417  19.9813557  28.0476589  59.2591057  19.0192204
  53.1549683  58.4491730  64.9683228  53.0950012  57.7857513  65.6557083
  54.0360107  58.8115616  65.0614090  12.1292152  38.5997047  84.8253860
  11.1969881  38.7749519  84.6970444  12.1766968  37.6559715  84.9781799
  84.5541611  10.8711843  29.7977619  84.8049393  11.6843166  29.3594036
  84.8631287  10.9788904  30.6973019  45.2681427  48.9600906  50.0444984
  46.2067680  48.9158173  49.8621483  45.0394592  49.8785286  49.9016418
  53.0799637  52.5340538  47.1489029  52.3362885  52.7762718  46.5970764
  53.6402359  53.3101501  47.1499672   7.4708490  70.6361771  63.2745628
   7.1289864  71.2509308  62.6253815   6.7631984  70.0043411  63.4020424
  49.1405144  56.1235695  14.4352341  48.2341537  55.9023170  14.2212477
  49.4976463  56.4824409  13.6228914  42.3573914  60.4535599  82.8869247
  42.5486069  61.0729828  83.5911789  43.2173729  60.1923866  82.5576019
  12.6305780   3.7014010  25.0925922  12.7300396   4.5646911  25.4939270
  11.7159052   3.6716506  24.8120232   9.2937651   3.4669387  66.7292862
   8.9464216   2.9717579  65.9874115   8.8166733   4.2964935  66.7079849
  28.5402641  67.0457230  38.6095314  28.3822441  66.6737289  39.4772186
  28.8580780  67.9317932  38.7830582   4.0195074  57.9019241  48.6037216
   4.0594935  57.0335999  48.2029190   4.0155091  58.5078125  47.8626938
  16.3568134  32.8654518  65.1354218  16.0947628  32.7332878  66.0465240
  17.2955055  33.0473480  65.1801682  73.2855377  56.1891975  80.4965057
  73.6830673  56.0840721  79.6321259  72.3635406  56.3719063  80.3154907
  79.6613922  45.8801575  46.7947350  80.1134796  46.0348053  47.6241531
  80.3573380  45.6363564  46.1844482  52.7085648  16.7714157  42.2934685
  52.6262817  16.8318100  43.2452126  52.6166420  15.8376913  42.1038857
  20.8527584  25.5038280  81.8755493  20.6248589  24.7388706  81.3472214
  21.5511646  25.9353809  81.3833923  11.7645960   9.2489338  19.9603233
  10.8942270   9.1597071  20.3485622  12.2819414   9.6935673  20.6318035
  60.5072441  25.3905563  24.4203529  60.2713852  25.8437786  23.6109142
  60.3131218  24.4698639  24.2446346   3.8809023  22.2544708  64.2043610
   4.0619178  21.4506378  63.7172089   3.9431074  22.9502716  63.5499725
  54.7945251   6.3880892  39.2941475  55.6710587   6.7123504  39.0873222
  54.2140160   7.1221972  39.0933342  18.2168159  35.6844711  53.1051674
  18.6679230  35.2342072  53.8193054  18.1004124  36.5800629  53.4223366
  27.5174885  54.3252602  83.7020264  28.3899040  54.3708649  84.0932312
  26.9464188  54.0548286  84.4210358  38.1705742  66.2127075  57.0501099
  38.5093231  67.1076431  57.0263939  37.9028511  66.0339813  56.1486588
  53.8417358   7.8204312  51.1282806  53.0239601   8.2182665  50.8296089
  54.4469109   8.5564442  51.2192650  56.9624977  68.4404907  82.0206680
  57.4693375  68.5360336  81.2143097  56.4371758  67.6525269  81.8814240
   5.6526952  47.6862030   7.5913754   6.0336595  48.5558701   7.7129245
   5.7455158  47.2626534   8.4447355  32.3518448   2.8747249  79.1296616
  32.5832176   3.4253314  78.3816376  31.4848709   3.1822035  79.3943100
  18.0144024  63.8116188   1.8797922  17.2111034  63.3137474   1.7279133
  18.6873684  63.1447105   2.0161099  19.1293831   2.4598045   4.7310081
  19.1980171   1.5297989   4.5151138  19.1893826   2.9067502   3.8866909
   9.9540682  30.1015949  55.5638199  10.8850508  30.2553310  55.7246590
   9.6204634  29.7618237  56.3941765  74.7922821  31.3751488  60.9689598
  75.0041046  31.9434185  61.7095222  73.8932800  31.0911579  61.1344452
   4.8361378  70.7350464  21.5768471   3.9209545  70.4549026  21.5630150
   4.8932395  71.3299561  22.3245468  46.7321014  14.6691427   9.6938658
  45.7906799  14.7685099   9.8355665  47.0125923  14.0535955  10.3711090
  23.5159092  55.9767914   6.4068151  23.5686531  56.6307335   7.1038184
  24.3582230  55.5232887   6.4396358  62.1101036  26.5975494  21.3776970
  62.4206924  26.4596710  22.2725487  62.4987373  27.4319839  21.1151791
  52.7299194   5.4875836  24.4625435  53.1706619   6.3183432  24.6409149
  52.8017426   5.3770771  23.5144615  25.1175728   7.0249095   1.4800680
  24.9290314   7.7594357   0.8959827  24.2568092   6.6764612   1.7122357
  34.7369957  64.6435776  60.1440849  34.9722290  65.3406982  59.5317802
  35.4657211  64.0249481  60.0941391   5.2133284  36.1493187  57.5901985
   5.0874224  35.5892258  58.3561478   6.1634722  36.2259560  57.5031090
   2.7016723   0.6379067  72.9123383   3.3991642   0.0170914  73.1228790
   3.0770488   1.4959627  73.1099854  74.9951706  22.2031403  61.1535225
  74.7657700  22.7943630  60.4365387  75.9226990  22.3737831  61.3172264
  63.8746948  34.0346565  62.2175217  64.2192383  33.4748039  62.9132881
  64.6253128  34.1955299  61.6457520  72.5289688  13.7277069  25.1692410
  71.9333801  13.5467834  25.8964081  72.6692200  12.8753977  24.7567730
  68.4138718  44.8909607  57.5725021  67.4967194  44.7147484  57.3627090
  68.5715561  45.7727966  57.2352638  33.2967033  62.8444252  64.1019974
  33.9139595  62.1199493  64.2037964  32.6374969  62.6944427  64.7796326
  12.3798265  43.5539856  43.0238113  13.2944441  43.4390564  42.7659378
  12.3592567  43.3092690  43.9489708  68.7368393  21.4122295  58.5197563
  69.1907120  21.6380596  59.3316879  68.9656372  22.1167660  57.9135323
  56.9786644  67.9166870   6.2073302  56.8076286  68.1782455   7.1120768
  56.1209679  67.6658554   5.8643060  78.5494614  13.0616579  72.4885941
  78.9963379  13.8202057  72.8642731  77.8408661  12.8722687  73.1036224
  25.5078297  36.8540573  67.0442734  25.1857700  37.2173004  67.8692398
  25.7113476  35.9411507  67.2477875  68.0004730   9.0623722  75.3684769
  68.1687164   8.1764736  75.6895828  67.0759583   9.2161198  75.5630798
  83.5141754  50.2725906  81.4855652  84.4571075  50.4214478  81.5559464
  83.1492233  51.1359711  81.2916183  41.7415276  44.5479164   1.1072959
  41.7903519  43.9045258   1.8143276  41.5807686  45.3803482   1.5516447
  32.5750504  66.5123215  40.1026039  33.3360405  65.9857101  39.8580475
  32.3978233  67.0500031  39.3307724  52.7854614  62.1530418  74.2742767
  53.7240295  62.3361168  74.3167191  52.6540756  61.4316940  74.8896027
  68.5450363  22.6271648  72.1231689  67.6319199  22.3424435  72.0859375
  69.0356064  21.9120865  71.7179031  40.6729507  28.7541924  27.6559448
  40.2081680  29.5752048  27.4942455  40.6046295  28.2737751  26.8308601
  66.8983917  39.5518990  31.3216705  67.4196243  39.5277939  32.1241493
  66.9387894  38.6575737  30.9828777  75.7405014  15.1240492  35.2354813
  74.9558258  14.6246414  35.4615364  76.3065491  14.4927082  34.7913742
  84.6514893  68.2758179  53.0780296  84.6049805  68.5541840  52.1633835
  84.9877625  69.0410461  53.5444794  85.5516891   3.8765612   7.6813641
  86.2667465   4.5128784   7.6756864  85.9243622   3.1012294   8.1011362
  42.7498970  20.5465546  18.7383289  42.3882027  20.7870731  19.5912991
  42.4992790  19.6301403  18.6216850  75.0518570  20.1147518  56.8017845
  75.0293274  19.8303337  57.7154732  75.7542877  20.7642403  56.7703590
  22.3785744  52.7770462  40.1175423  22.6644020  53.1879845  40.9334259
  22.1362553  53.5103760  39.5520821   6.2381816  18.3928890  72.7903976
   5.4470153  17.8588638  72.7189484   6.9533992  17.7577591  72.8265152
   6.7773290  45.2033920  79.0922318   7.0812368  45.6651192  79.8736954
   7.5764289  45.0115051  78.6014709  38.7125473  52.3219719  41.5836716
  38.1936874  51.5273933  41.4585457  38.3713455  52.9357414  40.9332123
  48.2384796  57.6288261   0.9998048  47.7408028  57.7159576   1.8127971
  48.0396423  58.4271393   0.5105317  12.7907066  34.7673340  76.6143723
  13.4103146  34.0402527  76.5538025  13.0316992  35.2207298  77.4222031
   6.6112614  60.7952118  86.2685547   5.7524610  60.4127121  86.0885925
   6.9391952  60.3039169  87.0217590  32.3488693  34.1625137   9.6187115
  31.5964603  33.7644577   9.1809168  33.0527840  33.5222588   9.5147448
  28.2945480  30.6079769   6.1645136  29.2174244  30.7218971   5.9374590
  27.9930973  29.9008236   5.5941682  79.1926956   5.6165457  21.0794449
  78.4832001   6.0773568  20.6316738  78.8722229   5.4938979  21.9730244
  39.1331367  42.7494583  11.1618176  38.2648735  43.1429787  11.2483807
  38.9632339  41.8117447  11.0720501  47.3329506  11.6936502  49.8394356
  46.9657593  12.3688488  50.4099693  46.6714439  11.5694590  49.1588326
  25.0287971  29.2200985  10.7641315  25.4040089  28.3632736  10.9673538
  24.8368587  29.1813889   9.8271723  22.6375370  15.7052336  84.3023224
  22.5164700  15.0083733  84.9472733  23.1496563  16.3706169  84.7619171
   1.9843966  32.1256981   6.8996449   1.5499723  32.6045494   7.6054845
   2.8809149  32.4610901   6.8990889  27.5301800  41.6741982  88.8905563
  27.1702080  40.8280792  88.6246033  27.6676941  42.1450157  88.0685730
  81.8523865  10.3498430  78.7862244  81.0090332   9.9485054  78.5766907
  82.2537231   9.7496405  79.4146500  79.5544891  30.3894253   3.4347973
  79.2828217  31.1985283   3.8681312  78.9233856  30.2746811   2.7243221
  55.7724762  61.9262199  57.2245255  56.2546577  62.0032997  58.0478058
  56.3905373  61.5111046  56.6229324  77.1658630  23.3009396  12.2526951
  76.7408676  23.5150204  11.4221659  77.8569489  23.9568863  12.3441753
  53.9686089  50.2249718   9.6755857  53.1325684  50.6640282   9.8320961
  53.7438087  49.2965546   9.6144152  39.6463776  27.3668671  43.7599983
  39.4295082  28.1946716  43.3311119  38.8182182  26.8877277  43.7885094
  26.5596638  48.4272995  83.0456543  26.1020679  47.6050644  83.2210541
  27.1988201  48.2059441  82.3683701  54.7579651   5.7796555  52.4570923
  53.9584389   5.5509367  52.9310875  54.5165634   6.5451708  51.9356079
  58.7790222  15.1722460  58.0458946  58.1638756  15.8953094  57.9233932
  58.4214783  14.6757030  58.7819901  43.0390739  43.3600578  22.4772511
  43.6482468  42.7357178  22.8713837  42.6284866  42.8748436  21.7615547
  84.5872726  31.8076572   2.6877263  83.6343994  31.7706585   2.6047480
  84.8298645  30.9536781   3.0456364   2.7675345  33.2230911  45.5673714
   2.6467829  32.3342285  45.2333412   3.1360140  33.1020927  46.4424820
  35.8979187  62.6263809  51.1433372  36.2708855  63.5052032  51.2125778
  36.3788185  62.1104317  51.7904587   9.4539776  28.7853088  84.7703323
   9.3794260  29.7391071  84.7396088  10.2680655  28.5935822  84.3047791
  21.9531479   0.7651029   3.7307355  22.0140419   1.4250871   3.0401237
  22.2294350   1.2229674   4.5246229  43.8240089  13.4321299  69.7895966
  44.3334198  13.4518194  70.5997467  43.3054581  12.6299953  69.8521652
  17.8638287  56.2006989  84.0165710  16.9399891  56.4262962  84.1254578
  18.2963562  56.5884857  84.7773438  31.6945095  52.0269241  70.7211914
  31.4194088  51.5374489  69.9459686  31.7571106  52.9339981  70.4219818
  49.4893036  37.6683998  76.9886398  48.6295776  37.4388237  77.3413467
  49.4544449  38.6177788  76.8716125  19.7503376  14.7099237  72.6344376
  20.1226044  15.3400202  73.2513885  20.1559372  13.8755808  72.8702240
  53.3240013  62.3443832  20.7442265  53.4527168  61.5540085  20.2198524
  54.1224937  62.4176674  21.2669830  59.3337288  69.1907120  53.8478012
  59.1335754  69.1875000  52.9117699  59.1181793  68.3056717  54.1418610
  60.2406197  10.9923801  27.1140995  60.0480766  10.1648397  26.6732635
  59.3881798  11.3079424  27.4140987  54.6846390   0.5494909  52.0919456
  54.5488319   0.8956560  52.9739647  55.3191071  -0.1578783  52.2073288
  54.6548576  20.4407940  71.6327820  55.0108452  19.5895882  71.3779297
  54.0697632  20.6805897  70.9141769  35.2181244  34.0544853  17.2240944
  35.0309143  33.5780983  18.0329437  34.7212029  33.5888748  16.5514088
  26.8615227  44.2307396   0.9795837  27.3718243  44.0902519   1.7771351
  26.8436241  43.3741875   0.5526991  82.0707703  21.6288242  49.0961571
  81.5321350  21.9909706  48.3926277  82.3500443  20.7740250  48.7681999
  74.5100021  51.0603943   7.3249536  74.8708420  51.0875168   6.4387865
  74.3347015  51.9764290   7.5403166  32.9072304  25.6650734  72.7792358
  32.8456917  25.0829868  73.5366058  33.3842812  25.1558914  72.1239548
  67.8400116  51.8037071  45.7395706  67.5678024  52.7016602  45.9288292
  67.3367920  51.5595589  44.9627914  31.2164536  35.0377617  24.7671890
  32.0070419  34.5309410  24.5818996  31.5402546  35.8642502  25.1253834
  68.7441254  38.3336258  73.7795944  67.8479233  38.0373917  73.6205292
  69.2896042  37.7244949  73.2819672  51.1228638  18.6979218  50.8303146
  50.8472939  18.8816776  49.9322472  51.7350578  19.4026661  51.0419464
  50.0395699  46.1068649  53.7223320  50.6307487  45.7048721  54.3588371
  49.1703148  45.7925377  53.9709778  54.3513832  52.5933952  13.0985451
  53.9066238  51.7458572  13.1083164  54.4031906  52.8473358  14.0199909
  75.6779633  62.1988029  65.9963379  74.9281006  62.7725105  66.1538315
  75.6768188  62.0575752  65.0496216   6.5844593  65.4828186  13.7525225
   6.7635565  65.3431168  14.6823816   7.4357123  65.7050247  13.3753958
  72.9428787  64.2112198   3.8526843  73.1488495  63.2798271   3.7732289
  72.5864487  64.4515076   2.9974349  27.0829411  68.0157166  35.3866501
  27.6356945  67.9311752  36.1635361  26.4392948  67.3125153  35.4729843
  28.9040070  40.1729889  41.5422325  28.9463806  41.0921593  41.2784882
  27.9680920  39.9737663  41.5668259  18.0225487  50.7094955   9.5631418
  18.3961220  50.1712990   8.8652735  18.7208138  50.7755203  10.2145243
   6.7152534  65.6200333  43.2938728   6.4492941  66.0213089  42.4665451
   5.9071689  65.5647659  43.8039474  44.5726662  21.5446930  68.5421677
  43.9621544  21.9089394  67.9012070  44.6429787  20.6194744  68.3070908
  83.1661148  64.7702866  10.3851223  82.2496490  64.4966125  10.3473673
  83.4172668  64.6407928  11.2996645  64.0080338  38.2989769  42.7511520
  63.0767899  38.3696518  42.9609795  64.0513840  37.6173668  42.0805092
  14.8561840  49.3305550   2.1183341  14.2164450  49.1063156   1.4425514
  15.6933699  49.0299454   1.7648022  80.0405579  30.3993568  67.4915237
  79.7568130  31.3067989  67.3807526  80.9782791  30.4165630  67.3001480
   3.8303871  62.1766167  73.0272064   3.0979378  62.7593803  73.2275543
   3.5927935  61.3441772  73.4356537  63.4315567  57.9398537  13.5715103
  62.6474991  57.5937729  13.1452351  63.1889534  58.0152054  14.4943848
  60.2642365  34.5010681  25.9371624  61.1749649  34.6741600  26.1755886
  59.8711662  35.3691521  25.8468380  62.5921440  36.4877472  51.6132889
  62.2163658  35.6080513  51.5793152  62.7319374  36.7240601  50.6963120
  45.3998947  39.7699661  13.8242922  44.7816162  40.4980392  13.8865366
  46.1141472  40.0111923  14.4141083   3.4137328  15.9284468  78.2520065
   3.8949008  15.8972063  77.4251251   3.2911706  15.0101299  78.4926376
  59.6554413  50.4002609  52.7392654  59.9979973  49.7092133  52.1723976
  58.7156181  50.4146233  52.5582619  33.9726677  31.0627327  12.4594231
  34.0058441  30.6193123  13.3070736  33.6247177  31.9321938  12.6574059
   7.0692883  40.4534454  44.0045967   7.8028154  39.8765259  44.2175064
   6.2959208  39.9815483  44.3135414  58.8870697  22.3107090  43.3720589
  59.2245064  22.6465836  42.5416641  58.0334435  22.7321568  43.4717331
  44.6699753  41.5189743  49.1275368  43.9202499  42.0986977  48.9931297
  45.4169312  42.1105957  49.2185059  22.3896675  42.2575493  63.7405090
  21.7958241  41.5141373  63.6360016  23.2561092  41.8610268  63.8314972
  31.0600643  19.1396599  82.0598221  30.5601082  18.6593304  81.3998489
  30.7608681  20.0449314  81.9749985  66.9893188  13.2946291  86.4808121
  67.9291611  13.4471531  86.3825150  66.5859070  14.1334944  86.2576599
  77.7097931   2.5418067  51.4204521  78.2978745   2.3975992  52.1617966
  76.8336563   2.3985136  51.7783356  71.1808167  27.3172550  61.4427185
  70.5286407  26.6354065  61.2815552  71.2030869  27.8240490  60.6309967
  69.2534637  62.3886871   3.1762297  69.5802612  61.7255745   2.5681887
  69.5925903  62.1189384   4.0297284  75.4775696  34.4554710  84.5618439
  75.7998581  33.6127510  84.2421951  76.1606369  35.0806923  84.3194580
  66.7507782  70.1224365  66.5893707  67.6467819  70.1976471  66.9176102
  66.7878189  70.4888382  65.7058487  52.6173668   9.3260050  76.2027969
  53.1701279   8.6073780  75.8957748  51.8959770   8.8945227  76.6606750
  28.0533810  43.3520393   3.6101420  27.5422440  43.5743370   4.3883142
  28.4051380  44.1892128   3.3074236  79.4464111  66.1723480   3.2267582
  80.2650986  66.4715729   3.6223037  78.9782410  66.9777679   3.0068738
  21.3095055  49.5542374  49.6200523  21.5410404  48.8437462  50.2182388
  20.5693340  49.2130775  49.1180725   1.6474128  54.6873894  80.1335068
   1.9169517  54.4634819  79.2427521   2.0649948  54.0247917  80.6837997
   6.2111626  20.0934258  62.5322876   6.1498933  19.5012703  63.2818413
   6.5325909  19.5432091  61.8180199  57.5951004  36.9351006  78.9013138
  56.6935959  36.8508224  79.2118301  57.5093193  37.1564560  77.9740219
  78.3449783  67.3519287  88.0318146  77.4455338  67.1630325  87.7643204
  78.6461334  68.0135269  87.4090652  50.4392586  64.7763062  39.9929123
  51.0517921  64.5372543  40.6885300  50.7770271  65.6038055  39.6502876
   4.0186634   9.6697216  16.8717690   4.5046096   9.2399168  17.5755844
   4.3934836   9.3102398  16.0677071  79.4286346  19.9358101  16.4047585
  80.1975861  20.2332840  16.8910275  79.5473175  18.9893837  16.3245983
  78.5869141  21.2768383  42.5965462  79.2752914  21.1006012  43.2378807
  79.0161285  21.8051319  41.9235535  66.9575424  38.5820999  22.5639725
  66.2140808  38.9154816  23.0663261  67.7114029  39.0648346  22.9029179
  36.2259598  27.2019100  82.7314148  35.9595337  28.0975800  82.5239944
  36.9339981  27.0138836  82.1153336  60.5591087   7.4043641  17.7482605
  60.4851990   7.2273097  16.8104858  61.4887657   7.2844071  17.9421139
  59.9490356  44.8654137   5.8678536  60.1022530  44.7825241   4.9266386
  60.2212944  44.0222321   6.2300072  86.6921844  48.5863228  73.2711105
  85.8524246  48.8621445  73.6384811  87.1331024  49.4041443  73.0409088
  75.3241806  65.2521667  59.7702713  75.8445740  65.7754669  59.1606941
  75.4366531  64.3507538  59.4685478  59.2947502  11.6248159  51.1966209
  58.8710213  10.8895979  50.7537422  58.8412018  11.6918821  52.0368767
  11.1399422  59.6474380   5.9163361  10.6570692  60.0900574   6.6143003
  10.7182655  59.9422531   5.1091776  77.2018661  64.8687210  46.7305145
  76.6842957  65.0908508  47.5044746  76.5691605  64.4909821  46.1195946
  52.3673096  50.8273010  87.9312744  51.4338799  50.6234550  87.9894485
  52.7249146  50.5557251  88.7766113  41.2046204  63.1383514   8.8101683
  41.6018372  62.5619583   9.4630241  41.0281334  63.9511261   9.2839661
   0.8956584  67.6160965  12.1434984   1.7608131  67.4466553  12.5163641
   0.8198007  66.9925079  11.4212694  48.5538635  69.3286057  71.6810913
  47.7090721  69.1330795  71.2757263  49.1279678  68.6191711  71.3923950
  30.0610962  41.7441750  30.8244133  29.9792900  40.9170914  30.3495712
  29.7087765  41.5567093  31.6944485  74.5333252  47.6709938  17.1923008
  74.0163803  48.1677322  17.8265362  73.8888550  47.1490021  16.7143688
  33.0790596  33.9269905  12.5221567  33.9536629  34.2768059  12.6922436
  32.8089752  34.3445435  11.7042704   4.4217076  66.0011444   7.4051294
   4.5995588  66.1343231   8.3361845   3.7430923  66.6432190   7.1966801
   1.3831234   7.1207671  27.6307297   2.2335486   6.8500056  27.9767017
   1.4090220   6.8692083  26.7075405  61.1852341  48.4935455  63.0294914
  61.5759811  47.7988167  63.5594902  61.0453262  48.0909958  62.1723976
  61.1030617  22.0395069  29.3660488  60.6887016  21.6991215  30.1589375
  61.6017990  22.8002014  29.6641064  57.3615227  67.9389954  67.4893265
  56.5350761  68.0943222  67.0320587  57.6377983  67.0706100  67.1963882
  48.3701401  56.8600883  82.1259079  49.1429100  57.2376938  82.5459900
  48.3344803  55.9614143  82.4535522  43.0450020  65.4345627  70.4591064
  43.2077408  66.2734375  70.0277863  43.9160843  65.0608597  70.5924835
   2.2258403  20.5187721  50.3109703   1.9578092  19.5998688  50.3131294
   2.1981792  20.7784977  51.2318420  12.9587584  23.4399624  51.7758713
  12.6961498  22.9118519  51.0219688  12.7408104  22.8989697  52.5348549
  43.9172516  66.6077576  41.3423462  43.0876160  66.1678925  41.1567230
  44.4527817  66.4467163  40.5654907  72.4403152  71.6201859  70.3587341
  72.1684494  72.1026611  71.1394653  71.8768539  70.8464890  70.3470001
  79.4577408  26.0566750  57.0041885  79.5408096  25.3267078  57.6177673
  78.5139236  26.1645622  56.8866730  18.0802078  67.4009323  18.3265419
  18.3656139  67.0599442  19.1741905  18.0034618  66.6258545  17.7701283
   6.9521999  68.8573380   1.2398292   6.1352472  69.2764969   0.9694111
   7.5410991  68.9775543   0.4948611  80.9432678   1.9925214  16.9170361
  80.6726913   1.0744683  16.9030113  81.0448685   2.1981034  17.8463612
  45.9019279  55.7990990  38.5122337  46.8504257  55.9261246  38.5333595
  45.5833359  56.4730225  37.9117699   3.6842222   5.5917892  76.5315704
   3.0499585   6.2241488  76.8693008   4.2043548   6.0883512  75.8998108
  53.5610924  22.6067905  65.6374283  53.5847549  22.0220871  64.8799362
  52.8417397  22.2742844  66.1742783  86.1141891  10.7265654  18.8870316
  85.7910233  10.6212387  19.7818508  86.0134735  11.6607685  18.7044086
  54.5646095   3.7143788   8.4083738  54.9533081   3.5898876   9.2741957
  55.2806015   4.0529661   7.8708339   8.2723475   6.4117398  19.8851204
   7.3758001   6.4081306  20.2204151   8.3146591   7.1852179  19.3228264
  59.7000542  30.8167095  61.7148590  60.5022049  30.3290462  61.5278473
  59.8169441  31.1359615  62.6096458  58.1456757  16.1568737  53.1797104
  58.0568085  16.3624096  52.2490692  58.8688087  16.7081280  53.4787521
  26.8801212  68.6679230  19.2076530  26.1723194  69.3121185  19.2240448
  26.4931717  67.8974609  18.7918606  13.3315229  28.9078884  14.9319534
  13.6775885  28.0330276  14.7556286  13.7625246  29.1769333  15.7431784
  50.1133537   2.8631248  47.9833374  49.7396927   3.6733856  48.3298721
  51.0234032   2.8730259  48.2798882  58.8802338  39.1281548  36.6984367
  59.6635361  38.5831375  36.6234169  59.0743446  39.9008179  36.1678276
  82.1346436   3.1829269  87.2003098  81.4772644   3.8752515  87.2693787
  82.7852173   3.5303881  86.5901794  16.4387722   4.9959950  87.5336838
  16.6129112   4.0549383  87.5157700  16.6921291   5.2697158  88.4152298
  61.6520882  13.6187248  10.6911478  61.6670609  14.4834070  11.1014309
  61.5812874  13.7995501   9.7538528  41.9290581  57.3310280  77.6851578
  42.4976616  56.5645065  77.7584305  41.0559235  57.0029907  77.9002457
  56.2061958   8.2547760  30.6626797  57.0831184   8.6384392  30.6561394
  56.3371391   7.3634481  30.9861298  50.4965248  64.3044891  12.3673973
  49.8641357  63.5859375  12.3693314  51.0016060  64.1811905  13.1710911
  65.0999756   5.2916598  82.2993698  65.7092819   6.0297885  82.3110962
  64.3510132   5.6073432  81.7937622   8.0052147  68.7189941   6.0124412
   7.1096954  69.0197601   5.8581257   8.5466537  69.4951782   5.8688831
  77.6477890  26.1165981  60.3118820  78.2698746  26.8439980  60.3233490
  78.0875778  25.4332829  59.8060112  50.9518280  34.1672935  77.5029678
  51.6499557  34.7740364  77.2565536  51.0525017  33.4293900  76.9016418
  41.8757439  61.2825432  67.1996460  42.1292877  62.1641083  67.4731216
  41.9546890  60.7535248  67.9934540  11.1965446  63.9119987  28.5012016
  10.4048214  64.1590042  28.0232944  10.9596357  64.0090027  29.4235325
  64.2255173  49.0261993  41.7140617  64.5947723  49.3075676  40.8769722
  63.3955116  49.4983253  41.7805061  76.8957748  32.4882126  82.4155655
  77.7358856  32.8558388  82.1411819  77.1224670  31.8545971  83.0962830
  49.3556252  18.6900520  59.3404655  49.9091187  19.4483852  59.5270424
  49.9722099  17.9691181  59.2127571  84.3814392  23.8009415  86.4573288
  84.2663498  23.0622654  85.8595428  83.6104126  24.3491898  86.3118210
  72.7390442  63.9381943  81.7874146  72.9974365  63.0184097  81.7285767
  71.8777924  63.9721336  81.3710861  46.1815567   1.4583811  36.8761482
  46.0603943   2.1438632  36.2191353  46.1168938   0.6402704  36.3834572
  86.9918594  42.9961510  43.0938835  86.4232254  43.3297997  42.3999367
  86.3897552  42.6289291  43.7410736  42.5722847  25.1704712  23.9551010
  42.0929260  25.5218334  23.2047729  43.4587097  25.0230770  23.6253204
  35.5864639  27.4042015  14.8769236  36.5274582  27.2306938  14.8513832
  35.3247147  27.4413853  13.9569588  50.7333031  41.7540016  30.2575073
  51.0508423  41.4061127  29.4242153  51.5281143  41.9593544  30.7497787
  69.3097763  59.9970322  76.2328873  70.1671448  60.1445618  76.6321259
  68.9654770  60.8757896  76.0732956  11.4874125  42.2975121  88.0172501
  11.3003302  42.8596878  87.2654572  10.7751064  42.4743805  88.6317139
  83.5442276  65.4510727  76.8175659  84.4123917  65.6120834  76.4479752
  83.6240921  64.6042252  77.2565460   9.4059601  68.9256592  55.6132050
   9.2093182  69.7465973  55.1619492   8.8423758  68.2784042  55.1893387
  79.0111847  68.8906631   3.0645866  78.4677353  69.3468552   2.4221089
  79.7884369  69.4419098   3.1553879  74.2008743  12.9880209  52.3420944
  74.0468216  13.9199104  52.4972725  73.6053314  12.5431356  52.9451141
  62.3193092  51.1434555  72.6695099  62.4817696  50.5667953  71.9229889
  61.9402962  50.5708923  73.3364105  35.4825058  11.8874607   5.2869740
  34.7008629  12.3695173   5.5569520  36.0632439  11.9279795   6.0467987
  60.0708237  16.8670311  50.5316086  60.4724312  16.0149059  50.7013893
  59.8636589  16.8522663  49.5972137  17.9066505   3.6252167   1.6338207
  16.9656944   3.7450445   1.7621779  17.9876232   3.3132894   0.7325014
  86.1771774  44.7335052  50.5357170  85.7752075  44.7740364  51.4034767
  86.8652191  44.0735474  50.6210632  82.3240204  33.6065331  72.4891815
  83.2487564  33.7593307  72.2948837  82.1245117  32.7725983  72.0637665
  12.9907207  48.4744949  83.6869659  12.6374521  48.7430992  82.8388519
  12.2318983  48.1464577  84.1694717  55.5753365  67.0118561  48.5760956
  55.3004150  67.6166992  47.8870277  56.0116692  66.2992172  48.1091919
  73.8851929  63.3957901  33.6552277  73.5518723  62.5262718  33.8767242
  73.4646225  63.6084480  32.8220863  29.9246845  48.7776833  29.9891567
  29.9839401  47.9265289  29.5552769  29.2363796  48.6649437  30.6447163
  76.4200516  31.0407429  20.4851112  77.1756897  30.9851093  19.9001770
  75.9549103  30.2143745  20.3547649  41.2099953  48.5777016  66.5208054
  41.9767227  48.0811768  66.8068466  41.5729103  49.3502007  66.0874786
  22.6522408  37.5786972  73.8570862  22.2340221  38.1930695  73.2538681
  22.2531509  36.7330475  73.6525574  55.3948822  57.2121582  29.6462746
  54.8265495  56.4570160  29.4946728  55.2660561  57.4272575  30.5700531
  51.5678864  28.2563629  10.7601118  51.0535889  27.6274261  10.2539816
  51.2906303  29.1117229  10.4319086  65.1613693  34.6048927  49.2686081
  64.4835358  34.2521286  49.8450890  65.9837952  34.2972679  49.6496887
  53.2079620  44.1426353  21.6566391  53.7852554  44.1903419  20.8946133
  53.5187874  43.3804817  22.1452560  65.6205978  43.5888939  63.1771851
  65.2996902  42.7276688  62.9097099  65.6370850  44.1002121  62.3681679
  78.7969666   0.8840317  60.9696808  78.8513489   1.2196299  60.0748901
  78.6035538   1.6548340  61.5032387  38.9599113  63.6533279  57.9841232
  38.5805244  64.5247803  57.8707008  39.8669014  63.7472076  57.6929359
  38.4881248  66.5098419  27.5327034  39.2728157  66.8800354  27.9369946
  38.4688148  66.8904343  26.6546307   2.9283192  50.4871025  46.0555077
   2.0447931  50.6408310  45.7208748   3.1455190  49.6026649  45.7608452
  67.6067810  56.0115967  12.2925768  68.0314178  55.3701248  12.8621616
  67.9919586  56.8500671  12.5472069  80.9552841  59.6418266  72.3989105
  80.8565216  59.7199249  71.4500275  80.4757690  60.3911934  72.7521133
  73.1869965  42.4378090  66.2443390  73.7305450  42.9666138  66.8284225
  72.7162933  41.8431053  66.8282852  63.2013397  33.6065979  50.8875313
  62.2930450  33.8932838  50.9826469  63.4481201  33.2993622  51.7598495
  74.1194153  64.2136612  17.1528950  74.4772186  63.6149139  16.4973774
  74.3747406  65.0839996  16.8470364  72.3403320   9.6027555   1.1568004
  72.6885452  10.4233408   0.8080588  72.2404327   9.7644634   2.0949373
  38.3520775  62.3591003  20.1187077  37.7076454  62.3818359  20.8261127
  38.8013344  61.5213432  20.2308083  14.5042467  12.0238256  18.1466560
  14.8497562  11.4980001  17.4252949  13.6176233  11.6899281  18.2831974
  23.9360905   2.0725765  19.9357681  23.2304611   2.7163563  19.8735695
  24.4531078   2.2064021  19.1414032  38.3530807  49.1981125  31.0335045
  38.0348167  49.9104385  30.4789486  38.3938751  48.4403267  30.4501266
  43.8387299  29.4511948  66.5028763  44.0875473  29.3310184  67.4193192
  43.0197525  29.9452991  66.5398560  54.3060875  49.9777908   5.1420012
  55.0783119  49.4254646   5.2638149  54.4279938  50.3729172   4.2787251
  79.5557938  64.3984756  42.1255226  79.0580063  63.6244698  42.3888741
  79.1513596  64.6749878  41.3032036  10.2663002  64.6884689  73.6990128
  11.1588306  64.4037170  73.8953171  10.3293695  65.0956497  72.8350296
  79.1901855   8.6509943  46.4383240  79.7804642   9.2061739  45.9288330
  78.5285339   8.3639898  45.8089828  32.8340034  34.5897179  77.0144119
  33.0285530  33.9893227  76.2947540  31.9968128  34.2829399  77.3625946
  76.2726288   6.2750373  47.1309319  76.9458542   6.8652720  46.7923737
  75.4494171   6.6383405  46.8045006   6.5761938  71.2516174  75.1985321
   5.9910316  71.4524536  75.9289322   7.4311256  71.5773315  75.4800262
  74.2170563  14.9432468  66.0894852  74.8885727  14.8351278  65.4159851
  73.4190063  15.1464329  65.6015778  79.5573120  18.7055893  51.7674294
  80.2114716  18.1515045  52.1932182  78.9708328  18.0895538  51.3283691
  81.5679474   9.0259705  57.8170242  81.4962616   9.8596296  58.2818985
  82.4971085   8.9523649  57.5991287  68.6774979  22.3082714  19.0230579
  68.2073517  23.1131725  19.2406101  68.9088669  21.9293804  19.8710785
  38.5663795  52.8430824  29.7251148  37.6941986  52.8127174  29.3319111
  39.0558167  52.1540642  29.2757378  42.3341026  21.5011845  71.9881744
  42.6909142  21.2796326  72.8483047  42.2347145  20.6582146  71.5457306
  48.1706924  -0.2102337  53.5963898  47.2749367   0.0405037  53.3705978
  48.5974998   0.6132317  53.8329735  67.4250336  48.4131393  51.0292549
  68.1767883  48.8547554  50.6341972  67.1466064  47.7778625  50.3696060
  59.4244499  41.5371208  61.2980156  59.8137360  41.0200348  60.5928154
  59.0458717  40.8875427  61.8904343  81.1074142  39.4074364  57.0342598
  81.3664322  40.1097450  56.4376755  81.8588715  38.8146591  57.0469742
  29.8542519  36.2025528  10.1108618  30.7435017  36.2869415  10.4548759
  29.7792397  35.2806511   9.8644838  40.5307198  61.7693748   2.0463667
  40.5494537  62.4833717   2.6836188  40.5812187  62.2059135   1.1960053
  63.6397934  62.9674072  20.9807587  63.8880386  63.0916824  20.0647011
  62.7210007  62.7012520  20.9459343  74.8503647  11.5613337  57.4089203
  74.2693863  11.7741909  56.6785851  75.2084198  10.7016935  57.1874580
  55.6369858  14.1171093  52.8554916  56.0082359  14.6670647  52.1655998
  55.0669975  14.7057467  53.3503189  49.0205345  42.4048805  73.8037415
  48.6634178  42.4773293  74.6888657  48.3671684  41.8970108  73.3226852
  12.9908609  21.0638046  83.9833832  13.5348063  21.5764618  84.5813293
  13.4503098  21.1072292  83.1447830  36.9060898  47.3281174  39.6695480
  37.2152901  46.7194786  40.3405075  37.2836380  48.1715965  39.9190063
   5.5705271  43.8597450  46.7990379   5.5934353  43.7797165  45.8454628
   4.7106934  43.5202103  47.0472984  14.5607452  14.7543678  85.1584778
  15.1859388  15.2241859  84.6065445  14.1690369  15.4332104  85.7080002
  46.9614716  52.8800468  48.8267937  47.8306732  52.5732765  48.5686989
  46.3564911  52.2791290  48.3918991  14.0022821  28.0560951   0.6171283
  14.1145096  27.6114922  -0.2230897  13.0786047  27.9291553   0.8337818
  82.1617813  65.1703339  57.4440079  81.4465637  65.3974075  56.8497581
  82.9561996  65.3940048  56.9591408  74.7273026  30.6741695  41.3237228
  75.1330795  30.5471020  40.4661522  73.8309326  30.9460506  41.1266403
  67.2448502  58.9999084  48.0789261  67.8554688  59.3428993  47.4264450
  66.3941345  59.3545380  47.8205719  84.3463364  21.0648518   1.1344459
  85.2934341  21.1609631   1.2344170  84.1523514  21.4701843   0.2892795
  76.0006943   2.9032707  73.0220642  75.4045639   2.2003295  72.7637253
  76.0387955   2.8462200  73.9767990  51.2734108   8.3313169  17.2982540
  50.6174965   8.0327110  17.9282074  51.8294373   8.9299126  17.7970047
  81.5025101  27.6449032  63.7995224  82.0233612  27.1417255  63.1736221
  80.9674911  26.9896164  64.2473907  27.6708775  59.3158989  65.5024872
  27.2644329  60.0369415  65.9832535  27.9881153  58.7227211  66.1834717
  76.5443954  59.1436005  10.9231586  76.8641052  59.9466362  11.3344374
  76.2468109  59.4204292  10.0565357   8.0059605  45.2042274  26.8688374
   7.2763886  45.8237305  26.8557110   8.1777964  45.0169716  25.9459934
  17.6055012  36.4497871  41.1338806  18.3832188  36.8850899  41.4830208
  17.7476139  36.4282455  40.1875343  37.9876251  62.2688713  61.9667702
  37.9084778  61.3217659  62.0805931  37.3456497  62.4832382  61.2899017
  24.1969452  22.3936787   0.7413316  24.6876659  21.6386585   1.0659376
  24.0682755  22.9454079   1.5128701  54.3538513   4.2305222  76.2140427
  54.5994682   3.7744441  77.0189667  54.9757919   3.9128468  75.5594406
  78.9486084   6.1131401  53.1203308  78.0264053   6.3536606  53.2093010
  79.1229095   6.1756339  52.1812134  85.9587250  45.0161438  18.0042725
  85.1011276  45.2436676  17.6451321  86.3370438  45.8542328  18.2701950
  74.2985001   6.5093179  49.3135223  74.1120682   7.3876352  49.6452408
  75.2540665   6.4627848  49.2826424  53.3553276  64.1335907  14.2888737
  53.6515961  63.3522148  14.7556858  53.8076363  64.8573761  14.7222061
  25.1343269  57.6779022  82.0485382  24.2075920  57.7959976  82.2569809
  25.5442696  57.4710884  82.8884201  62.1026649  17.4344101  29.8137169
  61.9449196  17.1119614  30.7010574  61.3955460  18.0602455  29.6570606
  27.7361469  63.1579094  59.1868286  27.9512386  63.7812119  58.4929504
  26.9245453  62.7437248  58.8935928   7.4077959  34.0501518  30.1620426
   8.1768265  34.4558144  29.7617149   6.8669796  34.7880554  30.4435539
  46.5682869  62.3189278  71.3150330  45.8069992  62.5963097  70.8053970
  46.4519386  61.3752136  71.4250412  12.1413107  41.7265930  28.9513206
  12.9449167  42.1942825  28.7239132  11.9103947  41.2464905  28.1560783
  72.5547562  61.6119499   4.1124740  73.3014297  61.4659195   4.6933265
  71.8857346  61.0026779   4.4246106  75.4888916  34.5980186  52.8870926
  75.8279800  33.9644661  52.2547493  75.8200760  35.4424095  52.5812378
  57.8152390  17.8170071  20.6350613  57.0004425  18.2024879  20.3129730
  57.8110466  17.9986591  21.5748577  75.2724304  63.8760529  44.9873161
  75.0439987  63.5248833  44.1266594  75.2618408  63.1145744  45.5672073
  42.6196518  16.7396851  21.4576302  42.7091331  15.9216223  20.9687557
  42.9528580  16.5343628  22.3311558  26.2556648  45.9176483   7.6415935
  26.6498356  45.2734108   7.0535274  25.5536118  45.4403343   8.0837774
  69.8400192   4.5972819  35.7580452  69.6065445   3.6765532  35.6398163
  69.5616379   4.8022599  36.6506348  56.1419868  64.5085526  65.7333221
  56.5780373  64.7905884  66.5374069  56.6194878  64.9535370  65.0331726
  62.6921616  41.9804802  20.5241337  63.2913704  41.7706642  21.2404823
  61.9089928  41.4614677  20.7071800  69.8098831  21.0018787  14.5855961
  69.6427383  21.2674274  13.6812859  70.6557083  20.5550499  14.5515699
  51.5352936  38.5681076  35.9058342  51.3344421  38.2963829  36.8014107
  50.6810455  38.7452736  35.5120087  21.3642979  49.0878448  82.0879745
  21.7552719  48.2741890  81.7696381  21.4983845  49.7128067  81.3754578
  74.8292694  30.8747883  35.3415413  75.7009201  30.5043468  35.2028542
  74.8910065  31.7668304  34.9999580  21.2021542  67.0658112   3.8070490
  21.4268913  67.9081726   3.4118969  22.0020523  66.5453644   3.7327001
  84.0047073  11.9631968  85.1420898  83.8783646  12.9043913  85.2621841
  83.4983368  11.5615530  85.8481369  58.9975967  29.5081806   1.2133952
  59.1716232  30.4405251   1.0842352  59.5771217  29.2535839   1.9314250
  67.7860413  31.5181046  73.4503937  68.4325790  30.8930035  73.7782135
  68.1143570  32.3720474  73.7318497  67.2732391  33.5668983  51.3537521
  68.0879211  33.1166496  51.5769043  66.8611679  33.7490540  52.1982956
  28.9732590  19.1225147  19.3347912  29.1767807  19.1688900  20.2689552
  29.7498608  19.4778652  18.9025364  62.1864052  66.6818924  23.3812256
  61.7544403  66.5802307  22.5331097  61.5646324  67.1839752  23.9080448
  81.4734116  14.4833965  50.2711906  81.7465820  15.2398195  49.7521210
  82.2712631  14.1974564  50.7160606  27.2014351   3.7866719  85.1034164
  27.1616993   4.1400990  84.2147446  28.0203648   3.2917128  85.1279373
  41.5911560  33.3666840  10.8268595  41.9053307  34.2357712  11.0762930
  41.7151260  32.8328400  11.6116352  73.4137726  49.4439812  61.1767693
  73.8060074  49.1398392  60.3583031  73.6479492  50.3708534  61.2246819
   7.3564939   2.3761883  21.5917835   6.6805429   2.2165911  20.9331112
   8.1160660   1.8845052  21.2794876  12.9702377  38.0332756   8.7005501
  12.5045023  37.2199745   8.8951387  12.7546349  38.2200165   7.7868352
  77.9893951  63.0764771  61.3876572  78.1580887  63.8707085  60.8807335
  78.8243942  62.8822060  61.8134079  79.8276901  35.8608818  11.3844185
  79.7936172  36.5193481  12.0783148  78.9164276  35.5948486  11.2617245
  30.2042789  28.9330921  75.8028564  29.3121243  28.8592720  76.1417465
  30.1113491  28.8195496  74.8569717  50.1667862  46.5426369  15.9145632
  51.0823097  46.3150787  15.7524796  50.2003899  47.1724739  16.6345692
  55.9029121  31.3449726  64.3827744  56.4514427  30.5710983  64.5110855
  56.0717468  31.8884983  65.1523895  34.9023132  42.2960434  71.9583588
  35.4726868  43.0273323  72.1952591  34.9049873  41.7303238  72.7304916
  10.0912981  43.7515068  36.4187851  10.2661123  42.8189583  36.5453606
   9.8444185  44.0689659  37.2874069  55.3870316  43.2244835  62.4048882
  56.3416977  43.2673950  62.4596939  55.1299591  42.6649780  63.1377602
  43.3957100  18.5580502  87.4062347  42.8513832  18.1796074  88.0966873
  42.9143372  18.3815231  86.5979385  42.4977798  45.8850784  17.3550034
  43.2033615  45.3047867  17.6407528  42.5265961  46.6180229  17.9699783
  66.5070190  52.0696259  53.4502678  65.6137085  51.7281532  53.4906654
  66.9282455  51.7326012  54.2409744  56.1037445  18.1265678  46.1216698
  56.1482010  17.5598431  45.3515549  56.3868294  18.9842072  45.8045769
  61.6744804  23.3780098   5.7740188  62.5704193  23.1761036   5.5042777
  61.2480736  22.5241299   5.8467979  67.2913437  49.4326515  85.7869873
  66.4790573  49.5655327  85.2983475  67.6687775  50.3086548  85.8669739
   4.4786873  12.0230093  15.5830116   4.0822310  11.3305893  16.1117916
   5.2615089  12.2785473  16.0709896  75.5746765  62.3053284  15.8775463
  76.1798019  61.8357544  16.4516144  76.1039505  63.0028687  15.4908447
  82.6343613  36.7329063  45.3778152  82.4819031  36.2531281  44.5636902
  83.1308746  36.1244164  45.9250336  37.1645470  41.5899506  78.7651138
  37.7028885  40.8217201  78.9554749  37.0854340  42.0411987  79.6055603
  50.0452805  49.2466240  64.1740494  49.8182106  48.5137291  64.7463608
  50.9587898  49.0897675  63.9350395  64.9869843  44.6348457  15.6597805
  64.0765762  44.8482056  15.8643999  65.4289169  45.4830437  15.6212158
  75.3871689  60.9541168  80.0804672  76.2593842  61.2699509  79.8444290
  75.5499649  60.1663551  80.5992737  73.9163742  46.5819397   5.1741085
  74.0574493  45.6685486   4.9250083  74.1899338  47.0844688   4.4067340
  60.7183189  41.2178421  87.6309814  60.3050766  42.0719185  87.5044327
  60.7199593  40.8211288  86.7598648  26.8593311  14.6598110  35.5076637
  27.8137989  14.7249317  35.5390244  26.6398926  14.0264568  36.1909943
  65.0136414  33.1291122  64.5736465  65.3030624  32.3777885  65.0913086
  64.6836777  33.7528038  65.2204514  51.6682434  17.4986839  76.1301575
  51.4076767  18.2794323  75.6415176  50.9615593  17.3644333  76.7616653
  85.5683823  12.0136824  36.5052071  86.3545761  11.4676752  36.5047340
  85.6100006  12.4927750  37.3328362  72.3023682  21.7615013  57.6673889
  73.2100372  21.5539913  57.4453354  72.2084503  21.4812851  58.5778236
  81.3589935  54.6068115  56.7793236  81.2703323  55.4932518  57.1294556
  80.7164841  54.0913429  57.2668686  74.9093246  42.3406219  30.8723278
  74.0964432  42.0050545  31.2502747  75.2652740  42.9201698  31.5458660
  80.1669159  34.6568565  75.5164108  79.3244553  34.2966270  75.2394333
  80.3238754  34.2654839  76.3757248  54.8633995  12.7358923  79.2647171
  55.6735992  12.8974476  78.7812805  54.7900810  13.4784851  79.8642273
  82.4999695  64.4636383  74.4183884  82.8407135  64.8174515  75.2399368
  82.4043350  63.5255623  74.5829926  52.0625839   9.9340286  79.9508667
  52.1520081  10.5567656  80.6722794  51.2200470   9.5070887  80.1060562
  59.3600655  47.7636986  70.5407944  59.6061478  48.0772514  69.6705322
  58.4958954  47.3707161  70.4182816  74.8337784  60.4034538  60.7295685
  74.1584396  60.4186707  61.4077454  74.9583435  59.4742584  60.5364151
  40.2165489  40.9368935  84.7958679  39.4211769  40.8903198  85.3263779
  40.4061279  41.8728256  84.7301102  48.0060539  57.5329704  45.5457802
  47.9278297  57.3017845  46.4713440  48.7587242  58.1232071  45.5091209
  70.3245468   4.7378860  13.3274755  70.4356842   4.2797832  12.4943953
  71.2170715   4.8896947  13.6382561  85.3802643  68.7290955  18.0173683
  85.8112717  68.1990204  18.6878071  85.1916962  69.5599976  18.4535770
  85.3180466  67.1148758  80.2852707  86.0489120  66.5320435  80.4911194
  85.4605637  67.8825226  80.8390274  75.3958359  35.3189354  69.2587662
  75.3614197  35.1592178  70.2019196  74.8127289  36.0653877  69.1208115
  65.7103271  13.4163523  81.6835556  65.6661758  12.4633789  81.7618179
  65.9575500  13.5705957  80.7717819  67.7024460   5.2044878  47.4327774
  68.1012421   5.9866910  47.8140259  68.3295822   4.5040436  47.6125221
   2.9625964  39.4458046  39.9923058   2.5581448  40.2509575  40.3153801
   3.1282632  39.6163292  39.0651016  82.7892990   8.8844185  81.0316696
  83.2413406   8.0641394  81.2292328  82.7028046   9.3204212  81.8794022
  68.2926025  48.9995613  25.5203381  67.3664169  48.9200249  25.7485714
  68.3973007  48.4447670  24.7473755  27.3318043  12.1678600  69.8155136
  27.3759098  11.5508013  69.0850830  26.4116516  12.1615458  70.0791550
   0.3364154  17.8484154  65.3255463   1.0775846  17.2920208  65.0861206
   0.7291281  18.5761204  65.8076782   7.9498200  35.6633339  57.2418404
   8.8298912  35.4215660  56.9533005   7.5255656  34.8288612  57.4415855
  54.2850342  60.7421036  10.4104805  54.1225891  61.4206848  11.0657415
  54.2213326  59.9198418  10.8963394  75.2432938   8.8402719  66.3153610
  75.1232986   7.9993553  65.8741226  76.1702652   8.8556757  66.5534973
  75.3454895  51.8413582  51.5483284  74.4712372  51.4528236  51.5172539
  75.6356201  51.7064476  52.4504662   1.6946691  30.7399235  38.9996185
   0.8934811  30.4067249  39.4037323   1.4416183  30.9447384  38.0994797
  42.9499893  35.3294258   6.4239078  41.9950447  35.2782021   6.4650288
  43.1423531  36.2653160   6.4817228  31.4085407  27.0594311  88.0123444
  32.0242882  27.1898079  87.2911758  31.9440346  27.1386490  88.8017807
  38.2123146  41.2326431  29.9419842  38.8878136  40.6520271  29.5915279
  38.0071030  40.8688889  30.8032646  50.1756248  41.1279907  20.6921940
  49.5609703  40.8361168  20.0189629  49.6543312  41.1611023  21.4943104
  61.9404144   9.3509760  52.8915596  62.5648689   9.0248604  53.5395851
  62.2390022   8.9777603  52.0622292  71.4237595   7.5599051  74.7429428
  72.0056992   7.0753336  74.1574783  70.9762268   8.1848183  74.1724777
  31.3445644  39.3318596  62.7683907  31.3812962  40.1986542  63.1728020
  31.4065208  38.7218132  63.5033989  12.8994560  62.1961441   6.1167326
  12.3511667  61.4355659   6.3094358  13.6408396  61.8392067   5.6276717
  76.0896988  40.1477051  59.7246971  76.5657043  40.2915154  60.5426025
  76.4758301  40.7716064  59.1099777  35.1771278  12.4661551  15.5210590
  34.7279854  13.1964169  15.9467564  35.3598709  12.7807236  14.6356878
  43.1554413  69.7410431  73.6156921  44.0139809  69.4864731  73.2775497
  43.3504066  70.3064499  74.3630447  78.3129959  46.7428246  25.6013851
  78.3449020  46.3650627  26.4803104  77.7767334  47.5297623  25.6982365
  10.8867445  36.6840935  67.8727951  10.0855246  36.3681602  67.4551010
  10.5865831  37.3423729  68.4995346  53.9955750  39.1370506  73.5660858
  53.0603371  38.9657173  73.6765747  54.0432930  40.0641212  73.3326416
  11.3806906  35.0820847  21.1308212  11.5267096  34.8189659  22.0394897
  10.8366823  34.3850822  20.7641106  29.6578732  66.1495514  74.5099258
  29.8568439  67.0522995  74.2615509  30.2938175  65.6223679  74.0263138
  50.9426079  33.0285072  85.2490540  51.1896515  33.8809166  85.6076584
  51.0074577  32.4282684  85.9918442  24.7539558  17.6719608  68.3924713
  24.0143394  17.0842686  68.2381439  24.9819679  17.5337048  69.3117752
  32.1332588  23.2689056  18.2145653  31.9877892  24.2133198  18.1584187
  32.9072266  23.1784153  18.7704544  15.7894669   5.4956117  19.6563950
  15.6427307   4.7676730  19.0524044  16.4205284   6.0570183  19.2060432
  56.9522896  46.4001884  89.0239334  57.7178383  45.9859200  88.6257477
  57.3170395  47.0439873  89.6311569  72.9172745  43.8854332  50.4218750
  73.2001953  44.1602974  49.5497246  73.6217422  43.3176994  50.7343407
  41.7133064  65.0597000  63.9426651  41.8494415  65.9463959  64.2765274
  40.7873726  65.0341492  63.7013702  25.9961758  37.6967239  54.7034569
  25.5818558  37.0246315  55.2446251  26.2152100  37.2460938  53.8878632
  43.1714706   3.0892606  75.8280716  42.5700340   2.8866296  75.1115189
  43.9425125   3.4575541  75.3966980  55.8147278  66.4740372  24.2042236
  56.3126488  65.6834793  23.9960670  54.8992882  66.1965103  24.1698132
  64.0286407  43.3809509  45.5379486  63.4044456  43.3772316  44.8122749
  64.4561005  44.2355614  45.4818115  10.4658022  20.6321049   2.0265901
  10.0853729  21.4926682   1.8506958  11.3757801  20.7093697   1.7398808
  32.9925385  43.2287178  44.3165970  32.7115211  44.0560493  44.7074776
  33.5044365  42.8011208  45.0031471  43.1818352  29.5402260  63.7389412
  43.4365540  28.7627926  63.2419968  43.3934364  29.3239651  64.6470642
  24.1851025   9.3234549  67.1146011  23.7913094   8.8500156  67.8474121
  23.6633415   9.0654745  66.3547058   2.6995566  63.9926834  11.7911882
   3.1106882  63.2785454  12.2782278   3.3476295  64.6969681  11.8060770
  23.0101757   5.1263461   6.2457976  23.9586868   5.1058445   6.3728433
  22.6713371   5.5429087   7.0381961  41.1150856  13.7127371  84.4623184
  40.5644722  13.9230347  83.7081070  41.2375984  12.7647171  84.4125061
  44.1291275  28.5895424   9.1935596  44.0442429  29.0232792  10.0426168
  43.7298393  27.7292938   9.3230753   0.4572091  18.5324173  24.9090405
   1.3428819  18.2414684  24.6918659   0.5182940  18.8284035  25.8172760
  13.0167179  12.0375795  88.1649246  12.2886620  11.4173508  88.1264114
  13.4467430  11.9552822  87.3137283  61.2533684  50.0005112  44.2279282
  60.9210014  50.7680931  44.6933136  61.0222054  49.2609749  44.7899628
  54.5396843  38.6154137  24.2168293  55.2255898  37.9693718  24.3853512
  54.8319244  39.0752678  23.4298325  31.6479340  53.3689537  47.4909401
  31.0583382  53.8853683  48.0404205  31.2981987  53.4679108  46.6054344
   3.0662203  42.4510536  46.8419495   2.5450175  43.2336044  47.0213737
   2.9626226  42.3046722  45.9016991  44.0422745  70.5707245  59.6534271
  43.7464409  69.9924088  60.3564720  44.8877144  70.2099838  59.3863487
  17.7573853  37.9133415  26.9004383  17.4060459  38.8029327  26.9380608
  18.4861965  37.9172249  27.5209637  43.9578514  61.3006935  85.2971344
  44.5769653  61.9379082  84.9409256  43.7797432  61.6103745  86.1851730
   4.7413192  33.2172508   6.6132660   5.6590858  33.4250717   6.4379191
   4.3128586  34.0698700   6.6887054  27.3621082   4.3300881  82.5478668
  27.6491661   5.1603689  82.1677856  27.0847492   3.8059032  81.7965088
  30.5821934  34.7218513  53.1541786  31.1694546  35.3892021  53.5091438
  30.6536732  33.9896736  53.7665787  83.7877197  69.9636536  38.3781090
  83.8928299  70.4921646  37.5869980  84.5603943  70.1658707  38.9056625
  79.5376587  59.4220428  82.3627167  79.0911331  60.2577324  82.2267990
  78.9078903  58.8903694  82.8494797  14.6448841  56.7528305  29.8908539
  14.7780762  56.2013474  30.6617985  14.6283894  57.6458282  30.2351208
  37.0795555  50.1843338  28.9432201  36.4069633  50.7543488  28.5704765
  36.9554062  49.3453979  28.4993687  56.7892532  58.9877434  85.6435471
  57.5652733  59.5435371  85.5719986  56.0889397  59.5012169  85.2408829
   4.8702779  70.9594116  57.9883881   5.1679220  71.3336029  57.1591568
   5.6036286  70.4204102  58.2848663  38.4022675  49.1517639  22.1610661
  37.9053764  48.3341141  22.1890030  38.3363800  49.5025406  23.0492363
  37.6392136  69.3220215  54.0681038  38.0807610  69.7859802  53.3567619
  37.5044556  68.4369202  53.7294655  28.4445400  40.7699814  21.5685730
  29.2999687  40.3983612  21.3532276  28.0253735  40.1053085  22.1151428
  40.3637047  36.3302917   3.0686064  39.7529526  36.7690506   3.6608114
  41.2298431  36.5928078   3.3802493  67.4060593  67.4886856  28.2538815
  67.6362610  67.4383926  29.1816273  66.7334747  68.1683807  28.2104950
  74.9520874  54.4691887  50.3948631  74.9059067  53.5212402  50.5193291
  75.8705673  54.6871071  50.5534248  33.7057877  61.2621231   8.4281149
  33.4581871  62.1613731   8.2129889  33.4378700  60.7507553   7.6646013
  86.2117691  64.8496170  23.6122417  85.2635956  64.9662781  23.5523434
  86.3256073  63.9272308  23.8413162  65.3276978  68.5347519  58.1829834
  65.2915802  68.9572067  59.0411530  65.7638550  69.1739197  57.6195450
  71.0355759   2.5152831  29.6415215  70.8456192   3.2241106  29.0269394
  70.3214951   2.5522251  30.2778759  54.0061569  39.6772652  51.1487503
  53.6166458  39.5623245  52.0155258  53.6661797  38.9450989  50.6343765
  71.1957779  68.0174255  59.3273277  70.7218018  67.2635345  59.6783791
  72.0767136  67.9380569  59.6932335  47.2742653  68.7461929  52.2140732
  47.2433853  68.1954956  52.9963799  48.2058907  68.8126755  52.0045891
  58.0116310  15.8801556  41.4577980  57.4505043  15.5956478  40.7363968
  58.7690811  15.2963629  41.4166718  41.4892654  42.8731194  15.6329107
  41.2555199  41.9548988  15.4970140  42.4417534  42.8663330  15.7275047
  41.9184837   1.6041460  53.3834801  41.7333260   2.5353220  53.5053749
  41.2650223   1.1575366  53.9217720  39.2654228  13.3498249  49.4179764
  39.4171333  12.5634785  49.9422646  40.1212692  13.5558662  49.0420723
   5.5903301  25.0080967  14.6025515   4.8087597  24.5142536  14.8505411
   5.5151625  25.8325634  15.0830050  16.5452404  61.9992409   4.9961419
  16.2200661  61.8195648   5.8783035  16.0270977  62.7466125   4.6974840
  33.7207985  39.1098251  10.0075979  34.5799751  39.5266113  10.0734272
  33.2882042  39.5655746   9.2855253  76.2749481  26.7637615  82.9209290
  76.1502228  27.6386929  83.2885818  75.4341583  26.3260021  83.0538712
  20.9342747  39.2510338  58.8406029  20.8606453  40.0942955  59.2875099
  21.4852676  39.4309769  58.0788574  70.1764069   8.3296375  41.6475906
  70.2364807   7.8085432  40.8469124  69.4798050   8.9617338  41.4702721
  71.6082687   2.7983274  87.5708771  70.9403152   2.5651894  88.2156372
  71.5035858   3.7418180  87.4480057  16.5846252  54.7718887  68.5931396
  17.1754589  55.5185661  68.4950790  16.7602863  54.2252655  67.8272552
  59.2632866   4.6299138   5.3377166  59.1164627   3.6955526   5.1905961
  59.2663574   5.0129218   4.4604897  17.8128357  50.4198532   5.8886380
  16.9694157  49.9703636   5.9418736  17.6790886  51.1030617   5.2316976
  79.0678406  37.5598869  72.6910934  78.4667282  36.8267288  72.5592880
  79.2997742  37.5156631  73.6187134   5.6060772  26.5861263  29.8148136
   5.6257186  27.5428181  29.8390350   6.3722219  26.3179150  30.3220768
  25.9213886  41.2843246  18.2183475  25.3086338  41.7063179  18.8205776
  26.0561562  41.9285660  17.5233498  39.0673180  41.2386703  75.7051468
  40.0038528  41.3414421  75.8741913  38.8213768  42.0319214  75.2292328
  21.0621700  64.2244415  71.7624817  21.0349102  64.5938034  70.8798447
  20.5951710  64.8614273  72.3032150  67.4204254  28.8841019  19.1157990
  67.3742447  28.0149746  18.7174091  66.7204590  28.8857937  19.7687035
  32.2808914  31.9375744   7.4788103  31.6326103  31.2600117   7.6708345
  33.0093613  31.7463760   8.0695810  70.9500885  41.5527954  81.1272125
  71.7976456  41.1809998  81.3714371  71.1168976  42.4911232  81.0380478
  76.5840683  17.9359398  11.4164476  77.1571121  17.7463169  12.1593399
  75.6998520  17.7895184  11.7525330  84.8655853  20.5979671  62.9514542
  85.0629196  20.2805367  63.8326607  85.7139664  20.8645840  62.5973434
  64.7680359  10.1573029  75.4796600  64.0326233  10.5169477  74.9836197
  64.5219116   9.2475777  75.6471558  30.3077888  62.1357536  59.2251816
  30.5688820  62.7536201  58.5423164  29.4759007  62.4779358  59.5524521
  21.9498520  19.8317909   8.2792158  22.4295063  19.4043026   8.9887352
  22.6197033  20.3123283   7.7927842  28.6979752  57.6733513   9.7254467
  29.2759380  57.4758034  10.4624443  28.8910923  56.9928970   9.0805321
  42.4195862   6.2695017  77.1466751  42.7777328   5.4557376  77.5012894
  41.4867401   6.2327824  77.3580551  44.5378838  47.7102509  66.7744675
  45.0116005  48.2323341  67.4219666  44.0595360  47.0628166  67.2923965
  66.1226501  32.4733658  86.2687302  65.8067474  31.9652863  85.5215378
  66.3552170  33.3247833  85.8982773  55.5659256  19.3117313  56.3863449
  56.3623657  19.0883598  55.9046593  54.8651390  19.2359314  55.7387428
   4.0322614  61.5205612  32.4163666   4.9539065  61.3866158  32.1953201
   3.8775702  60.9391594  33.1608620  29.9655762  43.1966743  71.3640060
  30.0865173  43.0773315  70.4220047  29.1922398  43.7559776  71.4372330
  67.9459152  30.7497559  48.4977837  68.1570206  30.2825241  47.6894760
  68.6849442  31.3432407  48.6313744  21.0301571  21.9920597  14.0276146
  21.9763184  21.8660069  13.9560461  20.6961193  21.8011513  13.1511412
  63.0931244  25.4865265  86.7321930  64.0164337  25.4150753  86.4900589
  63.0617638  26.2237587  87.3418961  63.2602615   7.9645600  62.6551094
  62.7188225   8.7327747  62.8365479  63.1045074   7.3809700  63.3976669
  62.6862640  70.7301102  20.6681194  63.0928192  70.4226227  21.4783001
  61.7544289  70.7947235  20.8772678   5.6228304  28.8674984  33.5225716
   4.9338622  29.0267010  32.8774300   6.0922775  28.1033440  33.1880264
  25.9161205   8.5897675  10.4985313  26.5241756   9.3235121  10.5886450
  25.4580250   8.5538130  11.3382263   7.1720233   9.7451572  80.6601715
   8.0553932   9.8889751  80.3207474   6.9144773  10.5921364  81.0242157
  74.0194931  50.8467712   2.5444632  74.5914764  51.1086502   1.8230156
  73.1433945  50.8243942   2.1595232  30.2412872  50.6627731   7.1213937
  30.3644161  50.4299927   6.2011299  30.2460480  51.6199303   7.1290441
  32.3258171  45.8273239  29.5256462  32.2441063  46.3616142  30.3156395
  31.4557533  45.8538666  29.1275005  49.5712852  62.2578087   6.1050010
  49.3961868  62.0948410   7.0318308  49.6324425  63.2106094   6.0367265
  39.1154099  20.6227417  68.2611847  39.7326660  19.9340324  68.0143890
  39.6683922  21.3725872  68.4806595  81.8981476  66.8790054   3.8800857
  81.8865280  67.6370163   4.4644804  82.3260651  67.1962433   3.0848031
  57.6594734  21.2372341  15.6126547  57.7834320  22.1595879  15.8365450
  58.5322266  20.8521729  15.6917763  70.6679916  28.3354855   5.4880080
  70.0240479  28.3304882   4.7798114  70.9825363  29.2389870   5.5193539
  70.6466522  29.2203236   1.6508112  71.4056778  28.6428490   1.7323071
  69.9995804  28.8516941   2.2521741  25.9467335  57.1334419   2.0375147
  25.1694221  56.9953613   1.4962641  26.4048786  56.2932434   2.0174770
  43.8711357  17.3319607   5.9944801  43.5968208  17.2679691   6.9092960
  44.8197746  17.4524956   6.0367603  64.9619522  34.0387955  16.5110683
  64.5780106  33.6791649  15.7113876  65.3648148  33.2855911  16.9430637
  45.8048515  51.6599503   0.1047111  45.3441658  50.8241806   0.0306380
  46.3372612  51.5707359   0.8951640   5.1506829   3.9055724   2.6629150
   5.2153659   4.1406698   3.5885375   5.4814644   4.6735530   2.1970589
  20.8317661  65.1639481  68.5734329  21.3341713  64.4007263  68.2882767
  21.4921398  65.8360443  68.7420273   6.0104313  22.1011562  13.3693237
   5.8882861  22.9275570  13.8366280   5.8819618  22.3258514  12.4477816
  39.9679298  51.8002090  50.6688728  40.5934219  51.5511093  49.9884758
  39.1123695  51.5822029  50.2991219  51.1501999  43.9655914  59.2376862
  50.3825073  44.3998108  58.8657494  51.0179939  44.0148239  60.1844330
  77.9396210  42.2372131  58.0892906  77.3921738  42.8848724  58.5332222
  78.8150558  42.3753471  58.4508972  57.6077805  55.9095154  58.3012199
  56.9773369  55.4488182  58.8548737  57.2684860  55.8034096  57.4124832
  36.5906677  27.7349663  41.2105408  36.4352341  28.3373032  40.4830360
  35.8814163  27.9162083  41.8272629  39.0065079  23.7942219  86.4558182
  38.6622086  24.4326229  87.0804291  38.2279396  23.3935223  86.0691605
  35.3138885  46.6413612  54.2400932  35.3002243  46.3402100  53.3316040
  35.7215729  45.9233475  54.7243233  45.6713791  35.9258575  82.4728546
  45.7718506  34.9741783  82.4940720  46.5353355  36.2632446  82.7094498
  76.3597488  65.5789413  73.2543564  77.0056458  65.4971313  72.5526733
  76.0058975  64.6956482  73.3583527  63.8732872  48.8189278  18.4443436
  64.3522339  48.1186028  18.8875008  63.2959633  49.1778717  19.1182022
  51.5487862  21.4376106  66.9444504  50.9167938  20.7446404  67.1357956
  51.0113449  22.1915073  66.7014923  27.6891823  53.1190834  33.8709984
  27.9742107  53.9356155  33.4607887  27.0609322  52.7467499  33.2522087
  60.0555534  34.6575356  76.9262543  59.8535118  35.5479584  76.6389236
  59.3655548  34.1186371  76.5393219  69.4112091  66.3516617  22.0474510
  69.7092667  67.2610779  22.0286102  69.6169662  66.0140686  21.1757145
  22.4259758  66.7110214  78.0027084  21.7870922  67.4236298  77.9871216
  22.8254604  66.7284317  77.1330261  32.9420013  11.7467155   8.7379618
  32.7879791  12.2982950   7.9709749  33.7320137  12.1091681   9.1388855
  66.8866806   1.2641447  11.9155331  66.9464264   2.1798728  11.6433125
  66.3185196   1.2798096  12.6857166  76.1254730  38.2482986  85.8503113
  75.2917480  38.0096436  85.4451141  76.5122375  38.8825951  85.2467346
  44.7676086  71.0525742  46.7959938  44.4570618  71.9506836  46.9108772
  45.0119629  70.9999924  45.8720055  31.3281212  44.8070297   8.4633493
  30.3911171  44.9955254   8.5155439  31.4309292  44.3298149   7.6399851
  67.4622574   2.5925007  33.6459770  66.5261230   2.5952885  33.4462624
  67.5705719   1.8802700  34.2762375   4.5106244  27.8949871   1.0517509
   4.3252163  27.9362545   1.9899154   4.4550366  26.9637623   0.8373567
   5.6663299  39.2616081  75.9590912   5.5116982  38.8460007  76.8073807
   6.4454308  38.8237267  75.6163177  37.9978027  59.6973190  62.8464165
  37.5001564  58.9477921  62.5196266  38.2287521  59.4584656  63.7441025
  77.6730957  36.3890762  32.9076195  77.6856918  35.9392853  32.0627747
  76.8668289  36.9047661  32.8924103   1.8697438  27.6714764  82.9487152
   2.3455627  26.9148655  83.2913055   1.5473504  28.1245213  83.7278519
  75.9363861  27.8838081  69.1238327  75.3084412  27.2621193  68.7558441
  76.7356949  27.3719387  69.2476501  66.9823990  57.4086189   1.5650868
  66.8965073  56.6708527   2.1688702  67.6398392  57.1234856   0.9304991
  45.7305794  19.4644356  44.1331902  44.9167900  19.9276924  44.3316231
  45.9419518  18.9951630  44.9402466  81.5215759  47.1771507  29.8675976
  82.4200516  46.9651031  29.6145935  81.1510925  47.6077728  29.0971832
  56.6420860  46.8856316  75.8885880  55.9083824  46.3289871  76.1494827
  56.7102470  47.5354843  76.5880737  49.6078415  19.8234386  77.4730453
  49.7493210  18.8954983  77.6605148  49.6236763  19.8799038  76.5176468
  66.2967529  52.6383095  80.9274292  67.1799622  52.9677048  80.7610931
  66.2761230  52.4736786  81.8701401  76.2728729   1.8075744  34.2947998
  76.1740417   1.5267854  35.2045364  75.3765182   1.9408710  33.9865608
  84.9058990  53.5650139  52.0684814  85.2613297  52.8738785  51.5097008
  84.8129120  53.1540375  52.9279480  41.3198318  53.1796951  39.1072845
  41.5376015  53.8325500  38.4420128  41.5452766  52.3416977  38.7033424
  21.6508980  63.1475372  61.4922066  22.0455284  64.0166550  61.5638885
  20.9343491  63.1567688  62.1267967  21.6689072  12.4820566  11.2032461
  20.7654953  12.7665529  11.3415947  22.0927582  13.2282896  10.7793140
  38.9600410  63.9871712  39.9325485  38.1546288  63.4806824  39.8276253
  39.6621704  63.3454323  39.8257294  68.7744064  28.2122993   3.5340638
  68.4190369  27.3514233   3.7550554  68.0044632  28.7460670   3.3378263
  42.0076027  62.4201660  57.6659966  42.4608498  63.0556145  57.1119156
  41.8341980  61.6780548  57.0868263   4.3786492  68.9916763  77.4916534
   5.2226758  68.5705719  77.6545105   4.5633483  69.9290390  77.5504761
  78.3966370  69.8697281  35.3903313  78.2406082  70.2627640  36.2490578
  78.7325287  68.9947586  35.5848503  55.2785149  71.2936554  66.6328812
  54.9338264  71.2793808  67.5257492  55.1025887  72.1818466  66.3223953
  55.0299110  37.0052567  79.8502274  54.3862419  36.3051338  79.7418213
  54.6621552  37.5649147  80.5341644  67.5434189  42.2328072  36.8344803
  67.1360397  42.7509537  37.5285988  66.9613724  42.3404427  36.0822372
  61.0485497   6.6066599  70.7153320  60.6323166   7.4656272  70.6435318
  60.8253441   6.3052073  71.5959778  75.6249313   5.1912131  20.7167034
  76.0760803   4.6297898  20.0862274  76.2349472   5.2656388  21.4505749
  20.4168243  44.3952522  47.5208817  21.3371658  44.1672173  47.3897247
  20.1419086  43.8620682  48.2667809  77.0480576  56.9001198  42.2583885
  76.2939224  56.8535728  41.6707268  77.6338806  56.2080956  41.9515533
  62.8546791   3.7993841   0.6871786  62.0281487   3.8365686   1.1685276
  63.0317383   2.8640330   0.5871788  81.2972183  63.1315041  32.7980614
  81.2569809  64.0878372  32.8042107  80.4039078  62.8555069  32.5929794
  65.5443115   1.5169851  43.0808754  65.1365967   1.8379703  43.8852196
  65.8441849   2.3076286  42.6323280  70.1022263  46.9744644  14.6454926
  70.7545166  47.1562271  13.9689445  69.3323898  47.4758606  14.3768320
  36.3668671  41.2262535  86.5380630  36.0445747  41.4898186  87.3999786
  37.0509758  40.5832405  86.7245102   0.3815980  11.2228861  16.3195629
   0.1527722  12.1036968  16.6162834   0.0281041  10.6434145  16.9944611
   2.9483168  53.4177551  22.4813061   2.5097642  54.0770416  21.9434872
   3.8415425  53.7466393  22.5823822   0.9816923   0.3201285   3.9531252
   0.7393406   1.2076302   4.2173944   1.1201998   0.3810686   3.0079620
  56.7482300  71.7812958  80.6439896  57.2089767  71.3972778  81.3899612
  55.8774490  71.3847122  80.6703415  36.3912849  50.4699440  69.2809753
  36.6872215  51.0486526  68.5783005  35.6999817  50.9633331  69.7224503
  67.1610794  53.9426651  67.1226501  66.3957672  54.2141495  67.6294250
  66.8225555  53.2920570  66.5075531  83.4840164  21.8782177  31.2593288
  83.7764359  21.0854836  31.7090988  84.1344147  22.0166969  30.5708179
  76.3425751  38.8312492   9.6391640  76.2005768  38.4053688   8.7937679
  77.2367249  39.1693306   9.5898485  64.3594894  45.6587830  65.7814636
  64.9086914  45.3963127  65.0427322  64.8871613  45.4596176  66.5548553
  82.8889236  21.1047668  27.3535709  82.7568817  22.0017967  27.6603832
  82.1276016  20.6253529  27.6803513  55.5182228  71.0438766   0.2413940
  54.8423386  71.5587311   0.6822386  55.1192894  70.7865906  -0.5898033
   0.6627256  52.8671608  26.0999546  -0.0055106  53.5511169  26.1434975
   0.2255573  52.1322212  25.6698570  71.8283081  65.2117767  39.5122452
  71.3426285  64.6960449  40.1559563  72.3083725  65.8550797  40.0337105
  11.2522697  68.7554932  63.8504677  10.4483423  68.6446838  63.3428726
  11.1533546  68.1555710  64.5897522  52.1522026  13.7090321  35.8030968
  52.1958237  14.2680159  35.0272980  52.3593445  14.2940950  36.5318146
  23.6065845  50.8850365  12.6186972  23.8739262  50.4022560  11.8365965
  23.2951317  50.2102356  13.2219162  11.6992426  33.2581520  88.6387939
  11.2260389  33.7478218  87.9660873  11.0169611  32.9501190  89.2353134
  76.1597443  28.6389465   3.3029888  76.1932449  27.7073231   3.5202217
  76.6274338  29.0688152   4.0190301  31.3384342  47.7294617   3.3841043
  32.2048225  47.4871788   3.7110612  31.2191010  47.1921577   2.6009715
   5.8862619  65.1122131  47.4971733   6.7914095  64.8335800  47.6361084
   5.3764195  64.3036270  47.5470047   1.1195818  31.2739086  68.3715744
   1.3498511  31.3685665  67.4473190   0.2452773  31.6573067  68.4410629
   2.7639670   4.6809082  68.7880630   2.3624344   5.5479536  68.8449478
   3.0586517   4.4944811  69.6794891  56.8354988  55.9528236   5.8174887
  56.9795074  56.4158707   4.9922142  57.5945969  56.1792831   6.3548131
   4.6779222  10.6113691   2.1900833   3.9703689  11.2547264   2.1489487
   4.2311673   9.7651196   2.2125137  58.6954422  11.9639730  45.8810310
  58.4052658  11.4112549  45.1554070  59.2368469  12.6366997  45.4680519
  29.3582516  33.7112274   8.8674316  29.3788338  33.2955322   8.0054541
  28.4448395  33.6417923   9.1450777  17.3277359  18.1518383  67.3070526
  16.8746929  17.3591728  67.0195312  17.9298306  18.3564472  66.5916138
  56.2368088  32.7283020  25.4661503  56.2669487  32.3658562  26.3515625
  57.1285095  32.6239738  25.1341572  20.2684650  55.5283966  15.4940491
  21.0505791  55.1423721  15.8883991  20.5830708  56.3270874  15.0705566
  59.7457237  47.5961647   4.9491229  59.7848854  46.8955498   5.6001501
  60.4424171  48.2004662   5.2053895  41.1409340  48.7278557  25.6408787
  41.6640091  49.2605553  26.2399235  40.2380219  49.0004768  25.8041515
  31.9075165  65.4887466  80.5623169  31.5904045  65.9413376  79.7807617
  31.2100925  64.8705521  80.7806473  22.9301376  60.7493973  72.3546448
  23.1818047  60.3710251  73.1971054  23.2308788  61.6569786  72.4002914
  29.5853672  65.5453873  13.5598545  28.7863731  65.2889099  13.0993557
  29.5534821  65.0592422  14.3837938  48.1120834  62.2816391  74.3828812
  48.6018753  62.9394493  73.8892975  48.4614792  61.4442444  74.0780563
  27.6592808  46.2171440  15.7268391  28.3752537  46.5260468  16.2819901
  26.8768616  46.3123665  16.2699642   9.1453724  10.8613958  84.7179489
   9.3680334  11.3949528  85.4808197   8.2182436  11.0413713  84.5621567
   9.7796555  44.4616661  77.7941437   9.7101202  43.5104828  77.8756866
   9.8731747  44.7730370  78.6944351  68.3864517  31.8829155  25.3382053
  67.8939285  31.5005951  26.0644875  69.2224045  31.4166737  25.3440056
  25.8750420   1.3351111  24.3077869  26.2286148   0.7475433  23.6399670
  26.4748688   1.2446698  25.0482330  58.4288139  60.8397255  87.6649475
  57.9292946  61.5508652  87.2637100  59.1297417  60.6566887  87.0392990
  20.4636192  49.0345993  53.8732185  19.9856567  48.7766838  53.0850143
  20.2886295  48.3325577  54.4999161  28.3833466  17.8930054  89.3582306
  28.8706074  18.7119408  89.4485245  28.8170948  17.4343090  88.6387177
  80.7918015   5.2728405  80.6587830  80.5118637   5.8659630  81.3559723
  80.1019135   5.3370199  79.9983444  32.2255173  20.3093452   7.2292690
  32.6295319  19.7165546   7.8629923  31.3300934  20.4254990   7.5470076
  56.1914406  20.1866570  49.6356850  56.4659576  19.3178387  49.3423767
  56.1506958  20.1156979  50.5893822  77.0036087  40.9448471   6.1122146
  77.3972549  40.1469498   5.7591686  76.0841751  40.7173767   6.2505255
  19.1925488  32.5189819  81.9334717  19.9102154  31.9993019  82.2955704
  18.5547104  32.5750618  82.6449890  51.5580101  58.6097679  77.7898560
  51.7806206  58.0053215  77.0818176  51.0582733  58.0786972  78.4099045
   0.2101860  61.5935097  10.3752851   0.4948899  61.0896645   9.6128445
  -0.4624879  62.1833763  10.0349932  60.3131409  45.1388321  76.6798782
  60.2872391  44.8107986  77.5787430  61.1336479  44.7977448  76.3239899
  39.3952065  13.3852854  73.8563385  39.0317993  12.5473175  73.5700226
  40.3030319  13.1867561  74.0858459  51.0440865   8.0106096  25.5746498
  50.2009926   8.4330721  25.4104729  50.9970245   7.1860046  25.0908699
  48.8859482  48.5675659  60.0223694  49.8213539  48.3939743  59.9169159
  48.8439751  49.2639542  60.6777420  51.2023125  35.1011543  68.2776108
  51.2473602  35.5940857  67.4583282  51.5322762  34.2313461  68.0522537
  72.4189758   8.1089430  62.3490791  72.0796432   7.2492909  62.5982437
  73.3495865   7.9598212  62.1818542  86.8588715  53.3927727  68.3658752
  87.0644608  54.2996750  68.5927887  85.9118805  53.3242722  68.4873047
   4.7157869  55.9962349  31.2990608   5.4222994  55.3507500  31.3195820
   4.2856941  55.9076958  32.1495972   6.4535551  26.1370678   5.3980131
   6.1771355  26.7453613   6.0834360   6.8441339  25.4031391   5.8723860
  25.9796810  40.2684021  60.6685104  26.4141216  39.6058769  61.2056847
  26.3660545  41.0971947  60.9514351  15.7824192  48.7075119  14.3399458
  16.6775303  48.6674347  14.6767006  15.2998819  49.2040863  15.0008554
  52.4521408  62.9288635  28.7232189  51.7323380  62.8545189  28.0966492
  52.9659615  62.1317635  28.5934200  33.2296448  19.0510025   9.4414339
  32.4349251  18.8844242   9.9482927  33.9241638  19.1100368  10.0974751
  28.6377392  56.2584305  36.2580719  29.3961983  55.8697586  35.8222885
  29.0070362  56.9417763  36.8174324  53.5043144  54.2398872  38.2847443
  54.2956238  54.1413689  37.7552567  52.7862244  54.0592308  37.6781654
   7.5110755  57.2831764  35.0360794   6.8502436  57.6239586  34.4332542
   7.7738929  56.4454803  34.6547279  46.2190666  47.2634392  59.7735939
  46.9948273  47.8215904  59.8273849  45.6016617  47.7623520  59.2386856
  34.1924515  16.6718006  87.5421829  33.5197716  16.2469749  87.0099716
  34.9554787  16.7243118  86.9666290   5.0601821  53.6160660  50.5109367
   5.4367352  52.8482475  50.0809364   5.5408936  53.6886330  51.3354836
  69.4523468  18.7720070  16.4578304  69.0336151  19.0868397  15.6567240
  70.2604065  19.2811184  16.5217209  17.9165287  32.1573448  22.3505764
  18.5752621  31.5848923  22.7437687  17.8534298  32.8987808  22.9526749
  58.0277061  13.8721848  25.2808456  58.7001877  13.7252445  24.6157055
  58.5122490  13.9193716  26.1049938  68.5737686  10.7133493   2.0293705
  68.9309998   9.9097967   2.4074228  69.1935883  11.3956041   2.2874024
  26.0399113   8.6334276  70.6159668  25.4253483   9.1654634  71.1214218
  26.0387154   9.0291529  69.7444000  24.1783695  16.3034878  10.8438406
  23.6900749  15.5399504  10.5359249  24.6844158  15.9796219  11.5889969
  52.6487999  26.4596939  84.6142807  52.2496376  27.1698780  84.1117477
  52.8409767  26.8486500  85.4675217  42.0908661  50.1126518  78.7809677
  42.3796768  49.7651138  79.6247864  41.3855095  49.5255547  78.5088882
  20.5516586  51.2647057  27.9756374  20.3380699  50.6649132  28.6903839
  19.8754101  51.1036339  27.3176289  32.9678650  46.7422066  58.0690918
  32.7488518  46.0751762  58.7197342  33.4152069  46.2604218  57.3733902
  32.8790321   4.8477116  44.6474533  33.2022362   5.7247205  44.8539124
  32.6620598   4.8855515  43.7159386  61.7157822  70.9957275   1.9278592
  61.2743950  71.3615646   1.1613226  61.2092133  70.2131653   2.1451552
  28.6346741  36.1888084  80.6544647  27.7882080  36.2643356  81.0949402
  29.2703342  36.4892120  81.3040237  84.3818893  50.3609352  14.1051521
  84.6046600  50.2216835  15.0255938  84.0244827  49.5215073  13.8155813
  46.5343857  62.3679390  56.7990265  46.9277916  63.1827507  57.1113472
  46.8122063  61.7086792  57.4349670  66.1350861   3.4691753  84.0490646
  66.5464630   4.1916351  84.5234604  65.8170319   3.8655717  83.2379303
  61.8705139  32.8631592  58.5976944  62.7859917  32.8065567  58.3239670
  61.8504829  33.5923424  59.2174721   9.0381994  29.2258034   5.8578320
   8.8701372  28.2899494   5.7475510   9.0914068  29.3495502   6.8055067
  30.5060825  62.0811729  36.1609879  29.9933777  62.2497902  36.9515152
  30.3215160  62.8283768  35.5919037  48.7037010  34.6248131  43.5457458
  48.8037300  35.1007462  42.7212982  47.9784813  35.0644379  43.9896164
  23.7143269  57.9604492  68.5289536  23.6260357  57.0191879  68.3790817
  23.5782204  58.3540115  67.6670837  79.3107834  50.5832710  65.1580582
  79.9903107  49.9395523  65.3583069  78.4942093  50.1597862  65.4228363
  52.0184135  52.4696503  75.3361130  52.8256989  52.8805656  75.6454239
  51.5437737  53.1751175  74.8964920  44.0713577  57.7679901  46.9657555
  43.1290588  57.9068031  46.8706894  44.4429550  58.0717316  46.1375732
  44.0940094  53.3245659  54.4969177  43.5199852  52.8316803  53.9105797
  44.4452133  54.0288467  53.9520569  69.3860168  67.8431625   4.4430113
  69.7116013  68.5469589   3.8818572  69.2834091  68.2506180   5.3030591
   0.8004931  59.3178253   0.6216142   1.2857451  59.6171036  -0.1472778
   0.9599884  58.3745384   0.6532847  16.7081051  40.3200493   0.8087363
  16.0677509  40.6337128   0.1701489  16.3608532  39.4777222   1.1022254
  25.3614788  22.2262001  80.5549393  25.1188316  22.7028408  81.3487701
  24.5261879  22.0118980  80.1394882  79.1442413  20.9061146  10.8939543
  79.5574493  20.9845448  11.7538004  78.2295074  20.6994648  11.0857639
  74.2559967  65.7106476  28.9955292  74.3501587  65.8641663  29.9356327
  75.1294250  65.4453430  28.7074947  75.1844177   4.1754971  57.0169983
  75.2104263   4.5446067  57.8997879  74.2517395   4.1122184  56.8112335
  69.0141144  19.2494240  77.1644287  69.7837677  19.0692310  77.7042313
  69.1166229  18.6785278  76.4029846  11.2725172  13.0911713  13.3866816
  11.2360229  13.4005404  12.4815903  10.3864079  13.2271242  13.7221813
  63.8209076  27.3871155  68.9540939  63.5267563  27.9898300  68.2711334
  63.0153694  26.9934959  69.2893600  60.5712547  42.5031967   6.8702717
  61.2488518  42.8454628   7.4533219  60.7715950  41.5704956   6.7917581
  18.1268463   1.3282058  64.0035248  18.6601372   2.0667043  63.7094955
  18.7183437   0.5764751  63.9679794  56.6560555  16.0711327  55.4710045
  55.7834358  16.1101398  55.0795364  57.2344856  16.4412041  54.8041496
  10.2640457  68.9735336  30.0655975   9.9777822  69.6519241  29.4539795
   9.5955086  68.9710999  30.7506409  64.5341797  49.7085037  45.2355804
  63.6392555  49.5503273  44.9350586  65.0869064  49.3513603  44.5404739
  65.4220047   4.1613317  79.6873398  64.9313431   4.6763124  79.0468063
  65.0479965   4.4108596  80.5323792  72.2147751  10.4772234  41.6065865
  72.1062622  10.9434347  42.4355011  71.6180038   9.7316294  41.6712303
  54.6929016  56.0997887  83.6880493  53.7570305  56.1158638  83.4877472
  54.7926750  56.7136116  84.4157104  39.5980911   2.4950101  44.0334473
  38.9771690   1.8419254  43.7106934  39.0791054   3.0534008  44.6123123
  63.8568916  36.6700439  71.5974350  63.6272469  35.7418633  71.5530090
  63.6973495  36.9988632  70.7127533   7.3895373  36.9007187  82.4746094
   8.3294983  36.7205887  82.4906921   7.3259544  37.8178825  82.2081528
  29.4504013  -0.1714538  16.7267246  29.5625229   0.7763049  16.8003063
  29.8454151  -0.3946457  15.8838835  86.2034454  63.1020508  59.1813278
  86.1037216  63.5728493  58.3539009  87.1251602  63.2168159  59.4126167
  53.4601402  43.4948502  85.3226776  53.4381599  43.9380493  86.1708069
  52.5456886  43.2766495  85.1426849  69.2700729   4.3016682   7.5772390
  70.0817413   4.4265375   7.0854745  68.9876022   5.1881156   7.8022981
  26.3717175  60.4358330  80.5185776  27.0575237  60.9934654  80.1512222
  26.6859741  60.2159615  81.3955765  53.8516350  35.1917992  83.3500061
  54.4974174  34.7753181  83.9207458  54.1086884  34.9294968  82.4660645
  64.4742508  59.2321129  87.5131836  64.2374802  59.1228638  88.4341812
  64.8369064  58.3841553  87.2569046  41.4336090  45.2931824  35.4037170
  41.2011948  45.7895622  36.1884613  41.0062561  45.7632065  34.6876984
  20.0066433  27.2345886  71.1587296  20.4796925  28.0455227  70.9720535
  19.1800270  27.5231323  71.5456161  56.7686958  67.7735138  29.8121185
  56.4990730  66.8598862  29.7181873  56.0337105  68.2772980  29.4625015
  61.2487221  70.1078796  48.1879234  61.7719536  69.3458633  47.9393463
  60.3421555  69.8080139  48.1212196  72.9738388  18.3742123  56.3519630
  73.7570572  18.9231205  56.3132324  72.3620453  18.8680172  56.8979454
   3.2159617  64.5525284  50.0535927   2.6501243  64.6547394  49.2883377
   3.9079673  65.2018738  49.9282341  72.4870453  47.9005699  37.9706497
  73.1971588  48.5422630  37.9850388  72.4072418  47.6112251  38.8795738
  12.7347918  30.8795605  61.5111198  13.0701122  31.6153812  60.9989128
  11.7899399  30.8922539  61.3583946  36.6327324   6.3044567  80.0177994
  36.3162384   5.8304129  79.2488098  36.7537193   7.2033873  79.7119904
  51.4649467  29.9571247  18.6216755  50.8220253  29.3084183  18.9081459
  52.2635612  29.4518547  18.4695225  74.0177078  20.3604088   2.7674224
  73.0981140  20.2056999   2.5514348  74.1400146  21.3004532   2.6348002
  59.8736610  12.5918684  61.7088699  59.5238724  12.1009169  62.4524040
  60.1046906  11.9210787  61.0662956  71.6375275  60.3278580  22.5222034
  70.8846283  60.6891479  22.0543957  71.3179092  60.1796341  23.4122066
  73.0315628   5.4589472  14.3382330  73.7173843   4.7943072  14.2739658
  73.0841980   5.7708449  15.2416601   5.7591786  28.3918972  87.6843872
   6.4561248  28.9499741  88.0294189   5.3561335  28.0041580  88.4612045
  17.4659863   9.4914646   0.5214489  16.7522373  10.1188002   0.6365312
  18.2257996  10.0307264   0.3021034  62.7843895  12.5336285   3.0392678
  63.1014671  13.1433115   2.3729484  63.3306618  12.7105007   3.8051250
  76.3657608  37.6413651  40.4362297  76.3666763  37.3600693  41.3511620
  75.5222778  37.3440628  40.0950890  64.7083664  30.6274033  83.3637161
  65.1711960  29.9567699  83.8659897  63.8892937  30.7611790  83.8406448
  54.7030182  43.9419022  45.0453873  54.5169373  43.3463364  44.3195076
  55.0479164  43.3766403  45.7365913  16.7192707   3.4727347  21.6381893
  16.6954613   2.6757298  21.1086159  15.9217825   3.9441938  21.3974171
   4.3058877  50.6323624  37.9900589   3.5160975  50.2600937  38.3823318
   5.0148339  50.0667915  38.2962570  65.7765961  19.0109844  11.0048571
  66.2206116  18.4702435  11.6580629  64.9208679  19.1983643  11.3906794
  20.4620438  33.4992065   7.5455337  19.6202259  33.0436020   7.5464177
  20.5709267  33.8029747   8.4467001  68.8088608  69.9294968  25.9502831
  69.5998688  69.4044495  26.0722008  69.1116867  70.8357086  26.0077152
  57.3105431  45.2093239   4.0551367  56.3569412  45.1344070   4.0906763
  57.6275101  44.5003738   4.6147361  50.6251831  67.7774887  70.4235077
  50.1459541  67.0381088  70.0494919  50.5112114  68.4833527  69.7871170
  64.7058640  65.6211548  78.6823425  64.7422104  66.4414825  79.1742401
  63.7808456  65.3753433  78.6945496  23.5855141  13.9767895  78.0140152
  23.2690258  13.9384670  77.1114655  22.8921452  14.4319296  78.4918442
  37.4677277  56.8352280  26.4650078  37.3102760  57.7771149  26.3995571
  37.5632858  56.6730118  27.4035091  27.0584259  70.2226562  15.8426266
  27.7597980  70.7988052  16.1465378  27.3614559  69.3411255  16.0601158
  80.3993301  43.8127441  52.2575874  81.3214722  43.8051796  52.5141487
  79.9823761  43.1814880  52.8440132   4.8179793   3.3956814  77.6967010
   4.1723909   3.9762006  77.2936554   5.6602650   3.7079370  77.3661194
  67.0800858  10.4872665  78.7086716  66.6382370  11.1705379  79.2127914
  66.6987381   9.6694717  79.0280685  57.6355400   8.0943089   4.7482977
  56.9997177   7.3788610   4.7579522  57.5851898   8.4475145   3.8600733
  68.7135010  60.7623215  55.1491203  68.1046295  60.5576553  55.8587799
  68.1554184  61.0772324  54.4380608   2.2600684  23.2159214  57.3153687
   2.2967522  23.9881554  57.8797646   3.0255992  22.6991005  57.5665436
  57.7409019  57.3811646  46.7153320  58.2314606  57.5429153  45.9094658
  58.4122162  57.1874886  47.3695984  65.0925903   8.0946007  33.9910583
  65.0542831   7.1686335  34.2305374  65.9616089   8.3793707  34.2738152
   5.7647419  43.4862823  55.9164658   4.8080268  43.4577827  55.9057121
   6.0335960  42.6420555  55.5542145  29.1741161  36.7418289  77.9165573
  28.3371220  37.1791077  77.7601471  29.2043514  36.6145782  78.8647766
   5.4716129  53.1319656  77.4743423   6.0223312  53.7101860  76.9465179
   6.0648041  52.7728119  78.1341629  76.3774872   6.1984248  41.1956444
  77.0748062   5.9579520  40.5856018  75.9296722   6.9301853  40.7711220
  22.9342079  59.8528862  22.9387608  22.2824707  59.1527710  22.9025803
  23.6977043  59.4483261  23.3506298  61.1929131  51.9419327  81.8458710
  61.1234818  51.3158188  82.5665588  62.0711823  51.8028755  81.4915619
  85.4768677  16.5849743  19.9283962  86.0451660  16.0875435  20.5164719
  85.2482452  17.3710632  20.4244061  50.3383446  16.6974163  10.9534931
  50.2018776  17.6405792  10.8637619  51.1661339  16.5312099  10.5025206
  86.5127182  66.5287399  41.4936142  87.2936783  66.1268082  41.1131172
  85.8670273  65.8225021  41.5169029  59.3554153  27.6150360  88.1113663
  58.9926414  26.9925823  88.7415924  58.9795265  28.4582901  88.3640823
  60.1440010  18.0307007  53.7969627  60.8061180  17.7185516  54.4137230
  60.6382027  18.2562275  53.0088387  51.0663986  50.8500595  52.0169106
  50.1836967  50.9775085  51.6693115  50.9880867  51.0518379  52.9493217
  21.2943821   6.8236237  14.8932676  22.2314129   6.6716022  14.7704115
  21.2147636   7.1041770  15.8049593  83.2631912  49.9377670  37.4502525
  83.4757996  50.0283394  36.5213661  83.3666229  49.0032310  37.6296158
  20.0255051  67.5459290  81.5410919  20.1924038  68.3553238  82.0240555
  20.8887749  67.2666245  81.2361526  69.7246704  10.9774523  54.9055252
  69.5486069  10.7233114  53.9996300  69.5342941  11.9151402  54.9325409
  70.4559479   3.9089341  10.2713804  71.3580780   3.8110063  10.5760040
  70.5398560   4.1724262   9.3549948   0.8476029  28.7620029  51.6537361
   1.0494159  28.0596294  51.0355339   0.4436862  28.3167496  52.3986092
  12.0222931  66.3282089  58.0034790  12.3465061  67.1658936  58.3342400
  11.4259777  66.0165100  58.6842728   3.4398355  21.3505497   6.5507216
   2.6836302  21.9158230   6.3930783   3.0673523  20.4744320   6.6502380
  53.9640656  21.7695370   7.1701918  54.2492790  22.6787243   7.0792937
  53.9775085  21.4239273   6.2776647  14.4910870   2.1107383  84.2563324
  14.6104431   1.5662031  83.4782104  13.7517138   1.7128850  84.7159729
  77.5069580  24.8325462  45.6663399  77.8535461  25.5443306  45.1283112
  77.2593079  25.2533588  46.4896355  66.6595230  66.1048660  56.3675461
  65.9570618  66.2874146  56.9916115  66.9338303  66.9675903  56.0565872
   8.2907610  49.6679649  61.0111046   8.0801878  49.9762611  61.8924904
   8.0832872  48.7336769  61.0282249  31.2853889  15.0028648  81.8254242
  30.6767693  14.7573042  82.5222168  31.0107021  15.8824759  81.5664597
  22.5844498  15.1750669  81.7923431  23.2547417  14.4917383  81.7903442
  22.4148827  15.3415327  82.7195816  71.8022995  29.9055424  86.6002197
  71.4331284  30.4657784  85.9175262  71.5633392  30.3379326  87.4200821
   3.2674291  13.5203228  84.1115494   3.2206600  13.6025772  83.1590347
   4.0186658  14.0581436  84.3617935  62.9501457  11.4478102  82.7722168
  62.0032997  11.4058695  82.6382370  63.0608597  11.3842115  83.7208633
   6.8418970  37.5463753  59.7756500   7.7766786  37.7520828  59.7656784
   6.4714332  38.0813179  59.0736351  20.7079544  45.9067116  24.2879753
  20.5015717  44.9957237  24.4971218  19.9848766  46.4085579  24.6641941
  78.4703522  62.8870888  68.2461319  77.7299728  63.4475937  68.0139465
  78.0699310  62.1136131  68.6431656  26.9265022  46.8144913  28.8363228
  26.3978920  46.3462753  28.1901207  26.5267754  46.5942039  29.6777058
  55.2947617  17.3214493  29.7114468  54.6656570  16.6064262  29.8073692
  55.1196976  17.8960857  30.4566822  53.0084076  29.6453400  47.1305199
  52.5155640  29.2183971  47.8312759  52.6039581  29.3255310  46.3240585
   2.4705055  59.1209145  74.8926926   1.9401249  58.5179443  74.3717728
   1.9206873  59.8979874  74.9931335  53.9028435  39.0043297  58.6153984
  53.5388680  38.5861740  59.3957176  54.4394608  39.7202682  58.9555550
  75.1819611  52.6879349   4.8752794  74.7017517  53.5150757   4.8370371
  74.8338852  52.1749649   4.1459360  86.3082352  50.6899147  87.1618347
  86.2215118  50.6805878  88.1150513  87.1302795  50.2300262  86.9916077
  52.3401718  10.5717077  15.5022802  52.2989616   9.8000879  16.0672016
  53.2665291  10.6533127  15.2754936  68.8245926  21.9308262  68.5743484
  69.0857468  22.2340641  67.7048187  68.2820663  21.1603203  68.4063644
  12.2455397  45.3001328  29.1287575  12.0683670  44.8195877  28.3201046
  11.6635237  44.9022713  29.7762127  22.8883610  31.4873600  86.2960510
  23.4764881  30.9469719  86.8236084  22.1978321  30.8865891  86.0159149
  21.1723518  25.6402931  84.5115891  21.8085766  26.3482933  84.6125031
  20.9971809  25.6079426  83.5711060  20.3761520  10.3000231  48.3664360
  20.6397591   9.4020815  48.1653290  20.5948524  10.4123573  49.2915230
  43.7331810  49.0165100  19.9407043  43.5592346  48.0882607  19.7847195
  43.3824654  49.1821594  20.8157978  79.3606949  38.6012001  84.7233734
  78.9552002  39.3965302  84.3780365  78.6788940  37.9333916  84.6498108
  81.9757690  15.4237490  81.0304184  82.2083130  15.4310293  80.1019287
  81.6629868  16.3112087  81.2059555  67.4822998  47.9888840  88.2761307
  66.7021103  48.4545975  88.5772095  67.3481827  47.8806305  87.3345718
  56.8103142  43.1930771  11.7820339  57.0074883  43.8896370  12.4082603
  55.8844872  42.9969482  11.9255991  29.2228031  20.1729813  79.7685547
  28.6051579  19.4487209  79.8695145  28.8822422  20.6769199  79.0294342
  78.2979660  30.2836456  88.2317886  77.5817566  30.9178448  88.1990662
  78.2855530  29.9544964  89.1305313  42.2933350  11.1731777  84.1572723
  43.0210915  11.0130367  83.5564728  42.7022400  11.5617342  84.9306107
  52.1663857  60.8682747  76.6291733  51.7138596  61.6904449  76.8175507
  51.6837769  60.2094116  77.1283875  64.6616364  63.8035812  75.8694839
  64.2534409  63.3521652  76.6082916  64.0252991  64.4722595  75.6161575
  28.2787476  54.6960335  53.0448914  27.6242809  54.3587341  53.6565552
  28.7524605  55.3614807  53.5438957  65.7009506  53.7715683   1.1749187
  65.8893585  54.2490387   1.9828529  65.9392090  52.8654861   1.3710734
  67.6014252   9.1290932  10.6918135  67.7416458   9.6860209   9.9260454
  67.3927002   8.2689342  10.3274040  77.0639038  29.6532955  79.2865753
  76.4395599  30.3685493  79.1647568  76.5202560  28.8940201  79.4967804
  57.1688614  65.3531570  81.3632736  57.9218025  64.8144531  81.6063919
  56.5110703  65.1609421  82.0315475  64.7704544  70.0064468   0.4759954
  64.8910599  69.0669937   0.6142724  65.5780640  70.4023666   0.8034859
  71.2485886  39.4178200  74.9182510  70.3092804  39.2410393  74.8665161
  71.4331436  39.4594765  75.8565674  73.2899628  52.9469681  80.4437943
  74.1685486  52.9406891  80.8236389  73.3687897  52.4191551  79.6491699
  46.3755264  42.6251144  58.7407990  46.9157448  42.6260643  57.9506111
  45.6653519  42.0140305  58.5446815  34.6484413  16.0610619  11.6373644
  35.3484459  16.6321888  11.9536543  35.0869293  15.4502478  11.0450239
  60.8019829  57.6379662  28.1665726  61.0877228  56.8330154  27.7345543
  60.8810577  57.4490166  29.1016006  75.2415543  48.7993889  82.1665649
  74.4019547  48.7444077  81.7101974  75.4166489  47.9035454  82.4547195
   9.9758186  53.4447823  80.1080246   9.9044018  54.1450577  79.4593811
  10.7940226  53.6283913  80.5696106  13.9286251  40.7366486  51.5264587
  13.1136513  40.2612953  51.3649445  14.2003164  40.4561996  52.4003944
  18.1442890  59.7258911  74.4695969  17.5069160  60.0931664  73.8571472
  18.7257175  59.1980324  73.9222946  49.6559753  58.5030937  64.4128876
  49.5573769  57.5510483  64.4237976  49.1415405  58.7885246  63.6578293
  11.9356327  17.3287296   6.4035387  11.7480793  18.1261311   6.8987203
  11.5471134  17.4844151   5.5426979  80.7958984   4.1790681  45.3575554
  80.2059937   4.8941121  45.5962257  81.4055710   4.5702615  44.7318573
   5.8107295  62.3821754  27.2557144   6.0027318  61.6258354  27.8100739
   5.1032505  62.0859566  26.6830387  76.9751434   7.9995103  45.1109276
  77.0546417   7.2636065  44.5040054  76.4116440   8.6253891  44.6559792
  49.4955559  27.8540688   8.9148970  48.5569992  27.9629154   9.0681982
  49.5925560  26.9349308   8.6658840  63.6527672  17.2691765  48.6236267
  64.2820206  17.1389484  47.9141808  63.5972786  18.2195740  48.7231102
  24.9198055  11.8260584  70.8863373  24.6882954  11.1178799  71.4872665
  24.3971176  11.6557369  70.1027374  36.1382294  16.7015762  17.8148746
  35.5546150  17.1350574  17.1922035  36.4144478  15.9017744  17.3673782
  75.4740067   0.2482422  86.7568817  74.7814484   0.6904974  86.2659607
  75.0563049  -0.5406335  87.1024704  65.3021011  70.2309799  60.2292633
  64.4346924  70.4761581  60.5513382  65.7749786  71.0603027  60.1596680
  76.7835083  35.3049812   8.7045488  76.7357101  34.3981705   8.4018240
  76.7660751  35.2399673   9.6593790  18.9191685  66.9187012  32.0883522
  18.3821316  66.8963623  32.8803902  18.4303551  67.4764481  31.4831905
  36.3063583  71.5368347  86.9802094  36.2494392  70.8870697  87.6807785
  35.4271317  71.5594254  86.6024780  11.0066376  49.0871086  22.4666958
  11.2929287  49.7496452  23.0954361  11.8169851  48.6743813  22.1679878
  40.9929085  13.6609516  76.3804474  40.6458664  14.5299692  76.1789474
  41.6865578  13.8224344  77.0199814  56.0645027  34.2154846  20.2471027
  56.6389847  34.1014557  21.0042019  56.0241318  33.3481064  19.8442860
  65.6795654  16.9709473  68.3667679  65.2964783  17.7322407  67.9309845
  65.8136139  17.2548656  69.2710114  54.5879097  18.2943840   0.2901757
  54.7562218  17.5313931  -0.2627684  53.6527367  18.2449932   0.4882814
  35.2986107  50.5972214  12.9756451  35.5301933  51.4145088  13.4168253
  34.6376915  50.8516045  12.3316689  35.3521004  61.2604218   1.4339526
  36.1919632  60.9097977   1.1374304  34.8124580  60.4862289   1.5940922
  48.7771759  58.9876900  33.0461578  48.2161293  58.6043663  32.3719749
  49.1033287  59.7977676  32.6542015  70.7132492  34.4198799   6.0129185
  71.4620056  35.0048637   5.8971767  70.1514206  34.5978508   5.2586565
  40.0753784  54.2840576  24.8092785  39.8851128  54.0382881  23.9039459
  40.8834572  53.8161316  25.0197124  36.5544014  15.2477512   5.8310413
  36.6080170  14.3613157   5.4738464  37.3338585  15.3322563   6.3801665
   6.9474897  34.8818054  59.9200974   7.0839777  35.8287354  59.9505615
   7.7080064  34.5155563  60.3714371  18.7723331  42.9654961  86.8405380
  18.8985920  43.6565781  86.1903915  18.2532845  43.3780670  87.5309067
  73.7909164  44.8786888  59.6960144  73.1833878  45.3941383  59.1654968
  73.2602386  44.1581650  60.0358086  78.0581436  39.8150520  16.7541065
  77.2966919  39.6788521  17.3179054  78.6932373  39.1617012  17.0473843
  38.1217117  43.4121132  74.3310776  37.3530197  43.8738289  73.9961624
  38.8357391  43.6871758  73.7559738   1.9305317  30.1371880  75.5900192
   0.9805757  30.2503281  75.5581665   2.0920680  29.7029934  76.4276428
  86.0336227  37.0930138  79.5463867  86.6249771  37.7867012  79.8384933
  85.8692398  36.5717430  80.3321915  28.0122337  45.0469513  40.9702301
  28.8298931  45.5079536  41.1576920  28.2214470  44.1229591  41.1069832
   8.6400394  69.7760620  70.7255936   7.8476095  70.2376709  70.4513626
   8.6347923  69.8378601  71.6807861   5.1144495  29.2125225  11.7271347
   4.1609464  29.2963982  11.7218075   5.4267735  30.0015602  11.2842989
  69.7700806  17.8379650  75.0814896  70.5576019  18.2397366  74.7145920
  69.2271271  17.6357956  74.3195419  40.7971382  71.3925095  37.5105553
  41.6478157  71.3950577  37.9493866  40.9071503  71.9906464  36.7713928
  33.2564125  50.7985764  86.5018692  33.6319504  50.0233459  86.0844727
  33.2412300  51.4596100  85.8097534  47.3695297  68.6774673  75.8503418
  47.1956825  68.0442505  75.1538925  47.6932487  69.4535751  75.3930664
  72.7527847  65.9142838  49.9074020  72.9580841  65.7648087  48.9845047
  72.9857178  65.0931320  50.3406258  32.4202003  37.6024666  68.6322021
  33.1416245  37.1149139  68.2346191  32.6795731  38.5205040  68.5536957
  85.9119110  67.2733765  65.1061096  86.2948990  66.9062729  64.3093719
  85.5952835  68.1376495  64.8434296  58.1024704  14.6242733   1.5400969
  58.9594498  14.8186684   1.9196126  57.7100868  15.4829569   1.3822085
   1.4521588  38.6470528  85.4704590   1.1978673  39.4926643  85.8399353
   1.8881073  38.8667793  84.6471100  79.3777084  21.4602757  58.2472534
  80.0234299  21.0648899  57.6616402  79.2795868  20.8268890  58.9581871
  35.2955742  59.5477219  83.1969910  35.4420738  60.4882317  83.0959167
  36.0763206  59.2311783  83.6513748  85.9042358  19.0991287  22.1405888
  86.6761017  18.5987320  21.8759098  86.2231293  19.6869411  22.8254356
  77.5397110  28.9367218   5.6522040  78.2967377  29.4511929   5.9323182
  76.7870255  29.3954449   6.0254030   1.6040078  63.5460281   5.6765985
   2.4466386  63.1087379   5.5541878   1.8006557  64.2898102   6.2461143
  64.7755661  47.5034714  31.3176403  65.2555771  48.2899704  31.5769463
  64.5783463  47.0602837  32.1428185  46.7421455  11.6145334  39.1260223
  45.8266563  11.3382940  39.0835266  46.8182182  12.2952156  38.4573517
  27.2851543  39.0866089  69.0845490  27.7536564  39.5312881  69.7909470
  27.5385284  38.1675606  69.1705017   6.2060237  19.2486553  13.2589378
   6.4655790  19.0388069  14.1560593   6.2036314  20.2053490  13.2278633
  10.9453974  26.2433949  70.6105270  10.3331337  25.7893143  70.0315857
  11.5318594  25.5556755  70.9257126  52.6392250  33.4034538  50.8537178
  52.4528008  33.9473457  50.0884323  53.4670792  33.7434502  51.1932640
  39.1860466  69.8435669  48.7481842  38.2640686  69.9349976  48.9886551
  39.6587372  70.3341293  49.4206047  79.8988266  29.9750385  78.1802063
  79.2490997  29.4801540  78.6793747  79.3910522  30.4216309  77.5027466
  35.2410812  67.4100876  79.2092743  34.7907600  67.9152756  79.8862000
  36.1538162  67.3849640  79.4965439  84.7482300  44.9602890   6.0868669
  84.5501251  44.0902748   6.4333639  83.9788284  45.1918106   5.5666318
  85.7235718  42.8022385  25.5056553  86.4351578  43.0561142  24.9179249
  86.1341782  42.2127762  26.1382427  65.9095078  53.7805023  63.2335930
  65.9372635  53.0734444  62.5889778  66.4661484  54.4650307  62.8623734
  76.2641983  49.8802605  66.5927887  75.4137955  49.5959778  66.2577744
  76.2815094  49.5685768  67.4976578  48.9273758  67.7193298  68.4198380
  48.8325615  67.4513931  67.5058060  48.3415451  67.1360931  68.9024048
  35.0716782  43.4544983   3.6493683  34.1227837  43.5634079   3.5863516
  35.2733192  42.7499695   3.0335679  42.6923218   5.3237996   5.1545691
  43.2892761   5.3688164   4.4076748  43.2637558   5.1853013   5.9098921
  76.9754333   7.4990420   2.2212577  77.3815994   8.3106012   2.5256131
  76.7919922   7.6557426   1.2949611  54.7694817  60.8589401  62.3158112
  53.9505882  61.0462265  62.7746849  55.4359016  61.3351822  62.8111000
  67.4294815   3.8601589  11.2471199  68.3303604   3.9448240  10.9349003
  66.9656601   4.5928345  10.8417912   1.9474268  42.3514328  58.5763283
   1.9791878  41.5750046  59.1352386   1.5899969  43.0377045  59.1398048
  18.9738064  23.7058182  11.9607372  18.7022514  24.6103935  11.8050661
  19.9129314  23.7024441  11.7756310  44.9118004  66.7659988  80.4446564
  45.3262978  67.4824142  80.9254608  44.9804039  67.0233231  79.5252533
  38.9318771   5.3706212  80.9349289  39.3295174   6.1908360  81.2270966
  38.1534309   5.6418061  80.4483948  38.5233803  35.7661476  75.7188110
  37.6952362  35.3810501  75.4322586  38.3001480  36.2497253  76.5141449
  53.4231758  62.6916275  11.7681522  53.1724472  63.2334862  11.0199852
  53.3872108  63.2863159  12.5173397  15.4043503  20.3990116  78.4283600
  16.0904274  19.7675114  78.2121658  14.6011906  19.8791504  78.4585342
  19.0397205  48.7762642  48.2141418  18.8333797  48.0214043  47.6629257
  18.3112411  48.8272247  48.8329735  44.1027260  60.0182610  43.0677109
  44.0562859  59.0676003  43.1692924  44.1260719  60.3540268  43.9637871
  15.5323591  18.8642521  13.0808582  15.0044584  18.0688343  13.1505861
  16.0772915  18.7229557  12.3067036  82.3119278  60.0835114  22.2617626
  83.0588837  59.7826462  21.7442932  81.5457535  59.8195610  21.7523155
  33.5657272  63.4188118  86.4828949  33.8049774  63.4965210  87.4064484
  33.5831223  62.4776382  86.3093491  34.6411400  55.4894142  48.4737587
  35.5869789  55.6186981  48.5437698  34.4832077  55.3792915  47.5361214
  76.4657364  48.8150673  31.7950649  75.6370850  48.3884964  32.0132446
  77.1287308  48.2994118  32.2541695  85.2144699   5.0923271  24.1179008
  85.9273148   5.7291331  24.1685581  84.4197083   5.6125984  24.2357788
  27.3319702  69.6945114  47.3177490  26.5344276  69.9071579  47.8024521
  28.0357246  69.7946854  47.9587860  28.5531635  36.8292732  69.8771133
  29.4949322  36.9889030  69.9389114  28.4017925  36.0688248  70.4383926
  61.9157944  20.7659187  74.4433060  62.8485107  20.6973038  74.2394485
  61.8770599  20.7400684  75.3993759  68.1191635   2.8153167  15.1126757
  68.1939468   2.2196128  14.3671703  67.9858780   3.6771832  14.7181463
  78.5433578  45.7462578  60.7541618  78.3545532  46.6436348  60.4797630
  77.9076538  45.2115860  60.2785072  76.2925720  40.2036858  83.9924316
  77.0169067  40.7149048  83.6315613  75.5334854  40.7828331  83.9245453
  77.6959457  65.1886826  53.8021164  77.5895691  66.1321564  53.6805725
  78.6411743  65.0630188  53.8856697  48.8683052  31.0128345  35.8255043
  48.7431526  30.2014809  36.3177147  49.0634460  31.6703587  36.4931984
  70.9507751  60.1988373  25.4737873  71.1919556  59.2751389  25.5433750
  71.2018661  60.5761108  26.3169060  61.8679962  14.7776957   6.2849884
  62.7611961  14.4651651   6.1409402  61.3219528  14.1928244   5.7596378
  39.6394653  34.5530128  81.7674942  40.1752777  33.9156685  82.2396393
  40.2325935  34.9299164  81.1175919  34.2386513  41.5626907  46.0780106
  34.3557091  40.7398224  45.6032295  34.3765945  41.3310051  46.9964447
  68.2387924  51.2207680  15.3461800  68.5009842  51.1661720  16.2651482
  68.9882126  50.8737526  14.8622656   1.6539001  57.5804253  81.1335373
   1.8440949  56.8589592  80.5339127   1.5943381  57.1667747  81.9946899
  13.8553085  68.9748383  24.9960041  14.2100363  69.7665710  24.5915794
  12.9075880  69.1092148  24.9946880  67.8432236  47.6369743   2.6612899
  68.4824371  47.5191994   1.9586073  67.6980743  46.7548447   3.0033655
  46.9597282  40.1088257  80.3019333  46.4076233  40.6076469  79.6997757
  46.5298424  39.2563515  80.3706360  26.0496540  63.8185349  79.8153076
  26.3190536  63.2141876  79.1236267  26.3537235  63.4073639  80.6244507
  70.3968277  26.9861355  49.1364555  69.6926498  26.4343567  49.4768982
  70.3596878  27.7790585  49.6713638  69.2147217  49.6664543  41.6085167
  69.7133789  49.0284119  42.1188774  69.6624222  49.6994476  40.7631149
  59.1247711  45.0036697  16.3070545  59.4482536  44.5354271  15.5374193
  59.7795067  44.8328094  16.9840775  36.6694946   3.4878225  22.7191696
  37.4947891   3.7013359  22.2838097  36.1115875   3.1459801  22.0205193
  80.2550354  16.4793262  58.5586281  80.4545593  16.4529419  57.6228256
  79.3005371  16.5391579  58.5984192  70.3052216  30.6410389  68.6039047
  71.0271530  31.0498695  68.1265106  70.6209869  30.5750217  69.5051117
  64.8853378   1.5699095  72.4150162  64.5358810   1.0727084  71.6754837
  65.7143402   1.9251761  72.0944366  41.2731667  70.1520767  82.3884277
  40.3776588  70.0111008  82.0811310  41.2211914  70.0395584  83.3375702
  43.0030594  21.5552292  83.9325180  42.3777313  22.1221085  83.4810181
  42.7106972  20.6666546  83.7295609  43.5144844  56.0092010  35.0251045
  44.1576653  55.4779625  34.5556984  43.1331940  56.5734711  34.3524590
   4.1086779  40.2767029  65.2401886   4.2404952  39.3510170  65.0353394
   3.3169940  40.5180435  64.7593307  54.0200691  42.3925362  42.3629379
  54.0864334  41.6196671  42.9237442  53.1509476  42.3273811  41.9671936
  60.6523323  18.0314159  43.4958382  61.2432556  17.3135395  43.7231979
  60.0463867  17.6506634  42.8601570  35.0397377  59.6640472  30.9972916
  35.0726585  60.5160217  31.4323635  34.1063995  59.4586639  30.9431553
  74.4574127  32.7318726  47.9563522  73.7986450  32.4388580  48.5859604
  73.9499054  33.0798111  47.2231369  77.6209717  23.1883450  61.4016342
  77.4185562  24.0782185  61.1128654  78.5090103  23.2470627  61.7540207
  10.1251211  32.5869522  65.1901398  11.0466089  32.7075386  64.9608994
  10.1320076  31.8997631  65.8564377  76.3306122  10.1762514  22.6570797
  75.8579865   9.3884640  22.9258652  76.2601776  10.7657166  23.4079475
  18.1651783  59.4882393  30.1841412  17.2556534  59.7623062  30.3019772
  18.2717514  59.4131241  29.2358627  76.0295792  29.5816441  39.1990204
  76.9009094  29.3489990  39.5197945  75.6009445  28.7408981  39.0388680
  38.8537903  56.5525742  38.5625648  38.5836525  57.4575500  38.7183685
  39.1930199  56.5545998  37.6674957  86.9362335  69.6389542  81.7772598
  85.9821625  69.7153091  81.7894440  87.2309952  70.3994598  81.2762833
  60.0209312  70.1825867  63.1865349  59.1184196  70.1505432  63.5038338
  60.1281509  71.0756454  62.8591614  65.2592545   5.0326705   0.1688384
  65.4333115   5.4731135   1.0006702  64.3650970   4.7021556   0.2553344
  14.5081482  17.5302410  65.5283051  13.6478796  17.6717873  65.9234467
  15.0033617  17.0559292  66.1961517  24.3790054  60.0958748  63.1776810
  24.1668530  61.0185432  63.0365906  23.7433548  59.6195641  62.6435356
   5.7642407  39.6874695  47.5569115   5.5036707  39.6846161  46.6358643
   5.0144687  40.0651016  48.0167694  86.4250946  35.4485779   7.1478386
  86.5509033  34.8089714   6.4469061  86.9882278  36.1836090   6.9052711
  29.9937630  37.8583984   5.1149688  29.6983833  37.2728462   5.8121867
  29.8729877  37.3533859   4.3108501  12.9821568  64.2650070  47.7280312
  12.1667337  64.7661819  47.7161217  13.6635895  64.9198761  47.8797913
  25.8792648  60.9052238  20.0169964  26.6258411  61.4881554  20.1550045
  25.2072487  61.2308273  20.6158333  35.7153473   0.2983204  29.8324165
  35.8646698  -0.6363824  29.6900616  35.3010788   0.3461964  30.6939964
  84.9417877  64.3228455  41.7848434  84.2571030  64.4194336  42.4467430
  84.4695663  64.1007462  40.9824028  48.8991852  64.5599899  18.4770241
  49.4837303  64.5054398  17.7210064  49.3972702  64.1669769  19.1937428
  34.7154198   3.2512803   8.8865662  35.5418892   3.6615810   9.1411867
  34.0817833   3.9687345   8.8867502  18.0457458  20.6348248  29.8256092
  18.3030415  20.8018398  28.9188919  17.0927277  20.7241936  29.8244839
  31.6457195  62.2236748  14.0327005  31.6913357  61.4638214  14.6130247
  30.7510757  62.2118988  13.6925478   3.1341946  25.6433201  29.5672474
   3.4341795  24.8726254  30.0491924   3.9168210  26.1862507  29.4726257
   9.6940165   1.4573377  33.8352432  10.6166391   1.2921478  33.6410446
   9.4167995   0.6966289  34.3458328  77.2580414  30.5818806   9.6363344
  77.8945465  29.8976860   9.8436251  76.4100876  30.1393452   9.6733990
  80.0967865  20.8902550  19.8358727  80.4971619  20.0211754  19.8610058
  80.6703568  21.4339085  20.3759594   7.5233483  54.0618057  26.7819080
   6.9931173  53.4889030  26.2279491   6.9002733  54.4368515  27.4042816
  79.6621094  59.8057213  21.2005386  79.3824310  60.6491776  21.5563335
  79.6883850  59.9421234  20.2534714  68.3764877  33.6905327  56.1908073
  67.7805939  33.8145447  55.4520493  69.1206207  34.2604179  55.9965706
   4.5922894  31.9249477  69.1489487   4.3776498  31.2951508  69.8370743
   3.9029207  31.8093987  68.4950027  86.2300949   2.9766216   2.9981573
  86.3156357   3.6104484   3.7103224  87.0673676   3.0208042   2.5363541
  21.6802902  35.9098473  25.8913975  22.1954079  35.3789101  26.4988441
  21.5300102  36.7312317  26.3593464  49.4986954  17.3319969  82.1103516
  50.0035362  18.0725174  81.7742004  48.6112671  17.4788074  81.7830048
  55.8654213  49.8390541  12.2034683  55.6926270  50.4044952  11.4507036
  56.5468330  50.2970047  12.6955986  20.1001568  60.9232292  10.0257854
  21.0262833  60.9534721   9.7857714  19.6927662  61.6079445   9.4952888
  58.7234497  29.6520557  33.5345383  58.9203262  29.0324116  34.2370453
  59.1880798  30.4512253  33.7828865  12.2485914  62.8172722  85.0336914
  11.9766788  63.4725151  85.6763000  11.4931784  62.2352943  84.9506989
  18.4420757  15.4262676   5.7170148  19.2348366  15.4550285   5.1813517
  18.3498535  14.5047741   5.9590425  42.1765594  68.3439636  10.6201572
  42.6314163  69.1861877  10.6188431  41.4482307  68.4660568  11.2291422
  38.7261810  59.7047424  20.7545547  39.5226822  59.3431320  21.1432190
  38.2214699  58.9373703  20.4850464  68.4547424  32.4337196  67.0722198
  69.2740936  32.1978531  67.5072632  68.6635590  32.4087296  66.1384048
  18.8550892  67.1172562  75.7794113  18.1082382  67.2140427  76.3702393
  18.8964672  66.1784134  75.5974884  77.2283020   1.4970840   3.8898132
  77.5422821   1.9634980   3.1151481  76.4172134   1.0767823   3.6039605
   3.6950271  62.8037224  70.1420670   3.7396066  62.8120766  71.0981903
   4.0565443  61.9531746  69.8928528  51.3628693  60.5127792  27.6166611
  51.5029869  59.5957489  27.8525715  51.7879601  60.6084824  26.7643852
  71.9995193  36.9171410   8.0603285  72.1559753  35.9766808   7.9749408
  71.1197357  37.0467072   7.7061758  57.8678360  13.2001772  71.2713242
  57.6744957  12.7709808  70.4378738  58.5419884  13.8452806  71.0578079
  59.7934456  21.0344334  21.1140537  59.2330284  20.2694473  21.2442894
  60.2023392  20.8893185  20.2608356  63.5898361  31.3690891   8.5981588
  63.5778313  32.3126984   8.4378757  63.7813683  31.2872601   9.5324240
  14.9326210  58.2419930  49.3617668  14.1268234  58.5067444  49.8054199
  15.1734705  59.0004616  48.8298416  66.3122101  71.1004868  20.9570904
  67.0752792  71.4095383  21.4453945  66.0972137  71.8225098  20.3665886
  73.3904190   7.5411239  67.9353638  74.1237564   8.1010647  67.6805878
  73.7968369   6.7079782  68.1739578  37.8378181  43.7531586   5.7189736
  37.8277321  44.4510727   6.3739934  37.8562393  42.9445267   6.2308364
  43.4797401  70.8331833  10.2864828  44.4187889  71.0102844  10.2312546
  43.1349297  71.5379410  10.8348036  35.7959366  50.5915413  34.0964394
  35.2087288  49.9275856  34.4578018  36.6738739  50.2373238  34.2378082
  50.8431549  25.4156933  82.4879074  51.5151100  26.0338135  82.2004395
  50.9029961  24.6905136  81.8660049  54.6323357  28.6271076  78.2150650
  55.1774940  29.4125881  78.1697693  54.0517731  28.7811489  78.9603500
  72.9665985  45.1806641  41.5567513  73.0591049  44.5207291  42.2438927
  72.1531525  45.6373291  41.7712059  46.8605881  69.9929657   1.2171739
  46.9065437  69.2822189   0.5776722  46.1643677  70.5634842   0.8915659
  27.9092064  35.4518433  63.1824112  28.1913834  34.8992386  63.9112740
  26.9530354  35.4266930  63.2189789  74.6355743  32.8768234  63.0963707
  73.7973709  33.3237038  63.2144165  75.2214279  33.2962151  63.7265396
  18.3957691  10.5001545  82.5412827  17.9573460  10.7538557  83.3534775
  17.7725544   9.9201384  82.1037750  81.2626495   1.3705261  71.4203415
  80.5187988   1.2558900  72.0117569  81.5279770   0.4792117  71.1936417
  76.8420258   2.4510598   7.5470047  76.0991058   2.0047340   7.1406875
  76.4635315   2.9147034   8.2940025  82.7473679  39.3101540  70.4760513
  81.8815765  39.7157478  70.4298782  82.9936829  39.3757362  71.3986893
  42.0362091  61.2041855  29.6518116  41.1579475  60.9637032  29.9468727
  41.9444084  61.3347855  28.7080173  25.0453815  63.3708229  63.1821709
  25.9617481  63.2481499  62.9342651  24.6459885  63.7931213  62.4216576
  35.1772957  62.3149643  82.7209702  35.1703796  62.5210114  81.7862320
  34.4056091  62.7607841  83.0702209  50.4100037  26.3470554  39.6898651
  50.7168579  26.3397446  38.7832108  49.4648170  26.2110348  39.6239281
  77.6006241  33.9710732  43.0331345  77.1677628  33.4705505  43.7247543
  76.9119949  34.1339798  42.3885574  75.1569061  37.7765312  43.6331482
  74.6982422  38.1660767  44.3775330  75.8495026  38.4032516  43.4239502
  71.5045242   1.4192948  53.0703201  71.5915375   0.7590442  52.3827667
  72.0367050   1.0848769  53.7922516  12.1050634   4.7864952  28.7029819
  11.5866785   4.0008521  28.5289879  11.6163797   5.2501483  29.3830147
  20.7012005   8.8024712  77.6676941  21.0891228   9.2117453  78.4411545
  20.2327919   8.0407877  78.0092545  77.7061691  24.6228905  23.3960171
  78.2954636  24.0926037  22.8595810  76.8309021  24.4101696  23.0721607
  61.3369446  56.4773941  75.7512054  61.1516075  57.3978462  75.5650635
  60.4890785  56.0408936  75.6685944  49.7482910  56.7797089  35.3275185
  49.1948929  56.1451950  35.7829056  49.3496933  56.8672523  34.4616737
  85.4443893  67.0397415   8.7060423  85.5962830  66.4604645   7.9593163
  85.9289398  66.6350708   9.4255486  16.5014572  31.1802902  74.1535339
  17.3536472  31.3877392  73.7701645  15.8684568  31.6032372  73.5733109
   1.8492876  53.8350258  77.1113739   1.4151012  53.3313980  76.4228439
   2.3402610  53.1831245  77.6115723  35.8626366  63.9567184  65.2451019
  35.6462097  63.4384460  64.4700012  35.3510742  63.5590210  65.9496460
  13.7695618  41.2793274  19.3767357  14.2193823  41.6480560  18.6165161
  13.6699533  40.3503189  19.1687737  79.0720139  10.3712025  17.9101887
  79.4450607  11.0310268  17.3256416  78.4440002   9.8964558  17.3657188
  56.9524040  68.8428345   8.9803858  56.2041245  69.4333954   9.0672483
  57.7153702  69.3973618   9.1435194  36.9056549  61.8910980  25.6018410
  36.0433769  62.1682777  25.9114914  36.9376106  60.9531288  25.7900562
  20.0361347  29.0927315  75.0816040  20.9300537  28.9588299  75.3965759
  19.6945229  29.8027687  75.6250916  70.0698700  49.7787476  30.1649685
  70.1674194  49.3418083  29.3189182  69.6199646  49.1375961  30.7151928
  52.2374687  54.0346527  34.2104797  53.1870689  54.1525650  34.2347374
  51.9770317  53.9983826  35.1308556  30.6296825  34.6296616  66.6213074
  30.0267982  34.3924294  65.9166946  30.1415596  35.2587776  67.1525192
  26.3057232  48.4536934  71.6541824  26.3774509  48.5894165  72.5989914
  26.3735104  49.3321953  71.2801895  22.2866001  43.4323158  36.5829926
  22.4401627  44.3770790  36.5916290  22.8493824  43.1045876  35.8814926
  24.7949238  33.5845642  87.4845428  24.0617809  34.1999130  87.4756622
  25.0700321  33.5265617  86.5695648  28.2668228  57.0311050  15.9799967
  27.7012215  57.1878166  15.2238426  27.8229027  56.3404579  16.4721069
  62.3824501  38.2748260  77.9451599  62.1718483  38.3154182  78.8780212
  61.6544495  38.7238770  77.5155106  32.2191696  17.4331264  89.4225845
  31.7742519  16.5933361  89.3084259  32.8251495  17.4855499  88.6834793
  67.6716537  21.2840252  16.3725033  68.3837662  21.1355648  15.7503338
  68.0418854  21.8816261  17.0221424  40.8024368  51.1126862  17.2621613
  40.5171394  50.6710472  18.0620327  40.7602654  52.0449181  17.4752178
  55.3408928  68.6772614  65.5528717  55.4596138  68.9126282  64.6326904
  55.1898117  69.5121155  65.9960709  24.4541969  60.7613220   6.2897911
  23.7142887  61.1283455   5.8059945  24.0810719  60.4899788   7.1284704
   0.7818573  40.3828316   2.7349076   1.0602514  39.4722137   2.8324094
   0.4658863  40.4414558   1.8332661  47.1617928  43.7983818  28.1151733
  47.4993782  44.6414757  28.4176006  47.9176750  43.3665504  27.7171879
  70.6210175  35.0463333  86.9878693  70.4768372  34.1575050  86.6631699
  71.5634384  35.1854858  86.8945389  34.6180420  71.4869690  14.7153425
  34.3505402  71.9686508  13.9326200  34.3916512  70.5765381  14.5253410
  17.2244682   6.7018127   0.6454238  17.2306156   7.6589179   0.6334127
  16.4499969   6.4737058   1.1596174  12.2453251  56.3568420  28.7685566
  11.7041111  57.1448936  28.8164082  13.0573187  56.5964546  29.2151909
  40.2728882   6.8229365   0.7557141  40.8997040   6.6052551   0.0658222
  40.2136688   6.0276856   1.2851485  28.8699265   2.2572856  12.7879515
  29.4623508   2.8776503  13.2127037  29.4303703   1.5217018  12.5408659
  15.8961029  61.6467133  33.3571892  15.9497738  61.8810005  32.4306602
  15.9388790  62.4841270  33.8188629  53.6460419  48.4519997  51.0021477
  53.5927315  49.4076653  51.0118065  53.3368759  48.1861038  51.8681412
   4.3144546  51.6689148  65.7552338   4.3358765  52.1744728  66.5677490
   4.8631892  50.9052124  65.9337845   5.8657799  70.9190750  50.9365082
   5.9497590  69.9699554  51.0279388   5.4596677  71.0420380  50.0784988
  59.6823082  12.0740433  64.3891373  58.9750252  11.9033318  65.0111008
  59.9788017  12.9592466  64.6006546  11.4439888   2.3852940  18.5182533
  11.0157299   1.8392519  17.8589630  12.2114582   1.8798395  18.7860928
  75.1730194  14.1682577  63.5616341  74.6815643  14.8591137  63.1173172
  75.3125229  13.5025158  62.8881645  29.2120380  31.7585869  43.7411919
  29.5259686  31.4654903  44.5966301  28.6865330  31.0277710  43.4156418
  53.7455139   6.2299857   2.4693611  54.4461594   5.6481261   2.1748030
  54.0914955   7.1114368   2.3294597  22.8312798  47.1986504  64.6897202
  23.2600212  47.3044167  63.8404655  22.7363434  46.2518806  64.7938385
  10.3150930   0.7673706   0.3105723   9.5260458   0.6106327   0.8292921
  10.2358179   1.6768464   0.0228202  15.3710384  45.4632759  50.0689583
  15.4837446  45.5714073  49.1245880  14.4499969  45.2250099  50.1745186
  57.3241501   6.5433550  38.4228745  57.6607323   6.3737774  39.3027534
  58.1071243   6.6208777  37.8777428  61.2601929  52.5296631  63.8079224
  61.6310349  51.6940842  64.0916824  61.4899216  53.1430397  64.5059357
  16.8375320  45.6680756  80.0868759  16.9592113  44.9785271  79.4342270
  17.0574856  45.2509575  80.9198608  18.7955132  30.9873409  12.1863861
  18.9716511  30.6567135  11.3055391  17.8433723  30.9416561  12.2734137
  68.3691406  59.2549667  81.4369431  68.4632721  59.0261688  82.3616180
  67.4311295  59.4072723  81.3221817  34.3352203  52.6347351  47.0026321
  33.4967766  53.0839157  47.1098137  34.8104324  52.8179932  47.8130760
  66.3499985  24.9684086  64.9712296  66.7183762  25.8260403  64.7591019
  65.9778900  25.0773830  65.8463821  46.3445168  70.1555557  25.1834221
  46.2821121  70.4717560  26.0847301  46.6713867  69.2596970  25.2659760
  57.8604431  58.7134705  24.0654488  58.6636620  59.2340965  24.0609322
  57.4022331  58.9869347  24.8601131  33.6368141   4.1791644  16.2772808
  33.3213081   3.4283633  16.7802582  34.4188766   3.8561010  15.8298016
  39.5208435  28.6194782  77.8071671  39.3789902  27.7521954  77.4277878
  39.9886551  28.4496384  78.6248093  59.8807449   8.9645014  45.6123123
  59.3983345   9.4533186  44.9455528  60.0410728   8.1093616  45.2132378
  11.1834126  15.4966965  15.0896902  11.7969580  15.4624214  15.8235970
  11.1177301  14.5900393  14.7898741   3.2629387  53.7066536  44.0028915
   3.5305321  53.2481804  43.2063828   4.0676999  53.7869034  44.5148964
   2.0399926  66.8674088  20.2625427   2.6856139  67.3832397  19.7795048
   2.4150014  65.9874725  20.2987232  73.7548828  53.0492287  66.4211502
  73.4614487  53.7566147  66.9953766  72.9477158  52.6174774  66.1413116
  66.4786606  39.7038002  80.1846466  65.7416534  39.7630463  80.7925415
  66.2693939  38.9546318  79.6268082  76.0033417   5.6459394  72.7547760
  75.9290237   4.6988750  72.8721619  76.3005066   5.7527008  71.8511581
  24.1142883   9.7434568  72.5218811  23.1766815   9.7737846  72.7121582
  24.4885216   9.2358475  73.2419586  21.4663601  12.5877934   6.8681121
  21.8470116  11.7121582   6.9359255  21.9835606  13.0219078   6.1896715
   9.8089924  56.2700195  18.7886944   9.5799952  56.0616798  19.6944466
   8.9946976  56.5947990  18.4044094  37.5561218  50.3975449  17.3572350
  38.3940582  50.6470718  16.9675808  36.9233780  51.0049095  16.9738598
  53.4866142  56.2147255  15.3905630  54.1478539  56.3915634  14.7214422
  53.6994095  55.3385506  15.7119179  59.2562370  62.0789604   3.7215936
  59.0160942  61.1616135   3.8521321  59.6928596  62.3303909   4.5354581
  28.6394424   4.7128096   9.5097246  28.0460854   5.3298006   9.0813780
  29.1038647   4.2874279   8.7888956  80.2223969  36.6091919  63.5784912
  81.1764603  36.6783485  63.6132393  80.0310287  36.3927422  62.6659355
  83.5625916  63.8080711  87.3592834  82.9369049  64.1023865  88.0211945
  83.5050430  62.8529053  87.3832397  39.1909943   0.4013092  88.2101822
  38.4779320  -0.1808552  87.9477768  39.4955788   0.7913637  87.3908463
  21.4922600  61.2570267  34.2776299  21.4538937  62.2098465  34.3606453
  20.7140064  61.0293961  33.7689629  44.6797943  53.2116547  15.5259457
  44.5545616  52.2847748  15.7295275  43.8882751  53.4611931  15.0490189
  70.0045166  46.5669327  81.9339676  70.0495453  47.5229607  81.9485397
  69.4777451  46.3402519  82.7003632  25.7382221  53.5355453  60.0873909
  26.2751694  53.0382614  59.4704361  25.9934940  53.2040901  60.9483223
  34.0788727  54.0074348  88.0092392  33.9225044  53.8766518  87.0739975
  34.4932327  53.1945877  88.2987595  53.5690155  59.2177010  33.0810127
  54.4901237  59.0034409  32.9330711  53.4253922  60.0184860  32.5766830
   3.1477408   8.2837639  79.7804260   2.3803637   8.2994261  80.3523712
   3.4987290   9.1731167  79.8261490  36.2906799  12.3446674  79.1824875
  36.8726425  12.9267616  78.6938934  36.2608337  12.7195024  80.0627365
  65.2884521  38.7411041  16.1314964  64.8082581  39.4571533  16.5473347
  64.7893448  37.9558067  16.3560753  70.7979965  43.1319008  63.9436874
  70.5052490  42.3497734  63.4759178  71.1005630  42.8050499  64.7909546
  40.8581467   3.7659235  70.5853348  41.2546730   4.3952084  71.1878357
  40.9954987   2.9155045  71.0026550  13.7062969   3.4508696  64.9722748
  14.6230421   3.2169523  64.8270416  13.5442390   3.2268715  65.8886795
  55.9935074  34.5972214   1.3919392  55.1885300  34.6120872   0.8742310
  55.7081223  34.7939873   2.2841675  40.6101723   1.3087659  46.7766037
  40.8933067   1.9885384  47.3881416  39.9775581   1.7470317  46.2074356
  68.7151413   7.6410007  47.5197868  67.8071976   7.9410105  47.5629845
  69.2166824   8.4262438  47.3005066  16.7913113  65.1599579  75.9395905
  16.1709232  64.7204819  75.3580322  16.5043659  66.0730743  75.9498749
   1.6370898   9.9738455  61.6373024   1.8881922  10.4535456  62.4266510
   1.9677222   9.0870638  61.7805939  20.5867538  25.1507759  72.6379929
  19.8090439  24.6110516  72.7797546  20.2903519  25.8494434  72.0546875
  68.2940674   5.2572036  17.3569775  68.0734558   4.5293012  16.7758408
  68.5299149   5.9723992  16.7661285  23.5933666  32.9064941  62.6000481
  23.8386936  32.0133972  62.8417625  23.2319260  32.8250427  61.7174644
  72.8533401  60.7399826  70.2024155  72.5530853  59.8401108  70.3301239
  72.6509705  60.9323349  69.2868347   2.2865627  15.9454193  58.6044884
   2.4019804  16.4719067  59.3955154   1.3855933  15.6266804  58.6582642
  37.8904572   3.5778604  41.0939636  37.3772240   4.2051458  40.5847168
  37.8431129   3.9033916  41.9928627  75.1658783  23.0111485  17.1638241
  76.0059433  22.6235352  16.9183121  74.7869339  23.3058701  16.3357067
  79.4216156  28.3599815  43.1894379  79.7178574  27.8368511  43.9342918
  78.5033035  28.1153393  43.0750504  46.8682518  18.1029873  58.6087914
  47.7508316  18.2856274  58.9311600  46.9073830  17.1964188  58.3041000
  76.0634689  36.4230499  22.0073586  75.2043533  36.0283890  21.8577118
  75.9704971  36.8918724  22.8366928  16.7285995  66.3256912  33.3956490
  16.5380116  67.1118851  32.8839798  15.8941755  65.8584747  33.4366341
   1.3172771  43.0134392  51.3990784   1.2019118  42.1493874  51.7944717
   2.0532479  42.9048843  50.7967529  32.6264000  67.9635925  21.2016716
  31.8251209  67.5899582  21.5685215  33.2871857  67.2823486  21.3261795
   5.7059097  68.3621826  87.1368179   6.1076126  68.2748871  86.2723846
   5.8063731  67.4980087  87.5359879  26.3693714  35.0152206   2.7721963
  26.5629711  34.2435722   2.2399316  27.2118473  35.2593536   3.1554294
  79.4232788  25.6373730  86.6725693  78.8921051  25.2048187  86.0039978
  79.2284317  26.5686512  86.5677643  82.1767426  39.2112274  21.4387512
  81.6836090  38.7714882  20.7461605  82.4866486  38.5006676  22.0002613
  58.2718544  27.0417900  59.0155487  57.5063591  26.8712845  58.4667549
  58.0598183  27.8531876  59.4769707  76.2784576  10.9953947  87.4910126
  76.6184235  11.5217133  88.2146378  76.4896851  11.5017643  86.7066574
  74.0498962  14.4669228  41.0887222  74.4221191  13.7877769  41.6512566
  74.5577316  15.2521334  41.2931290  40.8421898  37.8910789  88.7698135
  40.1411591  37.2820244  88.5377808  41.2041740  38.1711273  87.9291153
  77.0251617  69.8805084  73.3333282  76.2263641  69.7056427  73.8308945
  77.7214203  69.4699478  73.8460693  22.8519192  22.1086617   4.9710183
  22.9768353  21.3939381   4.3466806  21.9384289  22.3703861   4.8558421
  42.6165657  43.3956108  48.8015366  42.2480659  42.6391983  48.3451614
  42.2073021  44.1518250  48.3809700  41.2157631  27.4851055  65.8162613
  40.9139023  27.8826199  64.9994965  40.7421112  26.6549168  65.8679581
  79.2411652  13.0527515   2.2894275  78.5345230  13.2835932   2.8924234
  79.9509277  12.7511454   2.8564422  25.5680981  47.1953011  13.9257507
  25.1383381  47.4549942  14.7406731  26.4602489  46.9676819  14.1874466
  77.3856964  58.0717697  83.5669632  77.2309570  57.1905556  83.9071808
  77.0338516  58.6537743  84.2405396  25.8681831  44.2351761  42.6268845
  26.1724224  43.3855972  42.9460869  26.6700001  44.7367172  42.4793167
  58.2379608  16.6459332   5.4584723  58.1150017  15.7235241   5.2342529
  57.8609543  17.1242390   4.7200131  41.1421242   2.0523942  10.1420994
  40.6225967   2.8356450   9.9608727  41.8223801   2.0550909   9.4686956
  31.5967922  68.3783493  24.6755009  30.6787224  68.2388763  24.4432793
  31.7832870  69.2722855  24.3885498  76.0856171  30.9873734   2.0397069
  75.1988907  30.8093681   2.3531737  76.5846329  31.1851330   2.8322387
  70.9852219  38.6893463  58.6044502  71.8616714  38.9131012  58.9174995
  70.5986404  39.5285988  58.3545685   1.7469046   4.0878587  26.3099747
   2.5536857   3.8456559  25.8553619   2.0424197   4.4550014  27.1431084
  47.1263771  64.7555389   9.4096460  46.3239822  65.2684402   9.5062304
  46.8871613  63.8781013   9.7081614  55.6660156  23.3479462  41.0348969
  55.4200439  23.6860199  40.1738319  56.6069946  23.1854782  40.9685593
  57.7987366  32.6481438  54.9678879  58.1429176  32.7820358  55.8509750
  58.3614197  33.1829453  54.4078827  18.3938828  54.8680000   2.6513155
  18.9798546  54.8426399   1.8948591  17.5145988  54.8736000   2.2730830
  46.9512978  37.7714195  40.3912048  46.2089729  37.5482788  40.9528008
  46.8578758  38.7107735  40.2327194  21.2918797  41.6917801  87.0815659
  20.3950672  42.0263748  87.0840836  21.2917023  41.0111809  86.4085007
  47.5912056  32.4108238  79.2390442  47.6759758  32.3240051  80.1885223
  47.7716064  33.3348007  79.0659637  18.9085331  63.2140846  27.7706470
  18.1039104  63.3586540  27.2727356  18.9294529  63.9303665  28.4052601
  26.6525517  71.3060760  22.4149303  27.5963516  71.2108383  22.5430031
  26.5315990  71.2407990  21.4676495  70.1385956  44.7304764  39.8961182
  71.0819550  44.7942429  39.7470169  69.7559509  44.7447281  39.0188408
  57.1351089  19.2059650  65.8607941  57.6842461  19.9364109  65.5759735
  56.5837326  19.5755405  66.5504608  27.6222858  48.3561134  50.0648346
  27.2313213  49.1507034  50.4281502  27.4725151  47.6880341  50.7337646
   4.2143850   1.8631860  43.8028259   4.9323225   1.4827656  44.3088684
   3.4714799   1.8667054  44.4064102  39.3884621  45.5258789  57.4148483
  40.1447296  45.2169724  56.9159813  39.5556374  46.4585838  57.5503006
  45.6310959   1.9471118   6.4071507  45.2372589   1.5378985   7.1776505
  45.1942673   1.5297924   5.6646829  56.9660492  53.0945282  69.8029785
  57.8314896  52.8509407  70.1314697  56.6636543  53.7739830  70.4055786
  34.8353310  48.9961243  64.1941528  35.6524391  49.1641464  64.6635513
  34.7202950  49.7621269  63.6317978  23.6989918  40.6200905  40.7471275
  23.2274017  40.5622292  41.5780830  23.9815388  41.5331612  40.6951561
  78.7940979  33.6108627  25.1316833  78.4671783  33.9221687  24.2876225
  78.6992416  32.6593285  25.0890980  79.1988678  18.0683708  22.6153622
  79.9605942  17.5226402  22.8107586  79.1457062  18.0720768  21.6596451
  20.0906620  35.9329567  23.6953068  20.5904598  35.8019562  24.5010815
  20.7310238  35.8128548  22.9940605  61.3319359  35.8201981  31.4099922
  62.1586113  35.4408722  31.1117420  60.7796669  35.0642357  31.6093731
  52.0252342  12.6337252  57.1878052  51.8120346  11.8445835  57.6858368
  52.5889931  12.3244514  56.4787521  68.0928268  35.3810310  89.0426941
  67.4091797  34.7936325  88.7204819  68.9004059  35.0443878  88.6544724
  46.8027687  46.1049232  33.2629929  46.7250137  45.2994423  33.7742538
  46.5427780  45.8523369  32.3770828  63.3578453  34.2839775   6.6659765
  63.7521324  34.2329178   7.5367017  62.4419708  34.5082893   6.8305645
  11.4516649  28.4819679   1.7677631  10.8046150  29.0608101   2.1708748
  11.0901556  28.2833233   0.9040024  54.9821281  19.2301903  62.4454155
  54.3020096  19.4560795  63.0799599  55.3910789  18.4420738  62.8029976
  54.8604393  35.4828911  31.0897083  55.4999962  35.1394691  31.7136154
  55.1028748  35.0838699  30.2541008  30.7588558   3.7774723  14.5052576
  31.6516895   4.0845633  14.6626577  30.3749771   4.4408860  13.9318905
   1.8884168  49.0620117  32.5836563   1.0938929  49.5934296  32.6342163
   2.3335016  49.2167778  33.4168320  82.9063950  55.3194809   0.7207317
  82.6757965  56.0247078   1.3254725  83.2450943  55.7690392  -0.0534849
  39.1180344  42.1772308  41.6659431  38.3842239  41.7982903  42.1498451
  39.5986519  42.6856918  42.3191719  84.1274643  62.5418701  60.7583389
  83.9550247  61.6769943  60.3862000  84.8375320  62.8957901  60.2228279
  20.1779175   7.5495868  30.4045010  20.1190186   6.6427946  30.7053185
  19.9162159   7.5141964  29.4844513  32.7955971  45.5171394  79.3741074
  31.9617290  45.4079933  79.8312607  32.5522118  45.6271248  78.4549255
  36.9170837  50.3491821  79.0571213  36.5890236  49.5027542  79.3607101
  36.2926674  50.6207581  78.3843765  65.2100983   6.2981405  37.7598190
  65.7331009   6.3322139  36.9588547  65.2335587   7.1927633  38.0994263
  68.0103455  59.1356888  25.5090961  68.8139572  58.7712364  25.1381264
  67.4200516  59.2247620  24.7608681   5.7636113  65.3000793  20.4226112
   6.4232578  65.6405716  19.8183250   6.2700396  64.8904114  21.1239948
  57.6612663  38.0756645  82.9663849  57.5431328  38.5772705  82.1597443
  57.4364357  38.6897316  83.6653824  63.5345917  11.0060339  57.7611618
  63.7412758  11.2958546  56.8726120  62.5790367  10.9530792  57.7796402
  81.8544083  52.7423477  48.1571388  82.3961716  53.3014908  47.6002846
  81.2474670  52.3170815  47.5513344  58.4923210  30.4686737  29.3379955
  58.8254128  31.2042980  29.8519382  57.8247032  30.8552132  28.7713337
  79.9152298  17.9545097  32.5646973  79.6899414  18.4913712  31.8049259
  80.2856522  17.1546936  32.1914520  14.9442434   0.6273482  73.7291183
  15.0957727   1.5687735  73.8127213  14.2187672   0.4474939  74.3270950
  38.2037201  56.6198654  77.0394745  37.4176102  56.0817795  76.9460449
  38.1468086  57.2532883  76.3240891  35.0008659   1.0193111  49.8990440
  35.1805916   1.8277709  50.3789635  34.4117813   1.2857089  49.1931801
  69.7342377  17.0302868  13.1338558  68.8690186  17.2890797  13.4511023
  69.6308212  16.9621944  12.1846981  25.0971928  28.0602932  78.9287949
  25.3317089  27.5314484  78.1661987  25.9360390  28.3574123  79.2813416
  50.1594276  13.0799198  87.4808044  50.1492767  12.3706427  88.1234970
  49.3552780  13.5700054  87.6522446  50.2194366  11.2123871  34.0862236
  50.6627731  12.0592270  34.0357552  50.3505898  10.8215218  33.2223625
  76.9294357  15.9684439  39.2672157  77.8155746  15.8598480  39.6124611
  76.7381592  15.1372833  38.8326874   2.2011719  57.4495506  11.7891340
   2.0807838  58.0291214  11.0369148   2.4505000  56.6085396  11.4060259
  61.2648544  48.8707314   2.4140246  60.9097252  49.7477951   2.5585103
  61.8783646  48.7386818   3.1367967  63.9776421  20.8389797  24.2199440
  64.9026947  20.7520313  24.4500370  63.9626045  21.5101452  23.5376377
  65.3523712  42.2637062  54.2400284  64.4456253  42.5458603  54.3601570
  65.6554565  42.7512894  53.4741058  80.2754593  26.3377934  25.1343861
  81.0348969  26.0928688  24.6057072  80.0465317  25.5388699  25.6093025
  33.4861031  59.9144821  61.8243752  33.3661995  59.3877945  61.0341530
  33.4366035  60.8201103  61.5184021  77.4316559  61.4363480  50.5019608
  76.8355942  60.7490730  50.7996140  78.0461884  61.5508957  51.2268448
  54.9322662  70.4056015  69.6605530  55.4501114  69.7280960  70.0953522
  54.0802536  70.3718948  70.0954971   1.9234736   0.8151001  42.2463188
   2.6295929   1.1066265  42.8230667   2.0522888   1.3133698  41.4392471
   3.8281963  14.4206657  14.0422888   4.7448311  14.4656897  13.7702875
   3.7341702  13.5478354  14.4238100  16.4460430  20.3785439   8.6421556
  16.1515617  19.9015274   7.8662901  17.3172646  20.0260506   8.8236914
  40.0588455   6.5509143  50.7934685  39.8916016   6.3384867  51.7116928
  39.9199944   7.4963174  50.7372169  86.1518555  38.1711006  59.0142822
  86.8712387  38.6167221  59.4616508  86.3298035  37.2395210  59.1436081
  73.4135284  42.2907066  38.3060989  73.3997879  43.2452583  38.2362709
  73.9860001  42.1133690  39.0524635  52.0023041  61.2919006  22.8247490
  52.4080734  61.9556389  22.2670441  51.6343994  60.6559105  22.2112408
  74.2258377   2.7891715  82.2503128  73.4139023   3.2953908  82.2774506
  74.6200943   2.9224350  83.1123047  38.4987488  66.5365448  78.4802322
  39.1748810  66.7721252  79.1155167  38.3798866  65.5937729  78.5954666
  69.9971008  20.3522053   4.8013501  70.9493561  20.2551861   4.7972140
  69.8491440  21.2723446   4.5829821  42.3660240  10.2406969  13.9614573
  41.7686424  10.4518852  14.6789303  42.6043739   9.3255835  14.1097374
  25.0379181  36.6124115  12.2741299  25.4219608  37.4752007  12.4301281
  24.6504555  36.3672371  13.1143646   5.0873837  58.6449585  62.9799232
   5.1960840  58.4586105  62.0473518   4.1592326  58.4839401  63.1497498
   2.8144131  44.4430313  61.8517609   3.2950289  45.2451820  62.0562019
   2.8123124  43.9494591  62.6718941  22.8268471  29.5524426  78.8719635
  22.3792858  29.6578293  79.7114944  23.6212597  29.0623245  79.0839157
  30.4259319  27.0695477  71.9801102  29.9387608  27.0860424  72.8038940
  31.2918549  26.7399712  72.2204971  36.4341011  64.2850952  84.7186432
  37.3737831  64.1583099  84.5876617  36.0456886  63.4371796  84.5032196
  64.4932175  27.4185085  33.9711113  63.6242905  27.1838589  33.6453285
  64.5448914  28.3670845  33.8537865  58.3058510  17.8514290  68.3703156
  59.2486877  17.6885338  68.3978958  58.1857910  18.4373894  67.6230011
  22.5808372  40.8413811  25.5853577  22.5662651  40.4512749  26.4593334
  21.6971302  40.7006874  25.2455044  53.1766052  69.1924057  49.6439018
  53.8141136  68.7545471  50.2079048  52.8510704  68.5004425  49.0681877
  37.9371643  11.1023197  67.2843857  37.4068413  10.4979248  67.8037033
  38.8129616  11.0408630  67.6657486  70.2897568  34.6862602  12.7920837
  70.5050507  33.9428902  13.3553619  70.9830322  34.6953888  12.1321430
  56.0748711  28.6891003  45.7223816  55.5585938  29.4926929  45.6597061
  56.6536217  28.7162018  44.9604454   3.2654788   8.4281082  54.2682762
   2.9870872   9.3229818  54.0735207   3.1702051   7.9615607  53.4379234
  34.4655800  63.4845772   0.1059011  34.9792442  62.7747993   0.4913735
  33.7346687  63.6075706   0.7116045  25.7440701  29.2536125  71.1462250
  25.6036606  30.0710888  71.6239777  26.6370068  29.3238277  70.8086395
   5.6947212  32.8032875  83.8911133   5.7005386  32.6220436  82.9512405
   4.7845778  32.6688919  84.1553268  19.7626247  59.0684547  17.1622581
  19.6917362  58.3755875  16.5056458  19.8192387  59.8766403  16.6524906
  68.6876984  14.3103905  63.7582550  67.9343109  14.8809900  63.6063995
  68.3310165  13.4236822  63.7057190  23.1452732  60.0346298  27.7792053
  22.4071255  60.5191498  28.1488152  22.7689209  59.1991272  27.5025730
  21.7973728  53.0660553  23.1112976  21.7214203  52.3019676  23.6828136
  22.6691589  53.4163589  23.2943478  54.2010460  61.3213539  71.6926117
  53.3014069  61.2481804  72.0112381  54.1155624  61.3568687  70.7398987
  19.0078239   1.7711519  11.0241623  19.1501064   2.7163849  10.9739437
  18.5496063   1.5544430  10.2121859  60.1423950  22.5710640  84.0665817
  59.5854034  23.3491192  84.0915298  60.9796448  22.8642464  84.4261551
  52.0207748  27.5261669  13.4151392  52.9248581  27.5235558  13.7295589
  52.0649872  27.9588356  12.5624523  68.7003937  58.2998543  33.8612671
  68.3349762  57.4335213  33.6819077  67.9401093  58.8810577  33.8811607
  64.6942444   2.9268250  53.1190453  64.5358124   3.8497057  52.9204941
  64.4880295   2.4678230  52.3047829  19.6083202  19.5169144   5.5687299
  19.4349384  20.4443188   5.4072008  19.5177383  19.4178429   6.5164700
  75.8668823  17.7678585  85.8130341  76.0936966  16.9190121  86.1928329
  76.0626831  17.6731892  84.8808746  48.5479164   7.7899394  23.8886318
  48.0555878   7.3393250  23.2024899  49.0501137   8.4587946  23.4231606
  22.6057472  58.2455711   0.0363776  21.8901978  58.3111839  -0.5960099
  22.4375896  58.9499969   0.6622668  73.4608231  53.5565300  19.0475483
  73.8298111  54.4012604  19.3054409  74.0263138  53.2552071  18.3364563
   1.6308159  70.7885971  83.7988052   1.0318332  70.3140182  83.2224197
   1.4125183  71.7107849  83.6641083  49.3635292  48.0984612  12.1687260
  49.1156845  48.9401627  12.5512762  48.8877754  47.4500656  12.6878319
  79.5965652  51.0066032  40.4314919  79.4961777  51.8144455  39.9279556
  80.5418701  50.9142723  40.5502052   1.1339724  36.0646400  83.3655090
   0.6759114  35.2609329  83.1196136   0.6755566  36.3718758  84.1476212
  64.8110657  45.7209358  44.6695442  65.6259155  45.2763290  44.4359093
  65.0933228  46.5404129  45.0757713  59.2144203  28.3682861  36.2713699
  58.5199356  28.3012962  36.9266815  59.3936005  27.4625587  36.0188217
   9.1927090  31.8062038  10.0626936   9.7656898  32.4370155  10.4985857
   8.4161739  32.3126717   9.8245459  40.9221153  13.8629065  65.0439606
  40.3979759  14.3749828  65.6598282  41.2238922  13.1110268  65.5537033
  70.2988586  22.0140285  55.7456589  70.0903625  22.9187317  55.9786301
  71.0179138  21.7756538  56.3307838  16.1180782   4.2357702  15.0380516
  15.7292051   4.0157032  14.1915417  16.5028057   5.1023760  14.9068537
  60.5184021  34.0834923  87.7690353  59.9975853  33.5457916  88.3655701
  59.8908577  34.7010536  87.3934784  36.6955910  36.6299057  73.4964676
  37.2175331  37.3730965  73.7989197  37.0490608  35.8790627  73.9734726
   9.0509109  38.3652077  57.1831932   8.4286003  37.6413994  57.1120453
   9.2705650  38.4015884  58.1141357  74.5678864  40.7320671  10.0850630
  73.6719818  40.5603905   9.7950220  75.1044769  40.1217537   9.5792837
  79.9853134  22.6208057   3.8124363  80.6908264  22.3202019   3.2396193
  80.4313507  22.9219246   4.6040196   4.0835266   0.2042623   4.9840832
   3.2518003   0.1244229   4.5170832   4.7218070   0.4141672   4.3023434
  73.8580780  48.4587860  20.4126987  74.2865295  49.3106689  20.4961243
  72.9231186  48.6536102  20.4768715  46.8840027   1.0106255  41.3217773
  47.7807388   1.2467765  41.0844345  46.3425865   1.6874342  40.9155388
  77.7913132  54.3794518  36.8692474  77.8542938  55.3223381  36.7168427
  77.2007446  54.0651016  36.1846695  80.7834015   5.0080605  34.3255424
  80.5111847   4.1250806  34.5755043  81.6387482   4.8872848  33.9132080
  15.6769333  21.9723988  67.8931885  15.6000786  21.0416489  68.1030197
  15.8548288  21.9920387  66.9528656  57.8222847  58.7633591  78.9616623
  58.0403862  58.0797615  78.3281326  58.0093880  59.5828247  78.5037308
  22.7338123   5.1571712  68.1158295  23.4902077   4.8690948  67.6048431
  22.5610332   6.0466514  67.8072815  21.6908188   9.1061230  73.7704086
  20.7617855   9.0426035  73.5488434  21.9235744   8.2308283  74.0801163
   3.5370390  18.4470959  12.4119186   4.4462581  18.7463493  12.4118843
   3.5003660  17.7923317  11.7146587  20.1110764  39.2504807  69.8579330
  20.6168423  39.0127258  69.0808258  19.5294952  38.5041466  70.0027847
  12.2761908  71.8506317  81.5462570  12.5499392  70.9852371  81.8502045
  11.3288975  71.8639145  81.6829681  65.2441025  50.2096558  49.3219223
  66.0547180  49.8331947  48.9792786  65.4834671  51.1000748  49.5790100
  13.3566608   6.3181286  26.3083668  13.7808256   7.1318607  26.5806847
  13.0355873   5.9311771  27.1228676  62.8065224  64.5581131  63.7469711
  63.5533180  65.1370392  63.8998528  63.1112480  63.6950417  64.0271149
  69.5464706   1.7819360  71.0310364  68.6186600   1.9726940  71.1689377
  69.7369308   2.1347742  70.1618652  39.1029167  64.9659348  13.0300446
  39.9685822  64.5574646  13.0325985  38.4945297  64.2386780  13.1611958
  30.7656765   7.7061777  76.6287842  31.4128799   7.9430599  75.9645157
  30.1021919   7.2091718  76.1502380  16.3550549  45.6649055   9.7806215
  17.0202236  46.1933784   9.3396015  15.6692934  46.2901001  10.0153360
  43.2468109   7.2520537  49.6594353  42.4129219   7.1696129  49.1967621
  43.3703079   8.1954470  49.7642670  48.2047234  60.4926643  48.3068390
  47.4138260  60.0799332  47.9598999  48.0714569  60.5068169  49.2546120
  16.3807735  32.5105019  67.8372040  16.8199272  31.6724815  67.9824448
  15.9303360  32.6910248  68.6622849  25.7488956   7.7196136  16.8002167
  26.3340111   8.3575020  16.3915977  26.3057423   6.9606700  16.9738750
  31.9357967  32.5096359  89.3611450  32.3390121  33.3674812  89.2279205
  31.4036427  32.3708420  88.5777054  85.0064240  69.8527908  25.5208225
  85.4142456  70.5502548  26.0341091  85.4327850  69.0513687  25.8244019
  43.6140480  41.3049736   3.3991151  44.4443588  40.8540230   3.5522881
  43.0323372  40.6261139   3.0570672  67.1173630  20.9499836  86.2945709
  66.3580856  20.7445641  86.8400421  67.0107422  20.3997078  85.5186462
  28.9093857  38.6349525  65.2911072  28.0051384  38.4136467  65.5137939
  29.3878746  37.8113899  65.3860855  66.1026382  22.4144955  66.8357697
  66.8340454  22.3795719  66.2192841  66.4171829  22.9695148  67.5493851
  57.5426979  11.4413986  27.3888988  57.2819214  10.8849258  26.6550274
  56.9963303  11.1479053  28.1179905  18.8744049  35.7322578  15.1319923
  19.5723953  35.5948067  14.4915638  19.1514549  35.2316437  15.8993664
  54.0332947  39.2486763  21.4310684  53.9698410  39.6684723  20.5731773
  53.1617699  38.8836479  21.5841465  65.1211472   4.9549513  63.8986740
  65.7623596   4.5300536  64.4683609  65.6278763   5.6028981  63.4091606
  20.1161137  43.3235931  56.6665688  19.4991798  43.7383995  57.2695312
  19.7710609  43.5228233  55.7962379  56.0004959  69.5240021  52.3021393
  55.7261887  69.6819000  53.2054939  55.7742233  68.6082230  52.1397133
  80.2221069  44.8782425  82.1999283  80.4541168  44.2190819  82.8540802
  80.4957962  45.7087517  82.5892639  16.6475639  12.0731287  84.4011765
  16.3173370  12.0785170  85.2995987  17.2703304  12.7993908  84.3705521
  14.7725086  12.5677986   5.7276769  15.3407564  12.2633247   6.4352231
  14.8318424  13.5223579   5.7667723  85.6505814   7.0315514  11.9513903
  86.0605316   7.7955933  12.3568707  84.7120972   7.1638918  12.0854397
  49.6841469  39.0120277  27.3179321  50.3455353  39.6827202  27.1477108
  50.1853676  38.2041740  27.4291954  47.4514122  43.9667053  21.4398880
  47.8054581  43.1103363  21.2000637  48.2236557  44.5162659  21.5735035
  66.3048782  62.0639267  74.8013153  66.8199081  62.0292282  75.6073990
  65.8386993  62.8984795  74.8506851  13.1448231   7.6403608  76.7558289
  13.5086937   7.7517138  75.8775177  12.5909071   6.8625994  76.6887741
   1.7775283  58.7654076  30.5800076   1.5065049  59.5046883  31.1242886
   1.1632215  58.7705154  29.8459549   8.9859219  65.2404861  88.4130096
   8.1437531  65.5359344  88.7589798   9.4640083  64.9278641  89.1810760
  14.1785269  56.4280167  56.4868851  13.3864098  56.8794441  56.7784233
  14.7391109  56.4029999  57.2623520  50.3070526   0.9301577  22.4025116
  49.8345451   0.7023995  23.2031956  51.0671387   1.4265794  22.7059383
  27.1067638  27.0612774  69.5024261  26.4972916  26.9080772  70.2244415
  26.7738571  26.5174866  68.7884979  50.3586922  39.8420563  12.0326729
  49.8172684  40.0124359  12.8034267  50.7124252  40.6989517  11.7942820
  71.5618515  18.8001156  28.8572693  72.4367828  18.5144081  29.1201382
  71.0064468  18.5932732  29.6089172   0.8873043   4.2525735  36.7155876
   0.1836458   4.3411260  37.3584366   0.6362317   3.4939470  36.1886330
  67.2026138   8.3793659   7.8705859  66.2718201   8.5588722   7.7378354
  67.6351852   8.7926159   7.1233644  21.1118126  52.4085197  65.2499771
  21.8308506  51.8560143  64.9434509  20.7646427  51.9478645  66.0138474
  71.6196060  16.7524567   1.2792518  71.5120316  16.9761143   2.2037175
  72.5245056  16.4481201   1.2101862  26.6670227  12.6295519  37.1553116
  26.9420128  11.7938375  36.7782249  26.1373081  12.3869057  37.9147568
  10.2466984  70.7533646  85.0636749  10.8924313  70.4850006  85.7173157
  10.2248392  70.0297775  84.4374390  28.9096775  60.0492363  81.7756424
  28.8751469  60.2545090  82.7099380  29.2186546  59.1439552  81.7405777
  14.6268425  22.7762241  77.4748917  14.9004869  21.9393940  77.8504791
  13.7372427  22.6175861  77.1591721  68.2998276   6.8584576   4.8959279
  67.5022278   6.8725686   4.3669000  68.3092728   7.7075672   5.3376913
  75.3287888  59.9544945   5.8444591  76.1485214  59.5265694   5.5971928
  75.5736160  60.8655243   6.0066710  77.0945206  27.9079819  30.7494736
  77.2334595  28.2149868  29.8535519  77.9631119  27.6378536  31.0474987
  75.5781784  13.0006437  21.0975723  74.7163620  12.5924044  21.0147972
  76.0120621  12.8151360  20.2647667   6.8159204  12.8795938  20.6502190
   6.7792039  13.7459040  21.0556698   5.9032226  12.6680689  20.4540768
  29.9759254  61.1075478  87.0079422  30.9173317  61.2634468  86.9325790
  29.5816212  61.9752655  86.9195099  22.7426243  26.0973568  74.4820099
  23.0907955  26.8029079  73.9368362  21.9202919  25.8510170  74.0585480
  14.3012419  65.1280823  61.5817413  13.8634214  64.5157166  60.9905167
  15.1817789  64.7686157  61.6897697  46.9649773   4.3749461  78.2963028
  47.8315201   4.7015572  78.0541000  47.1416550   3.6360788  78.8786163
  35.5821152  46.0738754  44.2496948  34.8878136  45.5531921  44.6535110
  36.2837715  46.0834541  44.9007072  53.9538498   0.0029401  36.2092361
  53.2812576  -0.0311133  35.5290222  53.5822258   0.5694732  36.8853798
   7.5077505  52.8723373   7.2453356   8.0247440  52.5891762   6.4911675
   8.0497561  52.6530533   8.0032120  83.6647186  17.5085945  72.5664215
  83.8873138  18.0701237  71.8238754  84.5079193  17.1839848  72.8824539
  63.7476196  61.2754974  69.2748642  64.6280670  60.9185944  69.1579666
  63.7536850  61.6434135  70.1585083  17.0623093  50.0740967  21.5963955
  16.7558002  50.8990097  21.2198257  17.0898018  49.4683075  20.8557911
  72.2762222  38.6610374  48.0214500  71.5972519  38.9259148  48.6419907
  72.4429169  37.7411575  48.2270393   5.6757684  48.4418030  79.0138168
   4.9678512  47.7975655  79.0073318   5.4267683  49.0780258  78.3434067
  70.3632584  34.0723267  78.2380676  69.4495773  33.8150139  78.3613739
  70.6325455  33.6231613  77.4368362  72.5401459  31.0977421  83.8708038
  72.1363144  30.2752075  83.5940628  73.2078247  31.2718658  83.2073898
  71.3341751  20.0592270  66.5153427  71.4598312  19.7478867  67.4117279
  71.8193817  20.8834858  66.4778519   2.2271199  63.7840042  59.3366699
   2.9125173  64.2184677  59.8443146   2.4493625  62.8540154  59.3809204
  62.1475220  26.9064732  49.7429619  62.8951912  27.0655708  50.3190804
  62.4989319  26.3602829  49.0398102  16.8823452  51.4262466   0.3690206
  16.1311264  51.9602699   0.6273309  17.1505222  51.7836533  -0.4774879
  46.7243347  57.2893867  70.9515457  45.8241653  57.0827980  71.2030334
  46.9274254  58.0943031  71.4280930  40.8143501  65.6195297  45.4814796
  40.1684380  66.3243179  45.5294533  40.7909584  65.2138062  46.3481255
  37.4960365  46.2446823  47.0588112  36.5922775  46.3152428  47.3661766
  37.9952660  46.8061028  47.6519432  45.9880447   5.0465999  66.8963394
  45.5549393   4.2528481  67.2103577  45.5263634   5.7610106  67.3353119
  77.7713394  38.7230606   4.8517375  78.2995682  38.1175537   4.3315802
  77.2954254  38.1611519   5.4632907  85.0082550  65.3464508   1.2964226
  85.0277176  65.8941116   0.5116128  84.2090073  65.6098709   1.7525411
  69.7463303  42.1239090  21.0614090  70.6386108  42.1626549  20.7170734
  69.2226562  41.7907410  20.3327179  13.0835104  33.2886314  67.5040970
  13.2019653  33.4334984  66.5653687  12.2822323  32.7687950  67.5669861
  78.4691467  26.5101910  68.6638260  78.6146774  26.6704350  67.7314224
  78.6240082  25.5718880  68.7726212  10.5355396  66.2533798  60.5633774
  10.3237505  67.0671844  61.0206528   9.7491779  65.7153931  60.6552467
   4.9410992  44.3464203  76.4491730   5.7001233  44.4423447  75.8739243
   4.9104662  43.4113235  76.6513672  41.3312416  24.4678402  18.7648144
  40.6483803  24.2134838  19.3854885  42.1273422  24.0582161  19.1034355
   8.9748545  41.2005234  36.4908676   8.1156158  41.3984070  36.8634033
   8.9002342  41.4513321  35.5701294   9.7404251  61.1657562   8.0449123
   9.0379791  61.5446510   7.5164819   9.2867651  60.6600761   8.7192354
  59.8139420  43.5373993  86.9165268  59.8772659  43.8423576  86.0114136
  59.2790108  44.1988945  87.3552780  57.3879929  11.6539106  66.2848969
  56.9516678  11.7996998  65.4454956  57.4651909  10.7022343  66.3526077
  49.9324951  31.7336655  46.6042290  50.7486916  32.2077141  46.7633934
  50.0219994  31.3950329  45.7134171  73.8321838  60.4595146  21.2208576
  73.0106964  60.4207230  21.7106400  73.5620499  60.5291023  20.3052063
  51.2536850   2.9554143  35.9062233  51.7524261   2.5411355  36.6104012
  51.1009026   3.8486812  36.2143860   0.6644182  21.7214222  62.8271408
   0.6914660  22.5197716  62.2997551   0.8389379  22.0183201  63.7202415
  85.5921555  55.5934753  41.0918617  85.7504807  56.5317993  41.1953773
  85.7097931  55.4325829  40.1556435  75.0071716  56.0905571  60.8243904
  74.6958542  55.4913330  60.1459770  75.8725128  55.7563324  61.0604362
  65.3847427  25.4510918  82.6219635  65.9779816  26.1884766  82.4785614
  65.5499496  25.1830616  83.5258942  13.7956829  51.8232193  64.0740891
  14.2005310  51.8766556  63.2083702  12.8609619  51.9474220  63.9094658
  52.2728348  34.4187393  20.1678677  51.6309433  33.7523155  20.4129887
  52.4275246  34.9104271  20.9744320  17.3758564  20.2366848  86.4413681
  16.4801292  20.2739143  86.7768097  17.8755550  20.8030434  87.0293961
  49.2529106  52.2590408  56.8385124  49.7862282  51.7098999  57.4131851
  48.3703995  51.8955574  56.9112396  46.6810417  40.6218758  41.5875931
  46.8805161  40.3748856  42.4906082  45.7266197  40.6905746  41.5633316
  73.8078384   9.0252066  71.3718414  73.0263290   8.9784622  70.8211212
  74.5357285   9.0671349  70.7516403  47.5785370  49.3366127  18.1086864
  47.6261520  48.4919739  18.5565186  47.5189362  49.9794044  18.8154373
  54.1873665  52.1707382  78.3415298  54.9252396  52.4079590  78.9032211
  54.0694809  51.2316971  78.4848175  14.6282320  67.5767136  29.9098969
  14.8586330  68.1920242  29.2138042  15.0706758  67.9177704  30.6871719
  48.1090355  56.6718025  76.9117126  48.6670189  56.2720680  77.5788651
  47.5073509  55.9737358  76.6530380  59.1453590   8.3440275  56.0535851
  59.3756294   8.6545830  55.1779327  58.3662834   7.8043990  55.9191437
   2.0495415  65.0143356  14.9899073   2.7623303  64.8574142  15.6092138
   2.3321264  65.7789841  14.4882212  78.6962662   3.1957095   2.0990078
  79.5528717   2.9616845   2.4563553  78.8271027   3.2064543   1.1508527
  25.4553108  21.0936089  21.7296829  26.3891010  21.2728405  21.6194916
  25.0711555  21.9448795  21.9394360  36.5667191  47.9273720  42.6006622
  36.4305611  47.4524956  41.7807922  36.2856255  47.3157730  43.2812233
   5.1598635  45.0726929  85.1192551   4.9342432  45.3572655  84.2336273
   5.4240603  44.1583710  85.0170212  84.5784225  62.9647217  27.3052902
  83.8530655  63.4242973  26.8823566  84.2121124  62.6473122  28.1306992
  51.7055168  19.2760353  56.4947166  51.0303383  18.6261597  56.2997055
  51.2506943  20.1167164  56.4434776  34.9843178  45.9891739  86.9925537
  34.4111443  45.2862358  87.2984695  35.6857262  46.0263939  87.6428375
  13.8753786  39.0391998  11.1348543  13.3648643  38.8007011  10.3610802
  14.2788172  38.2186165  11.4178915  33.0890846  65.4112854  66.3481674
  33.9047470  64.9836655  66.0872498  32.4000015  64.8464661  65.9983368
  57.0650406   1.4810086  54.1371841  56.7669792   2.2297373  53.6206589
  57.9475288   1.7210343  54.4197273  34.7244644  40.8465347   2.2731450
  34.1026077  40.1606598   2.5162494  35.5625610  40.3915901   2.1903820
   0.8559293  66.1393814  59.8522072   1.1924497  65.3203354  59.4886742
   0.4868289  66.6016541  59.0996780  51.1339455  31.1758499  87.1602173
  50.9469261  30.2448711  87.0396729  51.0889549  31.3085365  88.1071091
   5.9310226  28.5940495  82.4280014   5.8377604  28.1996212  83.2951584
   6.7393107  28.2179642  82.0794907  48.6586151  17.9025536  19.6736412
  48.2958412  17.9394741  18.7886200  49.4220276  17.3303757  19.5958920
  66.8661804  65.1229401  26.4354649  67.1990280  65.4366760  25.5946255
  67.0057907  65.8547516  27.0364475  26.9065723  41.3719292  11.3255568
  26.0343666  41.7623634  11.3807659  27.1476974  41.1948166  12.2347994
  84.9629059   1.9867069  57.9821281  84.6665802   2.8670645  57.7510605
  85.4450607   2.1034453  58.8007431  62.3290062   1.8444477  81.1650085
  62.8262062   2.0716736  80.3792648  62.9858322   1.5099192  81.7756729
  58.6462975  24.1427593  32.7431641  59.2679710  24.6696110  32.2409859
  57.9355965  23.9603138  32.1284714  72.2293243  54.3991890  70.9354935
  72.4095993  53.5073891  71.2328568  71.9987640  54.8755989  71.7330551
  21.4165325  66.1203079  32.6164627  20.5295334  66.3631821  32.3509827
  21.6653671  66.7860260  33.2576637  34.2278442   1.1243880  82.9854813
  33.3512154   1.4836855  83.1221008  34.6069412   1.6724963  82.2983932
   6.1709070  24.9992943  11.9388857   6.0783072  25.0606728  12.8896170
   7.1041203  25.1405315  11.7795191   0.7768681  65.7591782  78.5210342
   1.3405997  66.4925385  78.2748260   0.0556462  65.7899246  77.8924484
  54.8592644  56.1135483  87.2453690  54.1510696  56.7197075  87.4627609
  54.5046120  55.2480431  87.4487381  66.2388535  43.6060944  24.0818501
  66.5618591  43.7489777  24.9715061  66.8492661  44.0892906  23.5249348
  57.9706459  64.7968292  19.1293068  58.0751114  64.8965454  20.0755501
  57.0241852  64.8231125  18.9887428  55.8708725   8.1005907  19.4249382
  56.6209946   7.5063090  19.4055061  56.1362572   8.8018942  20.0198975
  75.3316574  44.7847328  32.1883698  74.8564072  45.6155853  32.1810913
  76.2393188  45.0295677  32.3684731  50.9819908   1.1402009  29.4781704
  50.5785522   1.1924887  28.6117210  50.8046455   1.9922014  29.8767624
  51.0650215  38.2846184  87.3653259  50.8518639  38.6487427  86.5061340
  51.8927689  37.8230209  87.2311783  59.5677414  37.1949425  86.9696045
  60.0897102  37.5295868  86.2403717  59.0044060  37.9281311  87.2172318
   4.2193398  12.4400702  20.2670803   3.6501522  13.1502972  20.5634499
   3.6170895  11.7661695  19.9518280  65.0005569  10.3092737  62.8222084
  65.1708984  10.6044722  61.9277382  64.8116455   9.3750362  62.7342148
   5.5064855  38.6093826  69.6280441   5.0676913  39.4563713  69.7074280
   5.6862950  38.5195694  68.6921844  76.2454681  57.5588417  23.9459648
  75.6479111  57.5014725  24.6915264  76.9202652  58.1768913  24.2268581
  65.2292786  65.5602112  68.1942749  65.3412476  66.2286301  68.8702316
  65.3547974  66.0299835  67.3697815  42.6036301  25.3119106  54.3063736
  43.1099854  24.5352077  54.5442123  42.8819199  25.5150433  53.4133301
  62.7905006  19.9264355  21.1005230  62.8330841  19.0397892  20.7423668
  62.6181717  19.7998447  22.0335350   7.7220421  61.4073868  56.6049843
   7.0561724  61.4666176  55.9198990   7.2786365  61.7115250  57.3968964
   7.7223611   5.1052232   3.3884656   8.0205030   6.0078993   3.5003531
   7.4234853   5.0625486   2.4801242  65.5808029  44.3749352  36.3355637
  65.7880325  44.8587036  37.1350975  64.9531555  43.7083702  36.6148109
  45.0681152   2.9099891  81.9469528  45.1951218   3.5788195  82.6198349
  44.2571564   3.1642425  81.5065842  14.0820580   9.7256393  12.2508488
  15.0089912   9.6984711  12.0135984  14.0253057   9.2089434  13.0546131
  62.4538078  29.5189857  84.8137665  62.7374878  28.6249371  84.6228867
  61.9712257  29.4464836  85.6372299  56.6398926  38.1553345  61.2114830
  56.6192551  37.8311234  60.3110962  56.6057396  39.1079063  61.1238861
  72.2257690  15.4641676  55.6273880  72.6278229  15.5340128  56.4932442
  71.8904800  16.3424797  55.4474487   0.9256371  11.4549065   1.6981145
   0.5527969  11.4148378   0.8174235   0.4538710  10.7819118   2.1887741
  80.5409698  35.2378807  22.1085472  79.7611694  34.8522606  22.5078506
  80.2085342  35.7218666  21.3525848  49.2688484  19.2274170  31.2472725
  49.3209305  18.8380070  30.3744164  48.3312645  19.2685928  31.4356136
  75.9157639  58.4560585  16.1637630  76.5720520  59.0362015  15.7778215
  75.1116104  58.6502457  15.6822395  26.1258297   8.7107191   3.2473907
  26.0784245   8.2981586   4.1098170  25.4858685   8.2343292   2.7184911
  41.4567795  39.4288788   2.1701868  41.7905045  38.6273613   1.7671561
  40.9398804  39.8462067   1.4810680  68.9600677   2.9463282  40.8709641
  69.2792969   2.1574924  40.4327126  69.5221405   3.0369241  41.6404419
  54.2823563  41.0760536  36.6368370  53.7932167  41.5316811  37.3219452
  54.8692322  40.4880295  37.1122665  74.3864212  69.4660492  74.5613937
  73.9001007  70.2513809  74.3104477  74.1063538  69.2875519  75.4591293
  33.4322701  35.6680870   7.3424520  32.9593582  35.5673866   8.1685553
  34.1700134  35.0623398   7.4134188   5.0092192  27.2826405  44.5934601
   5.2926774  27.1416512  43.6901321   4.1492248  26.8652306  44.6425438
  46.3135300   4.7489882  39.7291946  46.5671959   4.8094974  40.6501884
  45.8389168   3.9201887  39.6654396  86.6938858  64.4664841  67.2647552
  87.4829025  65.0053864  67.3219910  85.9947815  65.0292969  67.5975037
  38.2757683  20.8468056  88.8151474  38.1201477  20.4266987  89.6610336
  37.7482147  21.6450005  88.8434830  34.8507347  68.2395554  35.7809067
  34.5858765  68.3854218  36.6890945  35.1792526  69.0894852  35.4877701
  11.2636433  19.6181698  76.4569855  10.5313854  20.2293510  76.5375366
  11.0184860  18.8764343  77.0101242  64.7714539  37.8890038  55.1217918
  64.0431900  37.4112701  54.7247581  65.5354691  37.3338661  54.9657974
  14.8340521  46.7754211  83.3095627  14.5173788  46.0869598  83.8943481
  14.1776848  47.4687347  83.3783112   8.7131958  62.5399780  73.3572693
   7.9385486  62.8615913  72.8960495   9.2380466  63.3238564  73.5194321
  18.9424324  52.6265602  69.9162064  18.8883286  51.7691689  69.4940872
  19.0485744  52.4291000  70.8467865  32.8680687   1.4663882  65.0003357
  33.7078323   1.0777469  64.7554092  32.9406662   1.6194273  65.9424286
  42.6617775  70.2045212  40.3620949  43.2264023  69.7991486  39.7039871
  42.9179840  69.7896805  41.1858025   0.3652426  32.4525261  62.3689079
   0.2531789  31.7477932  61.7309227   1.1501917  32.2088623  62.8595352
  50.4436378  54.2229462  58.4956169  50.2068443  53.8270874  57.6568909
  49.7810059  53.9022255  59.1074066  73.4198990  19.3707485  26.1358223
  72.8119354  18.9410076  25.5342178  72.9334488  19.4427872  26.9570446
  77.8752060  40.2697029  37.3201942  78.3113861  41.0810280  37.5804405
  78.1092377  40.1568184  36.3989372  21.9308319  13.6234903  69.4413757
  22.5751667  13.1162844  68.9476089  21.8573074  14.4487467  68.9620209
  58.5006180  28.0612640  30.4694881  57.6199532  27.7071609  30.5930824
  58.3650055  28.8787441  29.9903545  36.1107521  20.8625507   9.9246979
  35.8766632  19.9932919   9.5993958  35.9393082  20.8203964  10.8654747
  54.3227882  10.3114815  71.5359192  53.3980675  10.0720730  71.5976410
  54.4582176  10.9308634  72.2530365  36.1517868  36.2254028  16.0159645
  36.0631752  36.9855995  16.5908394  35.7708321  35.5024643  16.5144291
  44.5421677  40.1948090  38.5575638  43.5970955  40.2789078  38.6840286
  44.6528244  40.1395836  37.6083832   6.6345787  65.0906372  57.0358696
   7.0209818  64.8070297  56.2073212   6.0218210  64.3921738  57.2658844
  78.4316559  61.5456543   9.0932026  78.8210373  62.0950165   8.4128990
  78.1106796  60.7753067   8.6244068  19.5435085  40.3422699   0.3229254
  19.4326591  40.3414612  -0.6278340  18.6763115  40.5595131   0.6649826
  83.6919403   9.2343206  70.5695190  83.9382706   9.6236143  71.4085693
  82.7616577   9.0298004  70.6642914   6.7899423  25.8041592  77.7462158
   7.6120853  26.2888145  77.8198547   6.3563561  26.1828308  76.9814682
  75.8949127  41.4006882  34.4901695  76.2191238  42.1281166  33.9591637
  76.4071426  40.6457520  34.2004700  50.6745262  36.4983788  11.3608055
  50.4652252  37.0790253  12.0924320  51.6098480  36.6329727  11.2082024
  76.4528809  33.5830269  60.0480728  75.9144745  32.8198280  60.2575417
  77.0764847  33.6421432  60.7718506  74.9253998  48.0937271   3.0654724
  75.8269501  47.9147110   2.7982652  74.7919998  49.0177650   2.8543048
  52.2813683  33.2645226  81.7212372  52.6204567  32.9325447  82.5525284
  52.0578270  32.4785423  81.2227478  64.1584396  34.6107178  34.5520744
  63.2545624  34.8589859  34.7459755  64.6851273  35.1308441  35.1589508
  26.7465725  54.0789566  25.6634579  27.6649055  54.3152237  25.5327930
  26.7672081  53.4030609  26.3409309  63.7333069  64.3371658  88.5194626
  63.8667068  64.2848663  89.4658813  63.1761208  63.5863876  88.3142700
  65.3691635  40.4523849  39.3877487  64.6053848  40.6766548  39.9193192
  65.5952530  41.2664566  38.9378548  63.1214943  47.1674385  81.2324982
  62.6895218  47.0839043  82.0825882  62.4076424  47.1270065  80.5960922
  84.0678406  37.7629280  77.9932022  84.7703094  37.4682198  78.5727921
  83.5839310  36.9654236  77.7786331  74.7216339  16.4942703  51.0158806
  75.4869385  16.9768829  51.3283348  74.4440994  15.9720469  51.7685318
  82.8202209  33.5625610  49.1339493  82.0596161  34.1436539  49.1404915
  82.4544296  32.6909294  48.9833183  18.7844696  21.6290665  68.7982025
  19.6868706  21.6427670  68.4792709  18.7327747  20.8395081  69.3368607
  56.1235466  24.4697895  14.1108332  56.2033501  24.1475143  13.2130575
  56.7125816  23.9119167  14.6188183  79.3711700  69.0546722  24.2939968
  78.7801056  68.4257584  24.7079277  79.2364273  69.8670273  24.7819958
  76.9738541  53.4766731  19.3590717  76.6081772  54.1959801  19.8739586
  77.3537140  52.8856812  20.0092049   3.7470934   2.7217636   0.5267864
   4.1391506   3.0968390   1.3153558   3.0039551   3.2933254   0.3336689
  60.5295143  19.7972260  11.5179386  60.2034111  19.7699833  10.6184130
  59.8220139  20.2054939  12.0169306  38.9417496  48.6315689  43.7177505
  39.6512337  48.0831184  43.3829956  38.1434746  48.1518593  43.4966850
  11.7785273  45.4808846  82.5400162  11.9250011  44.5475464  82.3862000
  12.2797756  45.6746445  83.3321304  58.2000351  14.6738243   8.2935867
  59.1006927  14.9854479   8.3826761  57.9276733  14.4695473   9.1881943
  26.1513023  39.2844162  41.7817192  25.3730736  39.5601768  41.2974167
  25.8330326  38.6113167  42.3832779   4.3607569  55.8783531  81.6576157
   4.3448386  55.8107948  80.7029343   4.2669687  54.9760971  81.9631729
  71.7609787  59.0590820  12.6892557  72.4720612  58.8540306  12.0821781
  70.9927826  58.6305084  12.3118563  84.4562988  65.9481735  17.9209099
  85.1121216  65.8334503  17.2331886  84.3834457  66.8967361  18.0265598
  77.8366852  55.3694725  50.9960861  77.8104324  56.0521164  50.3256073
  78.3983459  54.6896210  50.6238403  43.8835602  43.8267021  64.9265289
  44.2993393  43.3945847  64.1804504  43.2928772  44.4687805  64.5327606
  48.8541794  55.2520638   7.9101610  49.0440216  56.0323143   7.3891973
  49.6927147  55.0210648   8.3098297  17.5966091  47.0698433  61.5714035
  18.3016472  47.6249008  61.9046707  18.0292892  46.2496300  61.3341980
  58.1652412  33.1125336  75.1861420  58.5287895  33.1444054  74.3012466
  57.4419746  33.7393341  75.1706543   0.3869684  26.5696983  73.9844666
   0.3164871  25.9086723  74.6731720  -0.0087367  26.1582184  73.2161331
   2.9343991  40.3941956  17.0912380   2.2331259  40.4444504  16.4416828
   3.3164153  39.5257225  16.9645634  33.1782608  16.6083584  14.3784313
  33.6431274  16.6259575  13.5418758  32.2543221  16.5406532  14.1376371
  45.9113808   2.2775321  49.2621765  46.0643082   1.5466983  49.8611145
  45.8381805   1.8690268  48.3996239  84.9789047  54.6756172  26.5075703
  85.2877350  54.9270554  27.3779907  84.7528687  53.7493210  26.5919552
  78.7197418  65.4744492  60.2745667  79.0731354  66.3475418  60.1041527
  79.4304047  65.0106430  60.7173691  71.2514725  64.1162415  58.6760521
  70.4824600  63.8885269  58.1535568  71.9593735  63.5921059  58.3013687
   6.2398334  36.1780281   6.0446076   6.5479116  35.2848625   6.1981349
   6.9190679  36.7345009   6.4256754  44.7110558  29.5587215  14.3681688
  43.9150391  29.9908848  14.0586195  44.8023529  28.7915840  13.8030167
  82.4507904  23.6573315  61.3615036  83.2409058  23.9028282  60.8801727
  82.7017441  22.8732681  61.8498611  28.0206470  46.0387573  44.3979645
  28.8407383  46.4609451  44.1421471  28.2490883  45.1150665  44.5020790
  16.0569420  61.9838295   1.3222457  15.6470394  61.3019943   1.8545204
  15.3727474  62.2528801   0.7092847  10.1599464   2.9625912  15.6103840
  10.1299114   2.0109262  15.7086878  10.3694096   3.2873442  16.4861088
  38.3623466  24.2630596  14.8588438  38.2903175  23.6745281  15.6102934
  38.9683571  24.9458351  15.1465874  26.2990780  42.7751083  15.8614635
  25.9614849  42.8465805  14.9686279  27.2364063  42.9501839  15.7778406
  84.0598602  18.7912407  67.9424820  84.4840393  18.5945206  68.7777100
  83.3426361  19.3823338  68.1714554  49.5076256  61.3912926  39.0538521
  49.8719673  60.9941521  39.8449059  50.2072792  61.3175926  38.4047890
  28.9404659  69.8376846   2.0835571  29.1664867  68.9532166   1.7956882
  29.2016602  70.4007950   1.3549154  49.8236122   2.4051523  24.7383728
  50.0989952   3.2400618  25.1169510  48.9900055   2.5997350  24.3100357
  76.6497574  71.1525040  59.2134438  76.3528061  71.8917694  58.6828461
  76.3914032  71.3797073  60.1066780  54.3803978  59.9274788  54.9879341
  54.5314827  59.4937477  55.8277435  53.5704498  59.5374107  54.6591988
  40.6109123  33.1706314  50.5306358  41.5088501  33.0218964  50.8269806
  40.0948372  33.2014580  51.3362083  83.8351746  20.2798653  60.4561882
  83.0978851  19.6722393  60.3976669  84.1564484  20.1810188  61.3524284
  53.8742294  65.1278915  29.5976791  54.1334839  65.6996765  28.8751278
  53.2952003  64.4806976  29.1950645  69.1386795  35.4226265  21.1423473
  69.2792511  35.3441086  22.0859089  69.7095413  34.7567978  20.7589207
  39.3483086  67.2755127   5.6879659  40.0405159  67.6046982   5.1146264
  39.7108650  66.4740524   6.0653930  44.0628128  17.2473259  73.4750977
  44.7709236  16.8941135  72.9365311  44.4623642  17.3887806  74.3333435
  60.2584267  54.7454910  56.7857819  59.5139008  54.9206467  57.3613091
  60.6018639  53.9045639  57.0876465  16.0095730  42.0880165  66.9132309
  15.4562159  41.7842941  67.6328049  15.4379387  42.6532135  66.3936005
  68.6118317  35.3185616   9.8385801  68.5610428  34.9530602  10.7217913
  68.4463196  34.5733452   9.2610922  85.5594559  27.5409355  68.2382812
  86.4103394  27.5792198  68.6750412  85.0373535  28.2162971  68.6713257
  82.9193726  16.9766769  57.1198997  83.1972198  16.1085014  56.8278351
  83.5713806  17.5731678  56.7520409  32.7997017  49.0616684  74.2749023
  32.3305550  49.8566360  74.0216064  32.6554947  48.4564095  73.5475082
   1.6732064  15.3202581  36.7172928   2.3622456  15.9495239  36.5040245
   1.8325059  14.5821342  36.1290474  71.4032745  52.7069511  10.4199524
  70.8650742  53.4819298  10.5811396  71.6927261  52.8008995   9.5124159
  79.1177597  23.7065086  69.0937576  78.8500519  23.3268280  68.2568588
  80.0647049  23.8206024  69.0130234  55.0355453  25.8535538  51.2258263
  55.4661446  25.0036774  51.1334801  54.9415932  26.1732140  50.3284836
  83.8655624  29.6497440  83.9764404  84.2995224  29.1165943  83.3103561
  83.7069244  29.0450497  84.7012863  76.2014771  20.5378342  24.5528202
  77.0289459  20.4393444  24.0818367  76.3083191  21.3432674  25.0588760
  50.4525948  63.6193428  36.7468567  50.5061722  63.0854912  35.9541626
  51.3514557  63.6529274  37.0742073  66.7783051  20.8297672  64.0801392
  66.3410492  21.5242424  63.5874481  66.8313751  20.0974159  63.4660721
  41.1353798   6.4810605  19.1942120  41.3116608   6.0303535  18.3683662
  40.8373909   7.3523011  18.9327316  74.5687103  29.1619186  18.5810566
  75.1600037  28.4392624  18.7917175  73.7103958  28.8649826  18.8832989
  51.3971443  49.5326729  84.5275879  51.9974174  50.1319847  84.9711380
  51.9676208  48.8845749  84.1143570   0.8476639   2.9217186  10.3792562
   0.1616983   3.2680655  10.9499807   1.5401964   2.6436422  10.9786758
  77.1044617  14.5745440  42.8231049  77.1651382  15.3559294  43.3726387
  77.6743851  14.7615118  42.0771370  54.0794563  25.6493607  70.6476440
  53.6986580  24.8694592  71.0513458  55.0246506  25.5294075  70.7395782
  63.9639587  63.9852142  18.5637054  63.2997017  63.5502930  18.0290642
  64.6092224  64.3031311  17.9322033  41.4586296  56.0913506  15.7634850
  41.2285805  56.2155952  16.6842842  42.3127060  56.5135078  15.6709213
   1.4326476  50.2144356  36.2805748   2.0743201  50.0940781  35.5805740
   0.8853396  50.9405632  35.9815369  39.8868065  46.1209259  65.6119537
  40.3615875  46.9498138  65.6733017  40.0192604  45.8353691  64.7079926
  40.5479050  31.9417801  25.4318466  40.9842415  32.1228752  26.2643414
  39.6178703  32.0750084  25.6149330  11.8542519  25.2076359   6.1580353
  11.9355545  24.4305458   6.7109852  11.7242594  24.8609638   5.2753391
  50.2623291  69.3468399  59.6157494  50.5299797  69.7818756  60.4252777
  51.0303879  69.4048004  59.0474586  71.4102936  13.9069195  89.2968826
  70.6024246  14.3898487  89.1226273  72.0925217  14.4151316  88.8581238
  74.1006851   6.9861398  30.5387592  73.6443024   6.1731691  30.7556171
  73.6333771   7.3270388  29.7761021   2.9607573  31.6578541  17.9755802
   2.4140482  32.0453072  17.2920456   3.4425678  32.3978348  18.3450680
  59.8371315  32.0491409  34.6818314  59.8315811  32.9399452  34.3315964
  60.6059189  32.0204926  35.2513733  59.9576340   7.3701758  37.0674477
  60.6709785   6.7463436  37.2023735  59.7077675   7.2537055  36.1508064
  -0.0214210  55.5044174  55.2913322   0.6119766  55.6042404  56.0020180
  -0.4602920  56.3535652  55.2406120  57.0907669   5.1625972  16.5560665
  57.0285950   5.2565913  17.5066090  57.7800713   5.7751412  16.2993889
  47.6892929   9.1199827  19.8059158  48.2717896   8.4222670  19.5057144
  46.9973793   9.1551056  19.1454201  58.0810242   2.0431097   9.7842655
  57.2863960   2.3630795  10.2113705  58.6156731   1.6991736  10.4998684
  25.4488640  64.2351074  50.2149086  26.0364933  63.4914780  50.3488503
  25.7704391  64.6537018  49.4164085  42.1751556  70.4064789  47.5703278
  43.0935745  70.6562347  47.4685593  41.6873093  71.1042404  47.1328735
  13.4325981  54.4221458   9.0068617  13.4371338  54.4140282   9.9640169
  13.7135658  55.3069305   8.7735128  65.0114899   7.4312224  24.3498573
  65.5982208   7.3618803  23.5967503  65.5902100   7.3756752  25.1102657
  21.8673458  29.2891388  62.1947441  22.1615009  29.9176426  61.5354385
  21.3364334  29.8073349  62.7995911  24.1562347  17.0759201  71.3656845
  23.9795589  16.1614761  71.5866089  23.3484287  17.3833332  70.9543762
  45.4195709   7.4854975   6.4878707  45.3848419   6.8034892   7.1586094
  46.2294312   7.3094134   6.0089579  48.5524826  52.9360352  45.8853416
  49.4654350  52.8141861  45.6247635  48.2978630  53.7671127  45.4844589
  47.9817810  53.8624878  73.5904465  47.0279770  53.8207130  73.6593246
  48.1651306  53.6539268  72.6744156  54.0307999   8.3379545  24.4117260
  54.4085007   8.8856220  23.7235146  53.0997620   8.5602102  24.4107513
  11.1510000  69.4763718  24.4054890  10.6334810  70.0577850  23.8483868
  10.9615793  68.5978241  24.0760860  13.5289497  38.7947464  82.3440323
  12.9926023  38.6923103  83.1302032  13.8743849  39.6854172  82.4041290
  37.2557220  31.3792725  28.7289410  37.2886009  30.4280491  28.8305588
  37.8997307  31.7094727  29.3554020  82.1783905  65.0244446  65.2993851
  81.5167770  64.3375092  65.2180710  82.1614609  65.4744720  64.4547424
  38.6895485  39.7220001  26.2212372  38.1191101  40.4031258  25.8649998
  38.9031982  39.1706543  25.4685078   8.3265991  22.9075966  71.0890961
   9.2313023  23.2096786  71.1696548   8.2702627  22.1590061  71.6829529
  59.4454155  33.6676102  28.8760586  59.2194710  34.4246864  28.3356743
  58.6858025  33.5443954  29.4452991  86.3817520  18.3277893   1.2232881
  85.5498505  17.9678402   0.9157053  86.9162979  17.5591297   1.4224240
  59.2273636  50.2563782  55.5001526  59.5163498  50.6651611  54.6843033
  59.2118950  49.3191833  55.3061028  42.2983055  67.0284805  59.3601379
  43.1137276  67.5290756  59.3332901  42.4820786  66.3031769  59.9571304
   1.5080760  16.6717510   3.0688839   2.2274885  16.4538937   2.4762492
   1.9392753  16.9499416   3.8769116  35.1689568  42.8492622   0.3342148
  36.0831299  42.5777130   0.4165645  34.7009583  42.3117981   0.9732308
  79.8038025  37.2834358  75.3772430  80.1764145  36.4029922  75.4242859
  79.0356903  37.2492218  75.9473877  44.0789604   7.2613029  84.5502625
  44.1908302   7.7620168  85.3583527  44.7990646   7.5485649  83.9888763
  78.9281082  40.3804359  52.0981369  79.3630600  39.5876389  52.4120216
  79.3303146  40.5532570  51.2469063  21.9771328  30.7930565   8.7305746
  21.1121941  30.8096275   9.1402569  22.3567219  31.6469803   8.9378366
  27.1800632  12.4688854  83.9942551  27.8191719  11.7785902  84.1710739
  26.8679352  12.7336617  84.8595276  20.0331745  61.8496170   1.9342014
  19.9157028  60.8996658   1.9294441  20.4329395  62.0457649   1.0868845
  55.6910248  25.7010746  20.4289932  54.7338257  25.7006893  20.4309101
  55.9312820  24.7941513  20.6187286  37.0410118  18.7495327  19.6641369
  36.3995705  18.3294144  19.0911789  37.1046181  18.1664677  20.4205914
  56.5500069  66.3685608  10.3841352  56.6208038  66.5969925  11.3109779
  56.7060471  67.1920929   9.9218864  55.2226448  23.6854305  17.8743954
  55.9453011  23.1100769  18.1253395  55.4938774  24.5540619  18.1712856
  50.3270683  37.0560036  59.8669662  50.2518272  36.2117081  59.4222908
  49.8860664  37.6739197  59.2839317  64.2152100   8.9556160  84.3283920
  63.9395218   9.0233297  83.4142609  64.3215485   9.8629007  84.6143265
  60.3821106   4.0686488  80.5991898  61.0953636   3.5499389  80.2271042
  60.1973228   3.6525571  81.4411850   4.6718998  57.0208549  84.0933380
   4.4140296  56.9459839  83.1745682   5.2053971  56.2430496  84.2565155
   2.6183708  17.1702576  14.5633059   2.8778021  17.6921768  13.8040123
   3.1054597  16.3516712  14.4689960  75.4651794  27.3598843  47.3513756
  75.1881180  27.9504147  46.6508446  75.5774002  27.9282303  48.1133614
  42.0136185  50.8479805  37.8337135  41.1919479  50.5466309  37.4460564
  42.6726341  50.6776009  37.1607323  41.3350945  13.5240335  88.6092377
  40.9734917  12.6656294  88.3887482  40.7494049  13.8640795  89.2856750
  73.4099350  14.5109596  29.6147499  73.6481934  13.6223774  29.3503895
  74.2001572  15.0276852  29.4573154  35.9823837  39.1310463  66.8564911
  35.7408600  39.8366165  67.4565506  35.2659798  38.5002441  66.9277954
  73.4271393  28.8220539  34.1689949  74.1184540  28.2195911  34.4434929
  73.7496109  29.6873875  34.4208717  54.0611038  58.0995064  74.0289536
  54.1597176  58.6553955  74.8019333  53.2564049  57.6066284  74.1894684
  51.1694374   5.2352629  58.5896683  51.8656464   5.1257248  57.9419556
  51.6008873   5.6486316  59.3374710  55.2101746  62.1798401  22.8023186
  55.0190620  61.5103531  23.4591999  56.0466080  62.5544701  23.0784740
   1.3899405  16.8177376   8.6128788   2.0758550  16.5054054   8.0227928
   0.6812689  16.1819115   8.5141850  81.1856689   8.9746513  14.9044914
  81.5296402   9.8386717  14.6778097  81.5608902   8.7855740  15.7645454
  63.9038582   6.9807720  41.6563568  63.9154053   7.9205961  41.4751701
  63.3490906   6.6112123  40.9694138  41.8467026  11.2952099  75.2647629
  41.4108429  12.0309591  75.6947937  42.7109184  11.2561197  75.6744385
  40.1737976  55.9927139  13.5076456  40.6887627  56.0508842  14.3124180
  39.9281883  55.0695724  13.4466543  24.3734589  69.2607117  87.7838440
  24.5059032  70.1918640  87.9617310  24.1300201  69.2258606  86.8587723
  53.6407127  55.2277565  65.5813522  54.0266113  54.4218369  65.9245834
  54.3087082  55.5821342  64.9944687  26.6481018  50.1553192  29.1455860
  27.1237354  50.7167511  29.7577934  27.1447525  49.3371086  29.1355991
   5.8924103   9.9080524  86.7478256   6.6763625  10.3800306  87.0287018
   6.1441765   8.9851093  86.7797852   6.8351769   2.9524145  11.4548702
   7.5472775   2.6753304  10.8783550   7.2732072   3.4021733  12.1774206
  48.4642792  40.0963898  70.0272446  49.3852577  39.8506432  70.1146469
  48.0232468  39.2858963  69.7726440  45.8418999   4.0404425  23.6314640
  44.9327126   4.0795336  23.3346672  45.7796402   3.9376142  24.5810871
  66.9214096  59.8864594  44.6025696  67.7276535  59.6458473  45.0589828
  66.8891754  60.8413544  44.6606064  38.5009995  37.3518181  24.0837860
  38.3802872  36.7275276  24.7992744  37.6120033  37.5721626  23.8056393
  24.8195858  47.3242149  42.7129555  25.2655048  46.6370735  43.2081604
  25.4102993  47.5163612  41.9846916  25.3934212  60.3807144  67.8006439
  25.0679016  60.0296555  68.6295166  26.2142506  60.8160362  68.0307846
   1.5794013  60.9647141  71.5179596   1.4507957  61.5065689  70.7394409
   2.2092452  61.4529419  72.0482101  81.0382233  18.7073135   8.6402473
  81.7329788  18.2664242   9.1292849  81.3664856  18.7482815   7.7420287
  32.3147736  11.1537170  81.7842712  33.0120125  10.8315554  81.2130356
  31.7720051  11.6995211  81.2152939  75.9392929  46.1189041  51.4282570
  76.0351028  46.7542343  52.1377678  76.3140030  46.5557175  50.6633911
  85.7658539   3.6168447  43.7299767  85.8105927   4.0521832  44.5812759
  85.5718994   2.7029269  43.9382248  77.6734009  65.4213104  26.4810314
  78.3016281  65.0189438  25.8813133  76.9075317  64.8482361  26.4455204
   8.1317606   5.1941061  87.5752792   7.2813225   4.9831953  87.1899185
   8.6633329   4.4124045  87.4249268   0.4947352  41.2116318  82.8706589
   0.5458703  41.5508957  83.7642593  -0.4132401  40.9240417  82.7752457
  11.7319059  33.3137512  15.7598162  12.6823196  33.2000732  15.7550669
  11.5295315  33.6013489  16.6500778  67.1524277   1.5272108  81.8546448
  67.4108582   1.7352145  80.9567719  67.4745331   2.2643096  82.3734512
  22.7765617  54.5439377  16.0188503  22.3683929  53.9491959  16.6480675
  23.2780857  53.9712715  15.4385395  68.8481522  53.3442116  80.2967300
  69.1634216  54.0872383  80.8112717  69.5006332  52.6588860  80.4410324
  27.4685879  29.6072044  68.6349792  27.4102097  28.6854458  68.8863373
  28.0313568  30.0019341  69.3010941  23.8045444  59.7453499  80.1477051
  23.5919895  60.5103188  79.6130295  24.7239285  59.8668213  80.3847885
  46.5262184  30.7176285  45.1387596  47.0473137  31.3175602  44.6051178
  47.0991211  29.9640427  45.2806091  28.7437553  64.3010712  56.8420677
  28.1107521  64.8530045  56.3828163  29.5953484  64.5881729  56.5125313
  67.3608932  65.7744217  40.2033195  66.4565048  65.9127884  39.9219589
  67.2872391  65.4858932  41.1130219  33.4765358  30.7795277  71.1598358
  33.6360092  31.7217636  71.2145157  32.8203430  30.6873550  70.4690857
  35.6802330  46.6197395  70.1551666  35.9562836  46.1892815  69.3460083
  36.4955788  46.9192696  70.5573120   6.5439415  45.5268593  49.0385857
   5.9013925  46.2149887  49.2113342   6.2725997  45.1505089  48.2013474
   3.2822027  32.9820175  42.3122673   2.8161879  33.8016853  42.4772148
   3.1861875  32.4843292  43.1242523  32.9469757  35.5783882  60.4956512
  33.4645157  34.8102531  60.7372131  32.3716049  35.2691574  59.7959709
  63.4756393  70.9083481  66.2541122  64.2032700  70.5109253  65.7757416
  63.0638275  71.4949417  65.6196442  70.6735764  53.8673096  19.5618172
  70.3125153  53.0396042  19.8792572  71.5845108  53.6650887  19.3484268
  24.5773335  53.1916008  73.9682007  25.2396145  53.5112228  74.5809479
  24.0806904  52.5441399  74.4685669  17.6083450  52.8352699  21.3969059
  18.5132256  52.5265198  21.4427223  17.6780834  53.7888680  21.4417953
  81.4476471   5.6136003   6.2003779  81.4206467   4.7520380   5.7841892
  81.2388611   6.2267056   5.4955788  27.0554180  51.0427742  69.5950851
  27.4691582  50.3330460  69.1038284  27.6244946  51.1724091  70.3537598
  68.9702072  14.4450235  58.5397797  68.0337906  14.4828215  58.7345123
  69.3868027  14.8861074  59.2801361  64.9334564  56.2514496  87.0573120
  64.5048370  55.6674995  87.6830292  64.2294464  56.5367126  86.4748840
  77.4745331   2.0762377  83.6044006  76.6659470   2.5389092  83.8243027
  77.4357529   1.9644159  82.6545410  17.9980869  20.2537041  22.8394108
  17.5865269  20.9029922  22.2690811  18.7605839  19.9508343  22.3463573
  65.7304077  69.0454178  37.0693855  66.0458069  68.1441803  37.0020828
  66.0119095  69.3334656  37.9377289  60.6355476  38.2368355  47.8778305
  61.4550514  38.0174370  48.3211327  60.5876999  37.6227074  47.1451759
  63.5461197  44.8860054  69.8861084  63.2740936  44.1826172  70.4755859
  63.5713272  44.4771690  69.0209808  55.3647881  58.8634453   8.2172689
  55.1230087  59.2269440   9.0691166  56.3150978  58.7582207   8.2627621
  29.2136822  44.8775291  21.1901188  28.2806377  44.8287315  20.9820862
  29.5269794  45.6425171  20.7075539  52.1447182  31.3726006  59.7324486
  51.4059753  30.8788834  60.0884399  52.6348190  31.6592731  60.5030670
  82.8159103  54.2422638  16.5420246  81.9730072  53.9722977  16.1775322
  82.6608887  55.1262856  16.8747444  68.6174927  40.3683586  57.4974785
  68.5203629  39.4229774  57.6117096  67.8317261  40.6338577  57.0196609
  41.7679024   2.9294307   6.6854143  41.2375031   2.4909005   6.0201321
  41.5165443   3.8509271   6.6229997  66.1542892  16.7529907  47.0335197
  66.9195404  17.1442566  47.4548645  66.0696335  17.2248230  46.2050018
  54.8065338  35.3844337  75.7483597  54.4989548  36.1624832  76.2134018
  54.1037483  35.1808090  75.1312180  75.1182175  11.8852453  80.5111465
  74.7008591  11.4159927  79.7887573  74.5722504  12.6608181  80.6401443
  42.6304054  61.4504089  15.6044359  41.8092918  60.9838867  15.7605143
  42.6576805  62.1218719  16.2860718  21.4345398  49.4031792  21.0775337
  22.0325012  48.6613579  20.9860058  21.5820732  49.7212601  21.9682007
  63.4251518  54.9710922  46.9462357  63.4059334  54.0313644  46.7652092
  63.8801003  55.0441322  47.7852325  51.2695351  52.9301834  45.0403290
  51.4171486  53.6380119  44.4130974  51.7151947  52.1743584  44.6577797
  66.9016876  28.5910187  37.1341133  67.1033096  28.0441742  36.3748093
  67.7179871  29.0558224  37.3180618  65.2129440  16.9609623  36.3184967
  65.3240738  16.9276619  37.2686386  64.3070831  16.6877403  36.1735840
   2.1065760  24.1343536  51.7415199   2.1352544  23.4474258  52.4075089
   2.9940391  24.1581898  51.3836479  32.3673553  40.9296837  87.7265549
  32.0804367  40.2453308  87.1219254  33.0147629  40.4996376  88.2852631
  20.4074669  12.0423431  73.2916718  21.1945381  11.4980688  73.2689743
  19.9348450  11.7476416  74.0701370  82.9479752  33.3818245  78.4332352
  83.8192062  33.0115433  78.5749359  83.0740280  34.0337257  77.7437668
  28.5905056  41.7916641  36.6170616  28.7306652  40.8842735  36.3464546
  27.8469124  41.7501373  37.2183762  41.7052078  70.0060654  13.1623697
  41.1568947  70.3421631  13.8713293  42.1179085  70.7848434  12.7889814
   0.9252013  60.5053596  63.4926453   0.6632978  61.2384872  64.0495682
   0.1696226  60.3540878  62.9248009  56.0426254  26.4934635  86.4998932
  56.3659172  26.0889721  87.3049393  56.4141045  25.9595165  85.7976532
  52.5486526  69.2770309   1.7568643  52.3165436  68.7707901   2.5353765
  53.3363914  68.8503342   1.4197733  32.8713455  56.9628716  27.7621078
  33.4734192  57.6869965  27.9335060  32.1196060  57.1372566  28.3284206
  15.3252020  46.4878235  53.9822121  15.0368834  47.2979660  53.5617638
  15.7841358  46.0097198  53.2915382  70.1891708  32.2643890  80.4009476
  69.9886551  32.8936005  81.0938568  70.6123734  32.7859306  79.7189484
   9.3135481  25.3243313   3.8507473   9.3058491  24.4072952   4.1250029
   9.1309528  25.8154392   4.6518121  19.1364536  16.1549187  69.7851105
  18.8647194  15.8938665  68.9051971  19.0140991  15.3684177  70.3167877
  67.7374649  62.4307518  41.5707855  68.3265839  61.6784134  41.5145645
  66.9604721  62.1637611  41.0796394  70.5220337  23.1496277   4.2750683
  71.4311905  22.8936234   4.4304113  70.5552139  23.6798496   3.4788291
  26.3901176  41.4434090  38.2869949  26.2050915  40.5399132  38.5433083
  25.8563557  41.9742012  38.8782578  66.3095398  59.0952568  16.3695240
  65.7412796  58.4603462  15.9334078  66.2144089  59.8958817  15.8535967
   0.2945861  26.3356495  19.3581047   0.3469952  26.3814774  18.4034405
  -0.5635408  25.9491177  19.5325871  29.4556427  29.1707001  88.3590775
  28.8330555  28.5047054  88.6507416  30.2892361  28.7053452  88.2898178
  13.7125340  16.9019527  78.4593048  13.3235569  16.2756481  77.8488388
  14.3898220  17.3452930  77.9484634  11.0066442  55.2151909  26.1870327
  11.2205076  54.9952812  27.0937481  11.6436195  55.8882179  25.9471779
  49.3545723  59.1548843  21.2994385  50.2494659  59.0982704  20.9644890
  49.3520432  58.5904884  22.0725384  38.1787033   7.9689641   2.6175821
  38.4611931   7.2899661   3.2302754  38.8693542   7.9964280   1.9554018
  67.9871368   6.8233495  66.4251556  67.9841766   6.9366350  65.4746857
  67.4498062   7.5440488  66.7539368  73.3805542  55.9135704   0.6434434
  73.3921356  55.2780037   1.3590926  74.2227173  55.7950439   0.2041927
  51.9120674  58.2782555  52.8751068  50.9707642  58.3100967  52.7043381
  51.9807396  58.2186470  53.8279800  34.9339256  50.1271210  76.8787689
  35.0150795  50.2739639  75.9363861  35.0966301  49.1904449  76.9900970
  28.4371300  63.2891121  86.7565460  28.6234093  64.0865936  86.2610168
  27.4844666  63.2026749  86.7219696  31.1824265   2.3422692  75.2418442
  30.2616272   2.5922019  75.3186188  31.2996273   1.6552262  75.8979416
  82.5635452   1.2977693   6.9122777  82.3915939   1.8281534   7.6903257
  82.3397369   0.4053902   7.1764770  18.7068520  55.4247475  62.6931953
  19.2718754  55.0049515  62.0445404  18.4527836  54.7158661  63.2840996
  83.7449112  49.7354126  76.9246216  83.0567551  50.0588837  77.5060272
  84.5140762  49.6503830  77.4879990  21.8424683   8.8223953  20.8960667
  22.2445183   9.5594110  21.3558445  22.0662270   8.9631786  19.9760971
  83.7948074  45.9662018  65.9243469  82.9424591  46.1836891  66.3017502
  84.3317184  46.7428169  66.0819244  18.6212349  13.6086349  15.5193329
  18.6787739  13.7828789  16.4587803  18.4701633  14.4677458  15.1252041
  83.1300201  16.4369850  37.6472282  83.6240692  16.7271576  38.4140015
  83.2369308  15.4858074  37.6393013  60.7418976   0.5207173  68.7993088
  60.7767334   1.0888439  68.0297318  60.7382736  -0.3671297  68.4416122
  55.6227226  47.7599869   7.7267838  54.7370148  47.6325684   8.0666580
  56.1750450  47.8022270   8.5074186  69.5352936  65.6905899  27.8796253
  68.8515091  66.3486252  27.7544632  69.9813538  65.6448517  27.0339489
  10.6101418  36.9679146  44.5775871   9.7737236  36.9139519  44.1152840
  10.4044571  36.7089844  45.4758530  47.2019768  67.6180191  15.4802217
  46.7028503  67.6785965  14.6657085  46.6549759  67.0850525  16.0572529
  76.8529053  27.0770569  42.9926987  75.9915924  27.4726753  42.8590775
  76.6836014  26.1351261  43.0109596  70.4290619   3.7073352  62.9585762
  70.6920242   2.8428826  62.6426582  70.3330460   3.5976059  63.9046059
  49.8028946  15.0603380  48.6517105  50.5244980  15.6857691  48.7177200
  49.3825836  15.0879984  49.5112495  74.1488724  15.5442219  58.3911552
  74.7000122  16.1226997  58.9182587  74.5834351  15.5103960  57.5389557
   7.4155722  19.6733170  84.2729950   7.7302895  18.8213406  84.5751877
   7.4850349  20.2404613  85.0409470  11.6420412  57.0251236  21.7943878
  11.4140835  57.6998215  21.1548195  10.8135071  56.5846786  21.9835224
  61.0817413   3.4890430  64.5817413  61.6609497   2.7277093  64.5483093
  61.6725044   4.2412601  64.5443420  14.0232296  64.5731049   4.2568789
  14.3720760  65.2579193   3.6862965  13.7697268  65.0338516   5.0566802
  46.2506676  68.5160217  85.5598831  45.3411598  68.3247147  85.7888641
  46.3631706  69.4411240  85.7784195  74.5793991  56.2643509  19.3996639
  74.9507446  56.5716553  18.5726814  75.2835617  56.3828545  20.0371189
  51.9473686  49.3526688  18.8846226  52.1333313  48.4137421  18.8762112
  52.7454491  49.7579460  18.5454273  78.3564224  58.1558762  27.9952831
  79.2288818  58.5316086  28.1130848  78.4922409  57.4158745  27.4035206
  80.4867706  26.2556152  73.6091309  80.1229477  27.1006546  73.3449860
  80.5938797  25.7740288  72.7888641  82.8051071  56.7222481  72.4364395
  82.0782089  57.1171227  72.9180298  83.5663300  56.8535500  73.0017090
  36.7863350  44.1326027  68.8516922  36.4940987  43.6175194  68.0996857
  37.2133980  43.4969597  69.4259796  72.5344696  56.4654274  35.5832100
  72.9386826  56.0754128  34.8081360  71.6627045  56.0720825  35.6222954
  79.5900116  12.6960135  60.1174126  79.4408646  11.7593613  60.2465248
  79.1453857  12.8980999  59.2941856  46.6358070   3.7117500  52.8048058
  46.7287445   3.5854859  51.8605309  47.5346870   3.7761075  53.1274605
  84.9683380  14.7362709  83.1609879  84.7509995  15.3894787  83.8260574
  84.8791504  15.2021303  82.3295746  58.8612900  21.5850124  60.2458763
  58.7393112  22.5141125  60.0506096  59.7850761  21.4198914  60.0572357
  28.6129818  32.9229736  85.5396881  28.7704411  33.6232796  84.9064407
  28.2946301  33.3741760  86.3215485  18.1059456  32.1295662   7.6918826
  17.6898632  32.6640511   8.3682194  17.4089527  31.9600372   7.0580907
  52.8354378  30.4915085   8.0645237  51.8882561  30.4056435   8.1727200
  52.9716759  30.4652767   7.1174321   5.8041954   3.0944626  87.8485718
   5.4491587   2.7075005  87.0483017   5.0576839   3.1357412  88.4462738
  43.7226944  17.0084705   1.1217890  43.5534592  16.4138718   0.3910065
  44.5575714  17.4232769   0.9046632   8.5421610  10.7762938  87.8641281
   9.3241196  10.3686161  87.4918747   8.7689972  11.7029943  87.9416122
  70.2961960  57.2647705  57.4178810  70.2214432  57.3798065  56.4705658
  69.6956558  56.5473709  57.6201668  28.0154552  67.5034637  66.8564301
  28.0098858  67.4268799  65.9023132  28.8910160  67.8289261  67.0654755
  50.0504990  69.2761154  10.7742538  50.4457512  68.9592819  11.5864258
  50.7955971  69.5041809  10.2183323  -0.1366268  30.2934532   6.7114511
   0.5286276  30.9800301   6.6636972   0.1415887  29.6449738   6.0646873
  15.4798012  39.0998993  18.3803406  15.1778975  38.3418579  17.8798809
  16.1854420  39.4710121  17.8506432  27.5420094  55.1271896  45.2319908
  28.1005402  54.3498573  45.2377586  27.5649090  55.4318428  44.3248558
  52.0311966  52.9391022  31.7404690  51.4167519  53.1867828  31.0495663
  51.9588356  53.6402969  32.3880196  36.5272484   5.9485211   6.0895200
  35.5865326   5.7937198   6.1750627  36.5918503   6.8148513   5.6876111
  21.8336353  58.3448639  11.5474272  21.8671589  58.4545708  10.5971270
  21.5437336  57.4414673  11.6741571  65.3769531  35.5237007  12.0651865
  65.2958069  34.7673950  12.6462603  65.9607010  36.1222610  12.5312281
  31.1338387  58.9947319  19.5985622  31.7084389  59.6238670  19.1623764
  30.2610912  59.1914406  19.2581940  12.1372194  -0.0597609  12.2355232
  13.0516043  -0.3038333  12.3789158  12.0809393   0.8465612  12.5382528
   0.0948932  21.9739990  48.8181953   0.1462230  21.2536240  48.1899796
   0.4482066  21.6096687  49.6297760  81.8906784  18.3524399  19.7083416
  82.3158951  18.4179878  20.5634003  81.4057999  17.5279293  19.7445526
  69.3240433  37.7021561  45.1412277  68.7406921  38.2002487  44.5686531
  69.7330704  38.3631020  45.6998672  40.0776596  39.6588631   7.9604030
  40.4122124  39.6492691   7.0636234  40.3250656  38.8059120   8.3174725
  43.0008774  58.8460732  68.8815231  42.9491425  58.0265427  69.3733826
  43.5729752  58.6451759  68.1408615  85.3631744  66.6453094   4.2989125
  84.9396820  66.5557022   3.4451795  85.1882706  67.5496521   4.5592952
   4.7311325  67.8015747  34.4215164   5.5240445  67.9729691  33.9134369
   5.0516510  67.4871368  35.2668762  57.9602814  56.3088455  13.4620686
  58.4332466  56.3394318  14.2936945  57.8437996  55.3750343  13.2869797
  40.4634018  59.7270241  70.2766113  41.1657715  60.2766228  70.6242523
  40.3814507  59.0140038  70.9099503  40.6159821  63.5717964  89.3071442
  40.6774979  63.6422234  88.3545227  40.3574638  64.4470444  89.5958176
  34.3322830  69.7358627  60.3828812  33.6706047  70.2225266  59.8913803
  33.8430519  69.0353165  60.8142929  22.8016415  69.4234924  14.0229559
  23.4869957  70.0221481  13.7260799  23.2248173  68.5651093  14.0411882
  71.3345795  39.4122696  54.9363556  70.4655762  39.7659187  54.7466278
  71.7081070  39.2203865  54.0761871  73.2624130  54.0991745  47.1221199
  73.3030014  54.8876724  46.5809631  74.0330429  53.5926743  46.8655624
  36.4757271  37.1644402  38.7525177  36.7594185  36.2539101  38.6707764
  35.5568962  37.1064339  39.0144730  80.4149475  37.5808754  20.1979046
  80.3795013  37.0498352  19.4023075  79.5024261  37.8104782  20.3734608
  11.0419550  40.1608238  50.3831520  11.1506424  40.6985779  51.1675262
  10.1560774  39.8058548  50.4569778  64.8922729  35.7308769  52.9143944
  65.4790268  36.2317200  52.3477249  64.0525970  35.7369537  52.4549065
  35.3087845  52.6841316  54.4091454  34.4799652  52.7281570  54.8859596
  35.2734909  53.4207878  53.7989616  61.2005959  23.8827553  18.6166935
  61.9720726  23.4047890  18.9209957  60.8758354  24.3342266  19.3957558
  68.8874817  25.5786572  51.2850609  69.3920822  25.6705208  52.0932503
  68.6217117  24.6591873  51.2718353  28.5920696  24.0079365  82.2215500
  28.1590691  24.2086220  81.3918152  28.8586273  24.8607063  82.5650101
  25.3941727  35.2923164  20.4385223  25.6056862  36.2258568  20.4389114
  25.9109879  34.9299393  19.7189274   3.1656828  46.4512634  38.5909309
   3.9916177  46.1278648  38.9507599   3.3475599  46.5906029  37.6615562
  70.3458405   9.8565454  11.7763891  71.0022583   9.3761244  11.2718716
  69.5076065   9.5123453  11.4679546  84.1597137  27.7553005  50.9386368
  83.3418045  28.0857105  51.3102379  84.8455124  28.2226562  51.4155998
  51.2713203  16.7055893  58.7219429  50.8607063  15.9226208  58.3550758
  52.1902275  16.6380272  58.4625664  63.0754814  15.7849712   1.9834540
  63.8503990  16.0986767   1.5172691  62.3766479  15.8090305   1.3297863
  69.1926880  30.2311516  84.9944382  68.3084564  30.3980579  84.6680756
  69.6909866  29.9779930  84.2173691  75.1591187  27.1184196  38.5601120
  75.5620346  26.5646420  39.2288551  74.4195862  26.6038628  38.2367592
  86.1535416  51.3694153  66.2668152  86.5363007  52.0849495  66.7745056
  86.4200363  51.5465393  65.3646851  58.5468788  51.6173325  10.3920898
  59.2442932  52.0959091  10.8402128  57.7466774  51.8766670  10.8488798
  24.2929420  62.1772308  21.7928276  24.3309059  62.6166306  22.6423683
  23.3575649  62.0986023  21.6054325  44.0373611  21.2966652   0.8619064
  43.1717262  20.9060249   0.9815339  44.0682411  21.5310822  -0.0656318
  66.0303955  63.4289627  87.3640594  66.4009705  64.2467957  87.0323257
  65.2873077  63.7033157  87.9014359  83.4228287  70.2518997  75.3715591
  84.3209457  70.5821838  75.3945465  83.3261261  69.8817596  74.4941330
  34.8309059   2.9924872  45.7847900  34.1015663   3.3879473  45.3073921
  34.5002327   2.8785186  46.6757965  23.8728447  44.8543663  58.4414711
  23.0243015  44.5926361  58.7988281  23.8659267  44.5254478  57.5425873
  40.1605606  56.1933708  63.4955788  40.9258194  56.5796471  63.9214859
  39.4152489  56.5223007  63.9981194  13.7062788  68.6150208  58.8930702
  13.4976721  68.8088303  59.8069344  12.9689674  68.9722824  58.3981285
  35.0558014  20.4512444  87.7055359  34.1072197  20.5555515  87.7799606
  35.4143829  21.2701035  88.0477676  37.8335381  17.2502155   4.4258666
  37.1889267  17.9490776   4.5367699  37.4943504  16.5258636   4.9516973
  82.7579575  64.3528137  19.2103825  83.4893036  64.2936172  19.8250866
  83.0177307  65.0378113  18.5943241   4.0464463  32.4895401  10.3033266
   4.4325633  33.3641243  10.3508053   4.7893891  31.9082108  10.1410837
  29.3132458  62.0621452  32.3551140  28.4102116  61.8903656  32.0881844
  29.6538734  61.2055473  32.6128845  56.3735466  23.8918667  27.6609898
  56.9847679  23.5792370  26.9939785  55.5708237  23.3953362  27.5018463
   1.5648713  70.6068802  35.2602882   1.4693376  70.9730301  34.3810654
   1.4149259  71.3487396  35.8462830  80.0953674  54.3237000  43.6949310
  80.7905884  54.2792320  43.0384865  80.4403000  54.9082375  44.3698883
  66.9376984  51.6744728  22.1244049  66.8124847  51.5339546  23.0629196
  66.1016998  52.0290108  21.8216743  52.4963150  37.3280296  30.8479671
  52.1044884  37.2645912  31.7189884  53.3791275  36.9742241  30.9561234
   6.7564206  62.2750244  77.8631821   6.5304847  62.7938042  77.0911407
   7.4328165  61.6711807  77.5564346  48.8259811  71.0957947  78.1989136
  48.1789742  71.0480957  77.4951096  49.6689072  71.1352768  77.7470856
  29.6090450  54.7601089  85.3362198  29.9151344  55.5825272  84.9539032
  30.1245022  54.6616402  86.1367493  73.7535095  48.6368141  45.4366646
  73.8069992  49.3147850  44.7630692  73.9520187  47.8229294  44.9736099
  21.1707420  16.4202080  77.4118500  21.2485638  15.6130962  77.9205170
  22.0616264  16.7686157  77.3776703   2.9167802  29.4242840   8.1786013
   3.8427925  29.6664982   8.1866779   2.5405755  29.9398270   7.4652162
  74.8730545  39.1255531  20.7181721  73.9293976  39.0868340  20.8739052
  75.2598724  39.1402893  21.5936050  46.9653702  60.1189079  69.3382263
  46.1197929  60.2154884  68.9001541  47.2773094  61.0159950  69.4572296
  47.6883850   8.2962885  72.2902298  46.9142723   8.0356197  72.7892609
  47.3457108   8.5565720  71.4352112  12.7309952  46.2952423  76.4494324
  12.4316444  46.8688240  77.1548538  13.3287468  46.8387947  75.9361267
  56.7770576   1.7732599  34.6373177  56.7244072   0.9511011  35.1246719
  56.1113663   1.6900213  33.9545593  59.1467934  38.7646370  17.9291782
  59.4216118  39.0604820  18.7970390  59.8280258  38.1487808  17.6592274
  40.9423027  46.3406639  53.3745880  41.3499908  45.5921021  53.8101044
  40.0415726  46.0611496  53.2109222  30.3495998  44.1552734  88.5826569
  29.6839447  44.5790939  88.0408936  31.1161079  44.0900993  88.0130539
  57.9989548  13.6548862   5.8447909  58.9377213  13.6644506   5.6580801
  57.9240227  14.0445061   6.7158895  24.4350395  35.6134834   9.2463760
  25.3200397  35.7177162   8.8968916  24.4630775  36.0428276  10.1014252
  54.7663231  44.5286827  47.7865105  53.9453011  44.8046684  48.1939240
  54.8065262  45.0246658  46.9688187  10.1718159   1.8818377  61.6962700
  10.9095850   1.4454743  61.2702255   9.9697409   1.3287619  62.4509239
  31.4826374  50.6773415  68.3347092  31.2571087  49.8489342  68.7579269
  32.4015236  50.5769272  68.0861130  14.1829109  55.0430412  21.6948166
  14.4692974  55.6267929  20.9923553  13.2690821  55.2831268  21.8481369
   9.8379555  33.4499130  56.0681992  10.6549654  33.1059036  55.7071114
   9.5698032  32.7988663  56.7166290  74.5422821  39.9712868  36.3626213
  74.2276993  40.5376244  37.0672722  75.2443390  40.4725571  35.9478111
  24.2834644  42.4995689  46.0934944  25.1287556  42.5114517  46.5424652
  23.6676216  42.8576164  46.7328491  79.5415268  33.1791611  82.1747589
  79.9049911  33.3672485  83.0400543  79.9303970  32.3397713  81.9289169
  53.0848694  38.5945091   1.0473799  53.2705231  38.6188507   1.9860872
  52.2357025  39.0275116   0.9598665  41.8943520   8.0506697  16.7556210
  42.8332481   8.0682945  16.9410839  41.4872437   8.4033060  17.5469112
  77.5114975  12.5621920  85.5314484  78.4604187  12.6070404  85.6487885
  77.3952255  12.2987404  84.6185913  50.2587776   0.1493275  86.9107208
  50.4357986  -0.3741344  87.6923141  50.8946838   0.8635923  86.9517441
  44.7928734   4.6726995  63.3618393  44.8442917   5.3816261  64.0029373
  45.7007179   4.3959775  63.2374229  80.6538467  31.6647587  47.6291733
  80.3184738  31.6560669  46.7326889  80.1296768  32.3304405  48.0745392
  85.0668640  60.5908737   1.1346062  84.4940262  60.2476845   0.4488181
  85.9004288  60.1406250   0.9979441  15.9446735  51.2083817  48.0203285
  14.9978695  51.2385216  47.8829041  16.3177967  51.3896790  47.1576920
  85.3874664  29.4479942  48.3816071  84.4490051  29.6269035  48.4408302
  85.7447815  29.7664566  49.2105446  61.4397888  49.2994080  74.4596634
  61.6515312  48.8708458  75.2889557  60.4913635  49.2017403  74.3749008
  71.0842514  43.2128716  47.2362099  71.7013474  42.5020790  47.4099770
  70.2215881  42.8053246  47.3133430  32.5212059  30.3312378  88.1356735
  32.6244240  31.0422916  88.7681122  32.3512383  30.7733269  87.3038635
  65.0758896  62.9477844  26.4509106  65.9396820  63.3597717  26.4320545
  64.5377426  63.4933662  25.8773460  57.4042778  39.8584900  68.0291367
  57.0311584  39.6492577  67.1728439  56.7420197  39.5682487  68.6563568
  54.7246666  31.6566372  32.8731308  55.5663872  31.2573566  32.6533318
  54.0880470  31.1839294  32.3369446  46.5048027  31.2820663  41.1162148
  45.5757675  31.5122147  41.1286621  46.7444687  31.2034359  42.0395851
  20.7742596  52.1230812  50.4661713  19.9799900  52.3498459  49.9824944
  20.9931297  51.2405739  50.1669998  23.9132271  40.5133820  71.5117874
  24.1594963  40.1454506  70.6631317  24.6313419  41.1062355  71.7332916
  46.8030281  61.4828339   2.3047440  47.2469902  62.0942802   1.7171499
  46.1013489  61.9988594   2.7017229   4.5737152  71.3778992  48.5191422
   4.7621064  72.2847443  48.2775497   4.4742932  70.9229507  47.6828575
  74.0957642   1.3350110  68.0447159  73.5842819   0.8091108  68.6595688
  73.7828522   1.0656525  67.1811447  78.5890121   3.4930682  54.1405144
  78.8625641   4.3760333  53.8919754  78.1812439   3.6015923  54.9996910
   5.1410580  49.5415077  12.9656887   4.8983688  49.1848602  12.1112080
   4.3610153  50.0123940  13.2589989  77.3069153   5.7316408  43.6389656
  77.0070572   4.8489528  43.8561745  77.0764694   5.8426762  42.7165794
   5.7223330  42.1506348  17.2056446   5.8602362  43.0528641  16.9172058
   4.7806711  42.0920868  17.3671284  56.3829575  23.2599354  11.3499517
  57.2642708  22.8946190  11.4278097  56.1910706  23.2248592  10.4128389
  67.7839355   0.8945295  73.8506393  67.6446304   1.6601189  73.2932358
  67.9196243   0.1727838  73.2367172  53.3287544  47.4481773  42.6153336
  52.7049637  47.1882172  43.2932243  52.9795189  48.2701836  42.2709923
  50.5824356  20.4799671  38.5236168  51.3221893  20.4748993  39.1310463
  50.5802498  19.6023388  38.1415291  36.9167366  63.1965141   3.1508269
  36.8676987  64.0972748   2.8307252  36.2847977  62.7171707   2.6149943
  77.7218857  58.3711624  66.5196838  77.2656403  57.5663452  66.7653198
  77.3537903  59.0406799  67.0963058  81.1008911  28.4261894  51.9180183
  81.4298248  27.5447483  51.7416916  80.2464676  28.2858105  52.3260498
  50.7205505   9.8701935  41.0149269  49.8439827   9.6587429  40.6937637
  51.0986710  10.4241705  40.3320160   6.6933193  39.5758514  40.7098083
   6.2637019  40.3424377  41.0892868   7.6022606  39.6411896  41.0027084
  67.2146683  47.6414070  33.9192657  67.7576904  47.4819603  34.6912346
  66.5505447  46.9526443  33.9471855  82.3155518  29.7401810  57.2667236
  82.1158600  30.6657238  57.1262741  81.8879547  29.2896996  56.5383987
  53.6026497  19.8275433  54.5045013  53.1987457  20.6927013  54.4367294
  52.9278374  19.2788219  54.9042130  55.6372223  10.9784393  43.0303421
  55.0393295  10.5705118  42.4039612  55.0705719  11.5044327  43.5946770
  18.8372421  40.2858696  39.8825645  19.6961308  40.4172287  39.4809608
  18.4690495  41.1665268  39.9540443  77.7566757   3.0238259  80.8003082
  77.5819702   2.5279293  80.0004349  77.0691528   3.6893759  80.8244705
  19.0010796  51.7883835  58.5917206  19.5736961  52.5223007  58.3687706
  19.4537792  51.0183182  58.2477837  40.8540993  15.6278057  16.2835293
  41.6846390  15.4650669  16.7306881  40.1910629  15.5309105  16.9670677
  22.7533474  48.0696335   0.3706392  21.8301182  47.9426994   0.1520768
  22.8057575  47.8811874   1.3076413  43.6764603   9.6951952   0.3072494
  43.0382957   9.3165636   0.9119149  44.5142746   9.6173563   0.7635820
  39.6536026  65.3375549  24.5348110  39.3084717  66.2198944  24.6711655
  39.4957199  64.8876953  25.3648300  75.4406738  54.4965668  42.5896072
  75.1608963  55.0231018  41.8407974  76.3152313  54.1882782  42.3522415
  80.6548996  58.6073036  44.3377800  79.8105621  58.7851524  43.9234161
  80.9593506  59.4636154  44.6382332  54.8950729   9.5146875  56.1547966
  54.3323708  10.2424049  55.8901711  55.7657814   9.7587786  55.8409157
  38.4338646  35.4737434  67.5493698  37.8696136  34.7957878  67.1775818
  39.0834198  34.9909897  68.0605011   3.2669778   4.5380268  66.0771942
   3.1497254   4.4854956  67.0257339   3.6060307   5.4203515  65.9262695
  22.0843697  63.6207962  79.9269104  22.6191463  64.0869980  80.5694809
  21.1820335  63.8204193  80.1762543  66.1754913  23.0665455  36.2992821
  67.1077728  22.8495522  36.2999344  66.0801544  23.7155552  36.9963684
  30.8656044  53.4706917   6.7663465  31.2952614  53.8846855   6.0178576
  31.1691513  53.9711800   7.5237126  84.6385040  50.2498703  34.7874146
  85.3720169  49.6351204  34.8037529  84.0126419  49.8598099  34.1771812
  74.8857727   3.3900003  62.6476021  74.5666199   2.4882598  62.6124649
  75.8391953   3.3076072  62.6267586  58.4279060   3.8451109  73.3443832
  58.9646378   3.1994896  73.8040848  58.1516533   3.4000976  72.5432129
   2.7583711  59.9584198  42.9676971   2.4528756  60.4416084  43.7354431
   2.0269151  59.3849411  42.7389526  28.3857136  31.9377689  20.5085773
  29.2462044  32.0989304  20.1215191  28.5710125  31.7194576  21.4219418
   5.6206102  45.4140244   6.1128759   5.5481477  46.2181396   6.6270518
   4.8799200  44.8793564   6.3987770  19.7628574  46.2735291  76.4957962
  19.9424324  46.9118462  77.1861115  20.0583763  46.7007179  75.6917953
  24.6853447  62.4090729  27.5516872  24.5871296  62.9610863  26.7758865
  23.9731216  61.7730713  27.4848270   9.5507412  63.4001045  54.2166405
  10.0154686  64.1352234  54.6164627   9.3547754  62.8143883  54.9479179
   3.9635513  58.6646690  33.7421417   4.1147523  57.8953400  34.2912369
   3.0148599  58.6866951  33.6167183  66.9170380  20.2175522  24.8471680
  67.5053024  20.1105995  24.0996799  67.3625259  19.7726021  25.5681343
  32.7572098  69.5633774  27.7934589  33.3238678  69.4322815  27.0332317
  33.2938919  69.2989807  28.5406513  68.1243134   6.4587574  13.6577511
  68.7892914   5.7728295  13.5982866  68.0355911   6.7846270  12.7621117
  72.1168442  10.0453901  18.4829578  71.8317566  10.5682001  17.7335377
  72.2318344   9.1632195  18.1297112  29.4037437  53.5241356  50.9202576
  28.8165855  53.9017525  51.5751495  29.9260235  52.8860512  51.4063683
  53.2841301  25.0797672  36.0397377  53.4971848  26.0094357  36.1207161
  53.2559853  24.9218063  35.0960846  23.8220367  52.1276016  26.2400436
  22.9435558  51.9482307  25.9048882  24.2963905  52.4850960  25.4894314
  33.0401535  15.9940109  78.6270447  33.2747498  16.7039261  79.2247238
  32.9194412  15.2329245  79.1948547  74.2813644  40.8206558  78.1418991
  74.3044205  40.8958969  79.0958557  73.5248032  40.2619324  77.9639282
  16.1111240  44.0052414  18.1442890  16.4935856  43.9398727  19.0193214
  16.7579613  44.4947395  17.6361313  46.5746651  34.3923225  24.4258575
  47.4551277  34.7448959  24.5551300  46.7140923  33.5584488  23.9770298
  32.4090080  61.1073112  37.9500160  31.5151844  61.2616272  37.6442451
  32.4375420  60.1702995  38.1434898  45.5811729  51.3401375  19.7675571
  45.0351486  50.6010132  19.4996319  45.8466721  51.7522049  18.9453983
  59.9396057  22.2979889  67.7779617  60.0430260  22.9787216  68.4429016
  59.3456039  22.6816254  67.1328125  61.9262848  50.1105118  69.7605362
  61.3341789  50.8268394  69.5313721  61.9801331  49.5805435  68.9652634
  85.0105515  47.3045616  32.1892815  84.6873398  48.1837082  31.9921284
  85.8965378  47.4444542  32.5234871  12.8475914  54.5758858  87.8033981
  13.3436403  54.5883827  86.9848557  13.2038546  55.3053589  88.3105240
  56.4344063  65.0859985  30.4723053  57.0516281  65.0184097  29.7438107
  55.5720329  65.0793533  30.0569744  40.7686882  37.1714783   8.9252806
  41.0444527  36.7326889   9.7300482  40.3019714  36.4966125   8.4323654
   6.3042846   4.4038134  23.1761246   6.3966451   5.2926755  22.8331604
   6.6564484   3.8427045  22.4852066  46.0386810  15.1764202  52.1651840
  46.2232628  15.6398840  52.9821053  46.0803223  15.8542318  51.4905930
  11.0962000  55.1254616  37.8119545  11.4987812  54.2669868  37.9430275
  10.1553850  54.9610710  37.8757896  81.9068375  26.7119198  88.9108047
  81.9716263  26.5918560  87.9633789  81.7843399  25.8277531  89.2564545
  40.1622543   9.2372713  50.3628540  39.6467972   9.4956694  49.5988083
  40.1846542  10.0204821  50.9126816  60.9686279  59.7777939  68.3003464
  60.6345253  60.6618805  68.1486893  60.2317162  59.2040176  68.0906372
  16.9477291   0.8004959  20.7236137  17.7184753   0.6746886  21.2771072
  16.9278927   0.0263069  20.1610584  47.3538170   1.5186744  82.7869034
  46.5738449   1.7326558  82.2749557  47.3772087   2.1821935  83.4764175
  52.3374367   1.0365176  25.0959206  51.6195068   1.6660668  25.0290146
  53.0208626   1.5028732  25.5772495  74.5063171  61.5308456  45.9435692
  73.7675552  62.1187706  46.1010895  74.2955475  60.7421570  46.4433479
  40.1212883  70.0038300  18.2307606  40.8772011  70.4890823  18.5614529
  39.3935089  70.2883301  18.7835979  70.7485657   7.5633359  16.9918537
  71.1555176   7.7918496  16.1561470  69.8500595   7.8846588  16.9165192
   9.5838785   4.2814059  72.2371063   8.9243898   4.9245415  71.9769440
   9.7588644   3.7817712  71.4396210  62.7781525  67.8154297  28.7017326
  62.6591873  67.6641693  29.6393890  61.8971214  67.9974747  28.3748150
  74.0600433  56.6962814  86.6182022  74.6177368  57.3689079  86.2273254
  73.3278885  57.1826897  86.9971313  40.6923294  46.6787605   2.7785661
  40.2382431  46.7660980   3.6166637  41.1395531  47.5167160   2.6600039
  40.1479721   6.9744797   8.0022917  39.7754860   6.8776708   8.8787136
  40.8362465   7.6315913   8.1058092  55.2123337  30.5312557   5.7901645
  56.0840836  30.8930321   5.9495530  55.2751770  29.6200161   6.0763912
  16.1965675  12.4242964  24.9922581  16.3491192  11.6351175  25.5120220
  15.2531137  12.4259758  24.8306274  69.0354691   6.4216309  75.8389130
  69.2779922   5.5090780  75.9959641  69.8484573   6.8402257  75.5559616
   1.3051528  26.7180519  44.1595192   1.7360382  26.2312698  44.8620949
   0.7161492  27.3214626  44.6125107  32.2764587  59.4756699  77.3368454
  31.8157768  58.6992645  77.0187302  31.8824520  60.2024345  76.8543472
  34.5069199  47.3417397  32.6472130  34.5038528  48.0396919  31.9921684
  33.5933800  47.0614052  32.7027855  24.3602066  46.0241547  38.4547729
  23.4701099  45.6721077  38.4501152  24.3363571  46.7270775  39.1040535
  31.1140461  40.0813408   4.1077199  30.5146484  40.8186836   4.2229543
  30.6507702  39.3345299   4.4870348  86.3160324  19.2696896  75.0232086
  85.7898331  18.4887810  74.8513718  86.9375229  18.9960480  75.6978302
  45.9219475  60.7100983  29.0726261  46.8515205  60.4844589  29.1074295
  45.4838524  59.9916992  29.5289249  57.3195992  38.8481102  87.2579041
  56.6504898  38.2492294  87.5893631  57.3543854  39.5510979  87.9066162
  49.5206375  33.1427803  37.7608109  49.1387215  33.5317383  38.5476265
  49.5181427  33.8517799  37.1177330  86.0664825  34.9454346  77.4050674
  86.6274719  34.2761726  77.7970047  86.2696609  35.7437706  77.8925171
  50.4395103  56.9989548  58.5762558  50.3865013  56.0602341  58.7557831
  49.7427483  57.1608887  57.9402275   4.5514817  46.1432457  18.1451988
   3.9434700  45.4793129  18.4703865   5.1263413  46.3261185  18.8883858
  31.5635529   2.4370143  10.7958317  31.0233784   3.1520286  11.1322794
  31.1336079   2.1745596   9.9818926  80.8296661  60.8878021  40.7460022
  80.9219208  61.7238655  40.2891464  81.1073151  61.0731544  41.6431007
  52.7035179   5.9702401  78.9099731  52.6329536   5.5980167  78.0309372
  53.0308723   6.8585076  78.7683716  50.3707771  55.2712708  67.5819321
  51.1994400  55.7498894  67.5602112  49.9123917  55.6205826  68.3461990
  16.7165012  53.8212509  33.7849960  16.5216465  54.6067009  34.2962036
  17.3974781  53.3722801  34.2859230  30.7389317  49.5876312  33.4787865
  30.6268463  48.8960114  32.8266144  31.0786953  50.3321724  32.9823456
   5.4897313  62.9779701  14.6710148   5.8233852  63.8477097  14.4508829
   4.9796710  62.7160530  13.9045486  63.1118279  42.9468613   1.3610623
  63.4181099  42.5412865   0.5499325  63.8719940  43.4257355   1.6913011
  67.3604202   3.7763104  44.4691963  67.0877686   3.9799788  45.3638573
  67.0080109   4.4935179  43.9422722  23.0462608   6.4363132   3.2431476
  22.4477234   7.0801930   3.6218324  23.0752754   5.7285757   3.8869627
  13.7531414  41.0841522  85.4716644  13.4762831  40.2040672  85.2166519
  13.9764900  41.5136604  84.6459122  69.7369537  53.9341965  25.3845348
  69.7701340  52.9904518  25.5409889  68.9703522  54.0573654  24.8247280
   1.4180545  48.1872368  51.0820961   1.8922648  47.5874290  51.6579323
   0.4969667  48.0587082  51.3086128  82.1943588  30.2330227   1.9796239
  81.9698944  29.4611092   2.4992361  81.3933563  30.7569981   1.9707892
   0.7148095  16.4216652  85.2640152   0.1779075  17.2039700  85.1376648
   1.0060189  16.1861858  84.3831177  60.4447975  23.4735584  64.1480637
  61.2341423  23.0628242  63.7952690  60.0325928  23.8897820  63.3910446
   2.1489217  51.2506943  16.3769169   1.3482200  50.7376595  16.2678108
   2.4452899  51.4250031  15.4836016  42.9866295  55.2665672   8.8355064
  43.4876251  54.7764778   8.1835527  43.2681732  56.1742554   8.7211809
  74.6686630   1.8304485   5.8300700  74.2566376   2.6420491   5.5338154
  75.0574188   1.4566616   5.0392551  53.3731918  67.3845825  18.9741650
  53.0896187  68.2984543  18.9487057  52.8437347  66.9507828  18.3050423
  85.3901596  25.4751282  32.3045273  84.6434402  25.1438484  31.8056335
  86.1565704  25.1811218  31.8121719  59.1739731   3.2068472  82.9375916
  59.9720116   3.0748472  83.4493942  58.7377243   2.3549304  82.9501572
  24.5280228  38.9205933   5.4375000  24.9451427  39.5331688   4.8317027
  25.0597534  38.9698677   6.2318954   2.5699432  46.5155258  53.6800117
   3.0664814  46.6345978  54.4896431   1.8830396  45.8898735  53.9101295
  69.5790939  15.9454594  72.1297607  69.5686646  14.9883194  72.1319199
  68.8501740  16.1942120  72.6981125  71.5048599  15.2256145  13.6559801
  70.9392471  15.9794455  13.4885120  71.2085953  14.5610285  13.0340595
  56.3081970  12.9434042  18.1536083  56.1213188  13.7328062  18.6616936
  57.1610947  13.1125107  17.7533493  56.2089920  40.1312904   2.1934199
  55.5551987  40.1945419   2.8896847  56.9057426  39.5919228   2.5673954
  18.0833473  41.2353783  21.4196796  18.3374195  40.5112381  20.8475780
  18.6926880  41.9399033  21.1992664  52.1657104   4.8888822  67.8733063
  51.7127991   5.5145421  68.4386826  52.8068657   5.4167023  67.3973236
  46.5129395  42.1021461  84.1517639  46.8225784  42.9102325  83.7426758
  46.3256989  42.3487091  85.0575104  42.2826462  55.9215965  23.0748444
  41.4286613  56.2672234  23.3346138  42.4133453  56.2498245  22.1852303
  80.0628586  68.7661438  62.7529945  79.7475891  69.4523697  63.3411522
  79.9419479  69.1286850  61.8753967  84.0065842  57.6338425  61.7624855
  84.0075073  58.1796417  60.9761429  84.7284622  57.0196762  61.6285896
  39.8851624  34.8138962   7.6498585  40.3829956  34.1025352   8.0528002
  39.1634369  34.3756828   7.1989574  13.1241989  63.3484154  36.0941391
  12.9526587  63.6452026  35.2004280  12.2565775  63.1767159  36.4601822
  61.6617966  70.5410538  75.5236511  62.3462830  70.9694214  76.0376663
  60.9250221  71.1515427  75.5499802   3.7393227  26.8101044  26.8231792
   3.2388668  27.6259193  26.8380127   3.3496261  26.2774220  27.5164471
   8.3954630  59.7654877  35.5068398   9.1636229  59.8558044  34.9429207
   8.2128382  58.8258972  35.5141373  66.8887177  38.0182457  76.7695541
  66.3789978  37.9133873  77.5729370  66.5383606  38.8121071  76.3655014
  60.5414925   2.3753786   2.0599599  59.9177551   1.9795778   2.6686666
  60.2071571   2.1474130   1.1925019  69.4703979   4.3138099   4.5370221
  69.3051605   5.2147374   4.2590690  68.9160156   4.1956239   5.3083344
  27.3748703  25.0714188  78.8879623  27.3845921  25.2613640  77.9498520
  27.7311802  25.8606644  79.2958450   3.3468554  35.4790726  29.6667423
   2.9754353  35.1763268  30.4953709   2.7369244  35.1617813  29.0007515
  61.6396866  36.7022972  33.9602203  61.3266945  36.2758675  33.1624565
  62.2730637  37.3506699  33.6525230  29.1176071   4.3004718  75.7167816
  28.2382221   4.3901982  75.3495483  29.4997101   5.1747055  75.6396866
  66.1880951  36.5011292  63.1435852  66.1940231  36.5157623  62.1865158
  65.5643311  37.1841888  63.3897133  66.1917877  41.0962639  77.0916748
  65.8411484  40.8160362  77.9371033  65.4349670  41.0933189  76.5056305
  56.8389282  36.5382614  24.6114979  57.6313438  36.7199402  25.1167679
  57.1010208  36.6679840  23.7000656  18.8964710  54.2173233  78.2066803
  19.1785831  53.3985138  78.6143570  18.5749226  54.7490349  78.9347763
   2.9589872   1.4935564  11.8039074   3.8771515   1.2932153  11.9857569
   2.4915266   0.6846714  12.0122757  18.0634270  65.2098083  65.4121704
  18.6413937  65.7306290  65.9697800  17.3885384  64.8821182  66.0066299
   6.5650964  57.2324257  80.1322632   7.5015082  57.1157570  80.2927399
   6.2812877  56.3999710  79.7545090  26.9609108  54.1642342  55.3047371
  27.8753014  54.0086327  55.5411911  26.8457375  55.1094322  55.4025612
  44.6923485  49.7512779  58.7705498  44.4206314  49.4657707  57.8982620
  43.8759270  49.8184814  59.2656975  68.6680450  62.1830711  25.7329693
  68.9582520  62.6027641  24.9231091  68.2531128  61.3696709  25.4458408
  37.5491142  51.2726631  10.1243601  36.8594093  50.8341026   9.6261587
  37.9670296  50.5710220  10.6236343   8.1942453  27.2972260  17.9705563
   8.8571863  27.9210529  17.6746159   8.4549522  27.0769024  18.8648262
  18.7019920  33.9854050  11.9161749  17.8729267  34.1083717  12.3785181
  19.3237019  34.5398216  12.3876944  42.3703194  53.6951180  14.1419191
  41.6872292  54.0523682  14.7093678  42.0371590  53.8263664  13.2542191
  69.8717804   5.8032279  31.1119308  69.3252182   5.5558801  30.3660641
  69.8548660   6.7602754  31.1143169   1.6906972  36.9880142  24.3332214
   1.2871879  36.6008453  25.1100826   2.0028491  37.8439331  24.6268139
  55.5869751  59.2407455  45.1777458  55.7479897  58.3550987  44.8522682
  54.8357391  59.5492325  44.6710739  63.3888435  52.3419685  46.1373444
  64.0110016  51.6680260  45.8635674  62.8124123  52.4569054  45.3818665
  38.0903130   1.8105899  62.0297356  37.3543625   1.3319311  62.4111710
  38.7559738   1.1409197  61.8726692  74.6365204  39.5695839  66.0965958
  74.1395187  38.7953148  65.8325424  73.9694595  40.2301674  66.2833862
  85.8293533   0.6974158  27.2565231  86.3725128   1.2919332  27.7739773
  85.4227448   0.1204985  27.9031067  61.4644012  50.2143593  65.3165894
  62.2341232  50.0482864  65.8608017  61.5185051  49.5607758  64.6193542
  33.5834503  51.4549904  40.5924988  33.9813919  52.1897850  40.1256447
  34.3190842  51.0157280  41.0192566  42.9018402  32.1467743  30.7849808
  43.3967667  31.4096203  30.4273739  43.0055313  32.0673866  31.7332306
  51.1267700  63.1466255  31.2174606  51.5034027  63.1623344  30.3376141
  50.4327583  63.8053894  31.1927109  79.6323318  19.5911312  79.2856064
  79.5196228  19.0142174  78.5301666  78.9709015  20.2728291  79.1671753
  39.4483910  61.9797211  52.0781364  40.2552376  61.6136246  52.4403572
  38.7734184  61.3385277  52.3006630  81.6760406  41.2829018  37.6798553
  82.0880737  40.5321388  38.1074257  82.4092255  41.8275986  37.3935394
  49.0229950  54.7042427  18.6695156  49.8778954  54.6635704  18.2408867
  48.4426689  55.0856400  18.0107384  77.6543808  12.8888502  57.9714737
  77.5142593  11.9423351  57.9448547  76.8010712  13.2635307  57.7530594
  18.7271881  69.6761017  16.3433647  19.6517639  69.9235535  16.3306808
  18.7154770  68.8147583  16.7607193  72.3771133  63.0160675  13.0375776
  72.1832199  63.8937187  12.7083902  72.2691040  62.4455605  12.2766008
  62.1730843  18.7344627  57.2766953  63.0694618  18.8154812  57.6025391
  62.2712898  18.3932343  56.3877907  73.1831589  38.0753365  72.5342941
  74.0806656  38.1504250  72.2101440  73.2004471  38.5056915  73.3891144
  54.1582451  29.8909931  39.8527184  54.9186516  30.4416142  39.6660919
  53.4341736  30.3200321  39.3967819  59.3731194  37.6008072  26.0744286
  58.6898880  37.9199333  26.6639938  60.0206528  38.3054619  26.0545559
  36.4851875  66.8559952  18.2856827  36.4455490  67.4685211  17.5511932
  35.5693321  66.6640701  18.4871922  44.1382141  31.8790836  45.4753265
  43.4654427  31.4319057  44.9618683  44.8498116  31.2425499  45.5438080
  55.8392105  16.5901947  43.8865471  55.8499031  15.8538208  44.4979973
  56.1769943  16.2267437  43.0679893  71.1678314  12.9743662  27.4878941
  71.6592255  13.4748755  28.1392422  70.6845932  12.3253202  27.9992199
   5.1004195  26.7144051   7.9568424   4.7404346  25.8751602   7.6699448
   4.4559469  27.0512390   8.5792818  17.8373890  34.2993927  24.1276684
  17.1310673  34.6285286  24.6835575  18.4465351  35.0340881  24.0542336
  42.8152466  30.8617687  80.8724442  42.9916115  31.5478382  80.2286758
  43.4527664  30.1762772  80.6726761  35.6593437  23.4310074  10.5693245
  35.3702431  22.6778488  10.0541496  36.0731773  24.0127163   9.9316816
  27.9755096  23.5256329   5.7803793  28.7003822  24.0702610   6.0872540
  27.6712608  23.9589443   4.9829416  48.4147873  64.7144089  63.7599678
  49.2556190  64.5191345  63.3463326  48.1449318  63.8861427  64.1566849
  32.1263657  47.3180428  51.0467682  31.3925209  46.7191925  50.9086266
  32.4759865  47.0747108  51.9039650  49.9906006  17.2087250  56.1283569
  49.2152176  17.0841980  56.6756287  49.8028831  16.7137623  55.3308563
  14.8406363  23.5404644   5.3795462  14.5271578  23.3068123   4.5058360
  14.3368826  22.9823227   5.9719491   8.9256744  60.5767212  28.7248383
   8.1866856  60.0071335  28.9386082   8.9169693  61.2469711  29.4081554
  68.4817429  38.6401558  60.7111702  68.4458618  38.6365547  59.7546501
  67.5707550  38.5346985  60.9854279  18.4831505  31.9670010  72.0182724
  18.0234680  32.7567940  71.7334061  18.8776836  31.6180687  71.2190094
  81.9034805  55.6018448  26.2658062  82.3193970  56.4548721  26.1409645
  82.6234818  54.9736862  26.2088242  77.2917404  28.2055588  76.8266220
  78.0530548  28.1866589  76.2467270  77.4789734  28.9120197  77.4447556
  46.0345230  45.6234131  56.1555290  45.4568024  45.6920776  55.3954239
  45.4517365  45.7194443  56.9087677  16.8352051  35.7498779  19.0595627
  16.2297230  36.2798691  18.5411682  16.2965927  35.3925133  19.7655506
  21.6571655  54.4297485  19.9424210  21.4412251  54.7096710  20.8319397
  21.0959225  54.9638939  19.3803482  75.9107971  25.2048569  86.2456894
  76.6777725  24.7805157  85.8610992  75.1645889  24.7769432  85.8258133
  47.7952080  47.6559296  46.9631729  48.1592598  48.3338928  46.3939056
  47.8875694  48.0106468  47.8474121  33.2476387  55.3846626  42.0588112
  33.0921021  55.2969780  41.1184120  34.1624413  55.1281013  42.1752205
  48.9404716  34.0230713  61.1497269  49.4016228  34.1034317  60.3147926
  49.3799286  33.3001213  61.5974503  31.4672470  59.3647766  63.8170624
  30.6051788  59.3565941  63.4011269  32.0679855  59.6231804  63.1180840
  62.5166321  60.6238632   2.5304470  63.3741112  60.2656326   2.3010349
  62.5318451  61.5183220   2.1899340  28.1425018  62.0241585  15.8942232
  27.2164268  61.8121109  16.0110683  28.2028275  62.3463058  14.9948826
  13.7085314  28.7250347   5.6465769  13.0646286  29.3972416   5.8696408
  14.0134954  28.9663410   4.7719340  25.9083633  46.3109818  31.3742580
  25.3095360  46.6430016  32.0431366  26.0112381  45.3828011  31.5843410
  22.3126564  40.7548599  67.4365921  22.8054771  40.8992119  66.6287994
  22.8991947  40.2340317  67.9851685  14.8053303   7.8717046  14.4073544
  14.0734148   7.3859205  14.7875433  15.0463285   7.3707108  13.6281509
  70.8053970  42.3775902  36.5124931  70.0983887  43.0199585  36.5735664
  70.6177216  41.7479477  37.2085991  41.8396454  66.8585205  14.8039351
  42.0905113  67.0361099  15.7104445  41.3370132  66.0451813  14.8494644
  50.1252975  58.7419510  42.8426361  50.5786057  58.0065269  42.4304466
  50.5072212  59.5184402  42.4334602  55.7346077  19.1926517  52.1855583
  55.8719711  18.2454338  52.1736565  54.8051186  19.2973404  52.3888435
  28.0899792  21.3265038  21.6246014  28.6587124  20.6109638  21.9088135
  28.6620750  21.8983345  21.1127911  54.7487793  17.1115227  16.7668056
  55.1652946  16.9650440  15.9175177  54.6999702  18.0639763  16.8485432
  56.6789436  48.1512566  10.1099243  56.3685303  48.9580002  10.5210667
  56.2249985  47.4524078  10.5808563  26.9007378  16.6824722  74.5195999
  27.4406109  16.6417580  73.7302246  26.1837540  16.0710735  74.3512039
  59.6957588  65.6144943  26.2222347  59.6267471  66.5514603  26.0390320
  60.6365280  65.4531174  26.2939072  12.5404911  25.3310394   3.4821396
  11.7698803  24.9842472   3.0325549  12.5541964  26.2600555   3.2519798
  18.6244564  43.1897507  30.6300945  18.2830143  42.3118782  30.4598312
  18.4661541  43.6700974  29.8174191  60.9064598  39.9013557  25.6539555
  61.4517555  40.4167137  25.0595741  60.1300735  40.4427071  25.7967758
   8.7814665  69.6960449  14.1644039   9.7373190  69.7198257  14.2092457
   8.5906992  69.4039536  13.2730446  86.7390137  19.8858604  33.7056084
  85.8472824  20.1049213  33.4353104  86.9331131  19.0668945  33.2496986
  43.4235077  39.9934578   7.8426480  44.3294525  39.7103577   7.9665656
  43.1638870  39.6064835   7.0065384  44.5158882  47.0199852  34.7392426
  44.7468452  46.7400475  35.6249771  45.2435493  46.7184372  34.1953583
  79.7289963  15.9253788   9.8170128  79.6367722  16.8241997   9.5010281
  80.3195572  15.9946117  10.5671282  84.2908859  57.2403793  10.5999384
  83.6674957  57.8961868  10.9122505  84.6706619  57.6274376   9.8111515
   9.3058901  23.0688019   5.5038223   9.1842279  22.1271858   5.3822083
   9.9897947  23.1378803   6.1699562  55.1076622  34.5394211  51.2140884
  55.1891212  35.1812935  50.5086861  55.8696976  33.9698181  51.1087952
  51.9495811  64.0203781  84.5943222  51.8829231  63.8366852  83.6572800
  51.8497925  64.9701004  84.6599121  45.7604446  24.5049934  74.1381149
  46.6383095  24.6937122  73.8064880  45.6084862  25.1725559  74.8070679
  49.3394165  42.3019104   7.2286420  48.6687927  42.3449974   7.9102874
  48.9413452  41.7775116   6.5338211   3.3791263  71.2438736  60.1997757
   4.0442634  70.9898834  59.5600014   2.9684844  72.0218048  59.8223648
  25.3042660  47.0137787   3.2057436  24.8885822  46.1833000   3.4375629
  25.6367512  47.3551445   4.0358968  86.0142899   8.5712662  83.4462280
  85.0916977   8.3519859  83.5764923  86.0728989   9.5009594  83.6663818
   1.4305930  32.0396347  47.9242249   2.1927712  32.5589638  48.1803780
   0.6793691  32.5623932  48.2046165  67.3109283  32.5217476   4.0872002
  67.3333740  32.3600960   5.0303845  66.8598175  31.7595272   3.7242286
  24.7041130  69.2543259  49.8160324  25.2303982  68.8443375  50.5024490
  24.4313946  68.5269928  49.2567062  45.5640182  13.4475727  77.1437607
  45.7173576  13.0128908  76.3048477  44.8298607  12.9701824  77.5302124
   8.7753525  58.0140800  45.0866356   8.9530172  57.5679741  45.9146767
   9.6410503  58.2341118  44.7425613  77.1765442   9.6711445  80.2764969
  76.2703705   9.3643780  80.3077316  77.1065292  10.6257696  80.2810287
  14.7088318  46.1946259  56.5215569  15.2649307  46.8270264  56.9765892
  14.7871466  46.4286842  55.5967216   4.2039657  55.2075882  72.2676926
   4.4148560  54.2926407  72.4537659   4.1269789  55.6157990  73.1300507
  23.0571823  65.7973785  11.8364592  22.3000755  65.3662262  11.4400644
  23.2391014  66.5396042  11.2600603  28.6674767   5.4430971  34.0531883
  28.2798386   5.9482660  33.3385048  28.0659294   5.5664735  34.7874565
  11.2089672  22.8983383   7.4223151  10.8947296  22.7904606   8.3200054
  11.8214855  22.1740017   7.2942934  14.1763105  65.0943298  69.3065338
  13.2583885  64.8274918  69.2570496  14.2102985  65.6991425  70.0476685
  80.0123749  70.5090942  42.5314407  80.2841568  71.2387390  41.9746742
  80.4366684  69.7425995  42.1458359  84.2404480  71.2818298  35.9987488
  84.1004715  72.1003342  35.5226288  84.4568481  70.6434326  35.3191566
   9.4886198  41.2172394  85.0839081   9.4334974  41.9967995  85.6366119
  10.3852777  41.2240295  84.7489548  48.1904449  44.9295349  68.1064377
  47.7411842  44.4855042  68.8256302  47.5537720  44.9323616  67.3916931
  85.9614029  46.1816254  68.8462067  86.2230377  46.9181137  69.3987961
  85.2971573  46.5454941  68.2608719  67.3779297  70.4183578   5.6470575
  67.7186432  70.4046936   6.5414619  66.4780045  70.7314606   5.7383318
  73.0691910  24.7197456  54.8353882  73.9839935  24.7501125  54.5553207
  72.7706070  23.8457623  54.5839195  37.7256012   6.7909317  84.0251846
  37.0742035   6.3745213  83.4608154  37.2463837   7.4915466  84.4675903
  48.2874908  10.5089731  12.2656879  48.9477234  10.7410479  12.9187346
  47.7904434   9.7977762  12.6698818   4.4899907  61.6435394  79.7954636
   4.6142554  60.7631798  80.1500778   4.8466191  61.5969810  78.9084015
  36.5156898  47.3945847  50.2693901  36.3717728  46.6002731  50.7837753
  35.7024956  47.5126305  49.7784576   6.8316331   5.9645839  12.0090923
   6.8465948   5.3090339  11.3117676   7.4032078   6.6640959  11.6925220
  86.4654312   8.6973743  25.9232979  87.3275833   8.2889481  26.0015068
  86.5103302   9.4631090  26.4958954  35.6429253  13.2564631  73.6214447
  34.9575272  13.8530579  73.9223328  35.1675644  12.5201893  73.2365265
  55.6123314  49.2685280  27.6232605  55.4596443  48.6709099  26.8912945
  54.8353271  49.8272133  27.6424160  67.1328812  24.3321495  69.7852097
  67.8989792  23.7621593  69.7186050  67.2117615  24.7395992  70.6477585
  42.6758728   6.5925980  82.4611359  43.2672577   6.5582147  83.2130051
  41.8010101   6.6406555  82.8465347  68.9239349  67.7122955  38.8862839
  68.6678314  66.9988480  39.4707756  68.8396683  67.3435287  38.0070000
  27.7291107  54.6557922  65.9589615  28.2389450  55.3316422  66.4056473
  27.1909351  54.2668762  66.6484146  41.2945175  51.0285645  48.2073059
  41.8898430  51.7780991  48.2037926  41.8662109  50.2691460  48.3199196
   4.6713734  40.7240028  80.1554413   4.9853659  39.9616165  80.6416626
   4.2497969  41.2728271  80.8167267  81.2246246  11.6488504  37.9649277
  80.9863434  11.1341372  37.1938705  80.4388580  11.6392927  38.5114708
  81.2679138  47.9374046  52.1229439  81.4284744  47.0071220  52.2811317
  82.1410980  48.3197250  52.0357208  69.0497208  63.9643021   0.6023520
  68.8930206  64.8927383   0.7746240  69.3329315  63.6088562   1.4447789
  50.2621994  68.7552872   5.7109389  49.5477867  69.1338654   6.2233114
  50.3775253  69.3596954   4.9777102  55.1030807  65.1428986  40.3217926
  54.5624695  64.8411942  39.5917625  55.4794960  65.9681549  40.0160255
  51.1989059  69.9854050  62.1508141  52.1531334  69.9331284  62.2050743
  50.9115906  70.0700989  63.0599403  48.6824265  35.8087883  51.3982506
  48.3823967  35.9457016  50.4996567  49.0740318  34.9354057  51.3895607
  13.7663393  52.6941681  40.0555878  14.0202770  52.0279350  40.6942444
  14.5866852  52.9424095  39.6293945  53.8514748  54.4152641  59.9694481
  53.1809959  54.0958519  60.5733223  54.5656242  53.7827911  60.0481758
  83.6250000  19.4861927  88.1786880  83.7003784  18.6443386  87.7294312
  83.5152817  19.2563057  89.1013718  20.6936550  57.2509422  53.8710098
  20.0639744  57.7788925  54.3619308  20.5146313  56.3506927  54.1425400
  47.3391418   0.5801664  44.1860161  47.2612991   0.8159646  43.2615852
  46.7635651  -0.1776593  44.2891846  12.9825974  47.9347839   5.5710320
  12.8383570  47.0009651   5.4180117  12.9041166  48.0369911   6.5195179
  58.5010910  34.6160889   0.4568709  58.6627502  35.5586090   0.4987986
  57.6450005  34.5013313   0.8693917  27.5074844   7.7984176  82.2049637
  27.6242752   7.2875872  81.4039307  27.9086208   8.6452684  82.0095978
   6.0502620  16.2392750  88.2908783   6.9248829  16.0984688  87.9283295
   6.1803703  16.2339382  89.2391815  84.9633636  32.6542168  45.7867699
  85.5754166  33.1230621  45.2194901  85.4800797  32.4254837  46.5593719
  46.4483757  43.4389648  34.3432770  46.5122795  42.9691658  33.5117493
  46.9609222  42.9118385  34.9561958  35.9223862  50.6951790  42.3160324
  36.1873627  49.8274460  42.6210861  35.4176674  51.0606880  43.0425949
  40.8960457  39.3244019   4.8568201  39.9990616  39.4218636   5.1764369
  40.8536415  39.5922585   3.9388409  54.2076683  20.8040867   4.4576721
  54.2304077  19.8605022   4.2984195  53.8322525  21.1729469   3.6581497
  10.0127821   2.4702604  81.4573822   9.2018518   2.9198070  81.2196198
   9.8625088   2.1618252  82.3509750  15.9257088  46.3276367  73.4119644
  15.9291296  46.9489250  74.1401291  16.1435547  45.4865799  73.8137131
  77.6678009  65.7413330  21.1303349  77.3351288  64.8493423  21.2299099
  78.2542572  65.8629837  21.8769970  68.8491745  42.5953751  26.8929482
  69.3662796  43.0499344  26.2279587  68.1317902  43.1972504  27.0912819
  51.7698059   7.1251888  45.3193741  51.4878616   6.2117004  45.3671150
  52.6525192   7.1230645  45.6895638  13.3530884  47.0096130  64.3844528
  12.3988924  46.9703369  64.4492493  13.6045837  46.1557961  64.0323410
  28.9332829  55.3571167  27.7763004  28.8264332  56.3059769  27.8432674
  29.1269970  55.2025681  26.8517342  60.0185280   0.5583478  86.1726227
  59.5746346   1.4058797  86.1429520  60.9355087   0.7740566  86.3424606
   3.9738481  27.7893925  80.6044998   3.1718881  27.5337009  81.0602493
   4.4893961  28.2495842  81.2668152  12.5133305  66.9866867   8.5053921
  13.3133202  66.5777740   8.8356018  12.3420982  66.5419769   7.6752439
  76.9529037   3.7450745  47.2919655  76.7110977   4.6615052  47.4258080
  76.7098389   3.5633569  46.3841476  56.4552116  49.0031013  15.6175013
  56.1413689  48.1799660  15.9919138  55.6714134  49.5478516  15.5458021
  14.1010618  57.5647430  59.3187866  13.9514246  57.5310822  60.2636185
  13.2495136  57.7988625  58.9496155  60.3693275  60.8265839   8.6879654
  60.7771835  59.9622154   8.7404289  60.5995598  61.1475372   7.8160634
  39.1438980  64.3093033  63.7576332  39.3802910  63.4524460  64.1128082
  38.5387268  64.1134109  63.0423508  12.5392828  66.0776062  63.4882812
  13.2619276  66.0248871  64.1137695  12.9241409  65.8079300  62.6543808
  81.3625565  61.9446068  43.6188126  80.4290619  61.9671288  43.4083176
  81.3947678  62.0162735  44.5727844  64.3909378  44.2909546  40.1993065
  63.5861244  44.0837059  39.7243729  64.0987854  44.8020439  40.9540710
  14.3869314  17.6079960  58.1958694  14.1553774  18.3087749  58.8053970
  15.2375298  17.2945614  58.5032349  32.3207245  59.5428848  30.9277458
  31.9533043  59.0402031  30.2007332  31.6523590  59.4985542  31.6115246
  13.4029894  45.3167419   2.8203917  14.2194662  45.1196442   3.2794657
  12.7514467  45.4020615   3.5164125  22.8270874  10.4555445   9.6733189
  23.2229214  11.1237106   9.1137638  22.3813992  10.9515467  10.3600330
  11.5366125   4.1171837  20.4659081  11.1882954   3.6035864  19.7371254
  11.6014004   3.4934497  21.1890907  43.8253860  52.0059166  34.1430130
  44.0180435  52.3338547  33.2646217  43.0045319  52.4351501  34.3842278
  18.3870220  41.6929703  53.7750473  18.5782642  40.7914925  54.0338821
  17.7614021  41.6079941  53.0555954  62.9469795  45.7901917  62.0355911
  63.2022781  45.1980133  61.3282166  62.4875336  45.2309761  62.6620216
  69.4389191  16.7847214  41.0215912  69.7163162  17.3453846  41.7461166
  69.8781281  15.9497213  41.1831512  66.9646606  35.3675575  67.8506470
  67.3600998  34.5991364  68.2622147  66.1259995  35.0533562  67.5127716
  62.9984360   1.3361747  58.3213387  62.8986626   0.6121321  57.7032433
  62.1817207   1.3392051  58.8205376  28.7340450  65.1687927  21.6829929
  28.1682758  65.6466599  22.2894402  29.4213085  64.7992020  22.2373466
  45.3557014  69.3108978   4.5320415  45.8153114  69.2928619   5.3714848
  45.9644394  68.9019852   3.9168494  15.4052076  35.0774498  87.6842041
  16.2011814  34.8415451  88.1606522  14.7645645  35.2702713  88.3687668
  39.0065308  69.5588684  51.7797699  39.9377747  69.4268723  51.9575233
  38.6890411  68.6962433  51.5127373  11.1822577  43.4916267   8.0146122
  11.8258514  44.0417900   8.4610901  10.6316051  44.1094208   7.5336275
  60.1090965  10.5829277   6.4909310  60.1337891  11.4069681   6.0045371
  60.8574638  10.6332979   7.0856071  35.8667450  55.8840904  33.7675552
  35.1748161  56.2099724  34.3431091  36.5687065  55.6203308  34.3624649
  56.6812172   2.3484433  50.9276848  55.8440590   1.8934467  51.0191956
  57.2224274   1.7524031  50.4099350   8.5024185  43.1656990  24.5626049
   7.8353114  43.3578262  23.9036007   9.1801481  42.6873779  24.0849838
  33.5791817   7.3788142  45.0502205  33.8257179   8.1775961  45.5164833
  33.5178604   7.6460505  44.1331291  61.2299271  70.7136841  38.3770180
  61.8061714  69.9806290  38.1606560  60.3458252  70.3661118  38.2595901
  61.0952568  41.2422638  17.9222145  61.1096420  41.1717796  16.9677200
  60.9205284  42.1680450  18.0914097  23.3915443  47.2179337  18.4555016
  23.3044643  46.3758812  18.0087376  23.7070103  46.9931564  19.3308220
  83.3586502  38.7535324  27.2442989  82.6193085  38.7266350  26.6369457
  84.1288986  38.6300354  26.6896000  54.1605186  41.0490036  79.5797501
  54.0710678  41.1515999  78.6322784  53.3265114  40.6717186  79.8596039
  38.9368935   4.2070584  46.3755684  38.5066833   4.9280357  45.9158478
  38.7271118   4.3521681  47.2981567  84.3100967  38.0750656  61.2705727
  84.6273575  37.8662300  60.3919563  83.4345398  38.4353294  61.1297226
  48.7902298  33.9311409  64.9461060  48.8170052  33.1262169  65.4634171
  49.5650826  33.8819427  64.3862686  15.4504805  24.7421417  68.3851166
  15.1701088  24.0176773  67.8258514  16.1578560  24.3753796  68.9155273
  47.1549568  65.6359863  89.0141525  47.2607384  66.5396271  88.7166977
  46.3620758  65.3301086  88.5736771  68.1820679  15.6366425  68.1599350
  67.3074493  15.9647703  68.3687668  68.1314774  14.6957779  68.3285904
  29.3493214  64.3677139  81.0717316  28.7831020  65.1368713  81.1351547
  28.9554005  63.8367348  80.3795471  77.2755051  49.0001106  18.7196941
  77.2754898  48.3602982  18.0077457  78.1577682  49.3712006  18.7082100
  75.8056793  12.4291372  43.5875206  75.3423691  12.7643414  44.3551216
  76.3662567  13.1539459  43.3106880  77.4524307  62.6795006  76.8034821
  77.2205582  62.2937050  75.9587173  78.2189636  62.1835098  77.0909882
   3.3606737  31.6788692  84.8838654   3.4691420  30.8741474  85.3907089
   2.5555360  32.0693207  85.2237625  59.0949669  32.5111008  81.2251205
  59.5901299  33.3302002  81.2141190  59.7048149  31.8673859  81.5856018
  29.9873409  55.8075676  31.2632408  29.9511490  54.8575821  31.3748188
  29.5654488  56.1571541  32.0481148  72.9573975  65.0486221  84.5003815
  73.6441269  65.5317917  84.0408401  72.7577896  64.3103561  83.9247513
  57.0209961  44.1356049  72.6708603  57.4335976  44.2883224  73.5209579
  57.6746101  44.4213486  72.0326004  35.7593803  41.4304657  65.1078033
  35.5477333  40.5660820  65.4603348  35.7716293  41.3056793  64.1588516
  44.3985252  64.6750183  37.0082169  44.0352364  64.3229752  37.8208160
  43.8369408  64.3178329  36.3202705  53.1807175  44.4549599  51.9817429
  53.9128952  43.8850098  52.2169113  53.5574303  45.0896606  51.3722534
  28.7886562  59.5442543  12.6764212  28.7011414  60.1282616  11.9230890
  29.6517220  59.7467422  13.0374594  69.0285950  11.4773121  76.0774231
  68.6481247  10.6694870  75.7326202  68.6495438  11.5664062  76.9518433
  57.3055649  17.1341362   0.4784945  57.2131844  17.8513393  -0.1486538
  56.8373795  17.4351273   1.2572349   3.2887774  43.4462852  16.9416122
   2.7460008  44.0154305  16.3959961   2.7265313  42.6974449  17.1399860
  72.8371201   2.7291496  49.4414406  73.2002640   2.2467670  48.6987000
  72.7804794   3.6340945  49.1346855  70.8709717  15.9770813  77.3910141
  70.3809509  16.4743938  76.7361908  71.5969543  15.5886488  76.9028549
  61.7356873  68.8048019  16.0210667  60.9821739  68.2738724  16.2790604
  62.3457565  68.7272186  16.7545700   3.9230065  44.7156410  40.9316101
   3.7516792  45.6177979  41.2017746   4.6457839  44.7855415  40.3079567
  50.0718651  47.0582275   9.3237400  49.2352180  46.5948868   9.3633890
  49.9723969  47.7852325   9.9383926  51.1660805  60.8674583  85.3308792
  50.9426613  61.3559036  84.5385818  51.4908638  61.5320549  85.9383774
  48.4223480  26.7758045  74.9450455  48.2114677  26.3804379  75.7908859
  47.6046715  27.1845417  74.6611938  74.5866013  55.2918129  63.5565834
  74.6228561  55.6948013  62.6891060  74.0613403  54.5014038  63.4317245
  70.6625061  33.8204269  27.3497276  70.7768860  33.0980415  27.9672298
  71.4125977  33.7516594  26.7590733   4.0024738  42.5828133   6.0352612
   3.3923383  42.1394196   6.6246405   4.2454357  41.9142189   5.3948045
   3.3435423  15.4192200  62.6289406   4.2558317  15.1318016  62.6656876
   2.8641810  14.6545630  62.3099670  77.3517914  42.2141266  29.5264874
  76.5310211  42.3088646  30.0098038  77.9706345  41.8699150  30.1705265
  56.7829323  39.5989990  14.8104229  57.5499344  39.9818344  15.2363033
  56.1749268  40.3312836  14.7088280  38.8500366  33.7306709  72.3122177
  38.9220543  33.0523949  72.9837723  39.1439514  34.5308876  72.7475281
  43.8115959  66.2180862  74.4668732  43.6243439  67.1565170  74.4897308
  43.3821106  65.8690643  75.2478714   2.3685110  44.4248428  26.6203804
   1.8643340  44.2601624  25.8235626   2.3076124  43.6078949  27.1154747
  63.7288208  17.9251137  66.1121674  63.0590630  18.5505219  66.3887939
  64.3595734  18.4513569  65.6207962  52.7507782  41.0632019  34.5701523
  53.4064331  41.3354492  35.2122040  52.4470367  40.2115898  34.8843613
  26.8506317  36.0853539  32.6945343  26.1095352  35.5018196  32.5317535
  26.5562458  36.6535339  33.4063911  77.4017181  45.0982895   5.4938488
  77.4659882  45.6775818   6.2531409  76.4686890  45.0856781   5.2804990
  83.8111420  38.3636436  57.3004570  84.2921448  37.5890083  57.0092468
  84.3854218  38.7728691  57.9477348  28.1871128  69.6384506  33.5853271
  28.2856903  70.4828262  34.0252686  27.8123665  69.0631714  34.2523003
  19.0111389  30.5154762   9.4912510  18.7771149  31.0345001   8.7217846
  18.5437450  29.6884842   9.3735237  35.0175514  71.1333923  79.5711899
  35.0145340  70.6384964  80.3905182  34.2295532  71.6749802  79.6156006
  80.6583481  33.3814240  51.4070892  80.0860443  33.4999847  50.6490402
  81.3854828  33.9850540  51.2549706  52.9994965  56.2917137  80.0096588
  52.1000710  56.5117226  79.7670517  53.3079567  57.0528564  80.5013351
  53.2773705  69.8946228  82.9276199  53.8192673  70.2635269  82.2301331
  52.5612106  69.4562759  82.4680634  51.8725204   9.3302097  49.7512245
  51.9879570   9.3372002  48.8010368  52.1082458  10.2157907  50.0276566
  40.0474396  21.1353016  77.9440231  40.5731506  21.4515972  77.2093048
  40.6482162  21.1428299  78.6891708  12.9393082  62.6441689  45.4689636
  13.1873331  63.3736267  46.0369453  12.0216093  62.4755707  45.6825867
   3.3160825  64.2274628  20.2055435   4.1423793  64.6978455  20.0950851
   3.4934030  63.5912933  20.8984203  30.6690235  55.8764992  43.3983498
  31.2705765  55.8692970  42.6538277  30.4584503  56.8013191  43.5271950
   0.3262208   1.5331202  48.1891975   0.9848887   1.3835692  48.8674469
  -0.3790199   1.9987308  48.6387253   6.1264744  45.7126961  57.3004150
   5.2103701  45.9678497  57.4094200   6.0928340  44.9257393  56.7565384
  24.0999222  27.9625416  73.0270996  24.6652565  28.4546757  73.6224442
  24.5927372  27.9220505  72.2075119  10.7699623  45.3186913  23.7107716
  11.2403660  46.1191864  23.4780426   9.9509954  45.3702774  23.2179585
  50.1242943  23.3625488  39.3265305  50.0166740  22.5224571  38.8805542
  49.4708786  23.9336014  38.9225769  71.7572861  58.1970139  61.0634193
  71.5990753  57.2652702  61.2152634  72.1735764  58.2320328  60.2021980
  26.7531967   3.6941857  11.7976284  27.5510712   3.2710199  12.1147394
  26.7488708   3.5221837  10.8560190  69.1295166   2.7799079  84.3064804
  69.4419556   3.6090970  84.6685028  68.1753464   2.8503101  84.3354263
   3.7155776  46.8276329  15.6037426   3.2187207  47.6256142  15.7842760
   4.1253738  46.6063004  16.4399910   7.1614861  36.4384651  66.8299103
   6.5042124  36.3152351  66.1450500   7.7646494  35.7036819  66.7180099
  27.6075039  58.5157814  56.0597076  27.8421955  59.4108238  56.3047600
  28.1640491  58.3200798  55.3059235  76.6551132  61.6438141  56.7038116
  76.2392731  62.0640755  57.4566002  76.4882278  62.2403336  55.9740562
  60.2920761  47.9635086  32.4729042  59.6999283  48.4280357  31.8814621
  60.6223030  47.2301369  31.9539146  29.0938168  19.7525101  73.7164993
  28.7720127  19.5239220  74.5885239  29.0744781  18.9281712  73.2303696
  23.0639553  26.5462761  80.4925690  23.5368786  26.9929314  79.7903748
  23.6550922  25.8474770  80.7726974  34.1118011   8.3018656  87.4728775
  35.0546379   8.4384232  87.5658188  33.8298264   8.9843540  86.8638382
  38.7735214  21.3362446  81.4227371  37.9925041  21.5311050  81.9406891
  39.1013222  22.1937771  81.1517792  83.9051590  71.2448120  46.9658813
  84.2888565  71.9547424  46.4510956  84.4685974  70.4909134  46.7914886
  51.5254478  51.1752586  10.3341312  51.0251961  50.7510300   9.6369915
  50.9315224  51.8385887  10.6855268  58.1083679  56.1489029  69.9916153
  58.8078117  55.9738007  70.6211700  58.4894257  56.7780609  69.3790894
  10.9546986  35.2456627  32.0718613  10.4242249  35.0590248  32.8464584
  10.3168755  35.4549904  31.3895168  59.8838310  14.9882507  12.6643076
  59.8751259  14.7482271  13.5908852  60.6899567  15.4927101  12.5551329
  51.3765450  34.6833687  48.7426643  51.5066299  34.2756004  47.8864899
  50.4536209  34.9371338  48.7493515  42.0485153  44.3797646  74.3749084
  41.7072639  45.2670174  74.4869766  42.9506874  44.5055161  74.0807800
  19.1329517  51.7192078  18.0984058  20.0058365  51.3890152  17.8856201
  19.2909565  52.4332161  18.7160282  62.6362228  17.1616402   4.4456449
  62.9174309  16.5852280   3.7350798  63.4363403  17.6079140   4.7229209
  73.6853867  33.3532219  68.5179901  74.4743805  32.8606720  68.2919006
  73.9851456  34.0106850  69.1457748  35.9326439   2.2035732   0.5698252
  35.5631905   3.0850596   0.6219681  35.3575020   1.7383678  -0.0376516
   2.5870812  64.6361694   0.4094747   2.6578438  64.9307861  -0.4985022
   2.1847410  65.3727875   0.8696346  20.9969902   8.8755064  24.8072643
  21.2679729   9.1808414  23.9414864  20.0686264   9.1022930  24.8614769
  51.1544876   1.1843450   6.6649637  50.3693657   0.8881304   6.2044530
  51.8744469   0.9752522   6.0698419   0.6028387  51.6814766  13.7317610
   0.6216924  51.6989021  12.7749052   0.5140302  50.7543755  13.9527254
  36.5622139  46.2865601  37.2667542  36.0891724  45.4789925  37.4675140
  36.9828491  46.5291252  38.0916519  66.0022125  15.0528603  56.8970566
  65.9142838  14.4477339  57.6334801  66.2619247  14.4984884  56.1612167
  67.6812668  49.2473869  28.6643696  68.5620880  49.1136208  28.3143787
  67.5305099  50.1888809  28.5801697   2.0170326  10.2001877  14.0622959
   1.5812609  10.5112867  14.8557396   2.7998965   9.7501202  14.3797798
   2.4192431  45.7980766   1.5941499   3.3334088  45.6218719   1.3717002
   2.2055349  45.1468773   2.2623544  48.4372444  67.9615326   9.0383482
  48.0239487  68.6144791   8.4734793  48.9425583  68.4753036   9.6683712
   1.2938483  23.6008797  38.4643211   1.5076995  24.0034027  39.3060303
   1.5521578  24.2540016  37.8139801  68.3365707  37.1919441  32.9509506
  68.3855743  37.9387245  33.5477333  69.1178436  36.6755333  33.1488419
  57.8627739  49.2141495   3.9634600  58.3437767  48.4003487   4.1137671
  57.4202423  49.3877563   4.7942796  65.4953308  50.6884117  39.7053871
  65.3931046  51.4020615  40.3350525  66.4119720  50.7377777  39.4341621
  30.8082924  49.8449135  61.0428581  29.9190807  49.4931107  61.0007629
  31.3617287  49.0792885  61.1969948  35.0018654  65.2123947  11.9735289
  34.2171364  65.1972046  12.5214357  34.6685829  65.1791763  11.0768404
   5.9954467  44.2415352  52.4542732   5.9852409  45.1873016  52.6014175
   6.9105372  43.9896851  52.5784225  38.9641075  22.9235821  12.6714268
  38.9993439  23.5012398  13.4338579  38.0458794  22.6595726  12.6131916
  60.4814911  24.5843372  21.0225868  61.1272736  23.8778744  21.0121784
  60.9663620  25.3474522  21.3368855  44.5113983  62.9187241  77.3945999
  44.9502068  63.7641106  77.4894791  44.7156487  62.6417656  76.5013962
  27.8591404  45.3121758  56.4468117  28.7793827  45.0617104  56.3652382
  27.7625294  45.5743866  57.3623123  44.8937378  48.8624306  44.6003799
  45.1109505  49.7442741  44.2980423  45.5941505  48.3106041  44.2523270
  81.6215363  50.0046616  26.9346771  81.1799316  50.7692490  27.3043022
  81.3197708  49.9693336  26.0269737  67.9979553  60.7481575  84.8583374
  68.1457367  59.9361610  84.3735199  67.0453644  60.8316994  84.9009323
   4.9942284  57.1721725  21.4109211   4.1708603  56.6883888  21.4760971
   5.6072059  56.6758919  21.9533176  84.1872406  11.2959309  72.6357040
  83.8999634  11.1510782  73.5372162  83.5791855  11.9508915  72.2928772
  68.6990662   6.9444904  82.0445251  67.8898621   7.4281034  82.2105103
  68.7897568   6.9492292  81.0916443  82.7969513  14.9037991  13.5547371
  83.6539841  15.0516434  13.1548986  82.7187958  13.9513063  13.6084032
  50.1051178  11.0867624  14.1610804  50.7312927  10.6915655  14.7676773
  50.5427094  11.8779898  13.8469057  82.1089554  45.7342644  45.5124779
  81.6968079  46.3456116  44.9020500  82.6770630  46.2825775  46.0536194
  11.8363447  49.6074715  28.2514477  12.6542444  50.0952263  28.1546631
  12.0391111  48.9242172  28.8904171  29.7808189  67.0268707   1.5814438
  30.1321545  66.6124496   2.3695090  29.5351162  66.2951965   1.0152996
  56.6730156   6.7042356  56.3275681  55.9312096   7.2838922  56.1544914
  56.8173904   6.7752256  57.2711525   0.7017688   8.2879000  40.1240501
   0.6197348   7.3343992  40.1056404   1.1766202   8.5029879  39.3212509
  78.5120239  44.7035942  30.6681385  78.7819214  45.3000336  29.9698200
  77.9094162  44.0936661  30.2425938  62.8294563  26.7825813  31.5054398
  62.4351463  27.6528454  31.5636730  62.4640427  26.3037930  32.2493896
  24.4045944  67.5830002  57.8259163  23.7413292  67.2635040  58.4376640
  24.5989990  66.8295670  57.2684364  63.3851242   5.7064095   3.0567806
  63.3125954   5.0097046   3.7091405  62.5047150   6.0784421   3.0047829
  45.8565788  42.3038673  68.4481125  46.5572014  41.8752098  67.9565735
  45.1623726  42.4427757  67.8038940  61.9992180  54.1970062  65.7375870
  62.9159698  54.4488525  65.8488312  61.5317497  54.6907463  66.4113312
  38.5804672   2.7593932  67.3063431  37.6843338   2.8984537  67.0000000
  38.6068039   1.8364400  67.5587234  63.8710213   5.1824589  85.1028976
  64.6950912   5.1610847  84.6164093  63.2329369   5.5271039  84.4781570
  52.5011749  14.5132523  50.5473061  51.8920059  14.1768951  49.8900299
  53.0157089  13.7499914  50.8098297  22.8893948  48.1143875  57.1117096
  23.5227242  48.5429878  56.5360107  23.1819553  47.2039757  57.1539955
  80.7993240  55.2093430  54.1208992  80.7913666  54.7522583  54.9618759
  79.9746246  54.9590187  53.7044296  37.3226013   8.8854904   5.5219145
  37.6464119   9.2642612   6.3391724  38.0755882   8.9104500   4.9314752
  33.2299995   2.9802284  73.9587326  33.8179207   2.2295749  73.8744888
  32.4652405   2.6349764  74.4193649  20.9675999  48.4308853  10.7340221
  21.1060638  48.8144646   9.8680391  21.6145897  47.7277374  10.7907572
  47.5544510  70.4216156  16.2064762  48.4333191  70.4553223  16.5842190
  47.4909782  69.5458527  15.8253679  80.3445816  36.2367439  82.0925293
  80.5050659  37.1701202  82.2314224  81.1593246  35.9075127  81.7130127
  10.3975458  53.2499733  87.6439667  11.2142706  53.7440338  87.7153549
   9.9615135  53.6178017  86.8753281  42.8172455   5.7992125  10.0133543
  42.5887833   6.5992541   9.5401011  43.4217644   5.3402743   9.4301157
  42.4640541  32.2742081  27.6243210  42.6298943  33.0671654  28.1341686
  43.0693893  31.6264610  27.9851875  47.5946350  48.0050964  30.8826370
  47.6198349  47.4944000  30.0734501  48.2503052  47.5939102  31.4458904
  20.9058247  24.4445992   0.8053049  20.0604000  24.5652485   0.3729506
  21.5438156  24.8023262   0.1878640  39.3657875  25.2733154  73.8972931
  40.1869583  25.3492470  74.3832397  38.6945076  25.1841049  74.5737991
  43.7145462  12.5485458  66.5457535  44.2332230  11.8902273  66.0833435
  44.0754204  13.3858395  66.2543030  79.5113144  42.6419983  87.1703873
  80.1197891  41.9052010  87.1144943  79.2965698  42.7052078  88.1010437
  76.7881699  62.2105942   6.0691252  76.9291534  62.8371315   5.3593330
  77.5379639  62.3351135   6.6509676   4.6396313  70.4698486  73.4382248
   5.0623193  69.9025955  72.7934036   5.3054037  70.6031570  74.1129150
  45.1924934   3.7714741  70.4071121  45.0008240   3.5739672  69.4903336
  44.4907532   4.3642569  70.6761856  82.6670837  35.6838531  11.8013477
  81.7153473  35.5881577  11.7656803  82.8189621  36.3030052  12.5153608
   3.5756247  53.5284348   1.5712420   2.8188345  53.5435143   2.1571372
   3.2010813  53.4026527   0.6993887  44.0331573  66.1029739  52.3546257
  43.3417015  66.1577606  53.0142593  43.5765076  66.2065811  51.5197792
  43.8733482  42.2040863  30.8709984  43.4535866  42.4394150  31.6984348
  43.2031822  41.7157593  30.3928299  42.2934761  66.5198517  76.8140030
  42.1353874  67.4288635  77.0688324  42.5186729  66.0773926  77.6323853
  11.5545588  65.5071487  11.2208233  11.9854059  66.2986450  10.8981256
  11.0591049  65.1809158  10.4696035  49.5121384  42.8796806  43.1292229
  50.2800827  43.4038353  43.3567238  49.8680534  42.0226250  42.8946838
  45.4200363  44.7889481  31.1802521  44.6624413  44.2968712  31.4967136
  45.9286156  44.1504021  30.6804218   8.5404854  32.1253281  82.4808350
   8.4362402  32.2598190  83.4227905   7.6949348  31.7811890  82.1930084
  71.9839783  -0.2846316  10.7700539  72.6312561  -0.0430569  11.4325523
  71.3890686   0.4642894  10.7321491  59.6293411   7.3316469  34.1856956
  60.5084343   7.5387807  33.8686333  59.3148232   6.6502333  33.5915718
  26.0476570   0.4999160  50.2880058  27.0035973   0.4509408  50.2849007
  25.7652283  -0.3039626  49.8518333  11.0477171  67.8931427  70.0862885
  11.0633020  67.9131393  69.1294250  10.3084888  68.4521942  70.3255234
  42.8187714  27.8989677  74.4175873  43.2124252  27.6148586  73.5926285
  42.9788666  28.8422260  74.4470367  72.1232300  22.2213097  53.8256569
  72.2618942  21.2810574  53.9393578  71.2830048  22.3926582  54.2509727
  71.9998016  17.4425831  50.9842720  71.5825806  17.5837917  50.1344414
  72.9317551  17.3587837  50.7825813  68.2203522  64.4513474  66.0152283
  68.3636017  64.0386505  66.8669281  68.0036240  65.3602600  66.2229233
  35.9302330  13.2151918  81.7360611  35.8530579  12.4603910  82.3196335
  35.5581322  13.9425535  82.2347794   3.2134922  35.7495880  55.9895325
   3.5339091  34.8736153  55.7745056   3.8012774  36.0569038  56.6796761
  45.7910271  48.8910675  37.4377899  46.5091324  48.3384743  37.7463379
  45.9674377  49.7497902  37.8221207  58.4873085  18.2813816  23.2214279
  59.2929649  17.9511986  23.6190834  58.3238029  19.1128597  23.6665592
  69.9332199  65.7078934  74.5541306  69.6145477  65.0975571  75.2190781
  70.8494720  65.4633865  74.4240341  70.3073273  21.4076195  51.4171410
  70.6033096  21.7887211  50.5904655  71.0620956  21.4855728  52.0006447
  38.0160103  32.8281784  17.4630966  38.6387100  33.3446121  17.9747353
  37.1608543  33.1981049  17.6823921  71.7760010   1.5348859  36.4246864
  71.9415207   0.5956902  36.3425484  71.7216949   1.6869068  37.3681755
  77.0180435  31.7370987  85.3463440  77.9012680  32.0868073  85.4640274
  76.5840454  31.8955116  86.1846695  55.3133125  49.4317017  74.2614212
  54.4247551  49.4783974  73.9085464  55.7619400  48.8011971  73.6980133
  45.8764114  70.4526825  35.7190247  46.7815361  70.1533585  35.6330833
  45.3492622  69.7067642  35.4327583  63.5550995  45.8490295  42.1042290
  63.1334534  46.6731987  41.8609314  63.9181557  46.0135040  42.9744949
  78.8601761  62.2715492  32.1606293  78.5288391  61.5225983  31.6651325
  78.0941544  62.6097221  32.6243973  60.0894165   8.7064390  39.5985413
  60.1835518   8.3558083  38.7128601  59.6385727   8.0150108  40.0832024
  44.7041702  51.0819435  46.7451210  44.7727356  50.1449509  46.9283600
  45.3105049  51.2290268  46.0191994  70.9773331  18.8736267  19.8236408
  70.0232773  18.8148708  19.8740673  71.2710190  18.7850189  20.7303562
  52.0664330  60.9322243  16.2904015  52.6771049  60.2013817  16.1945648
  51.3642387  60.7407036  15.6687298  58.4324608  32.7116013  37.6908989
  58.9878540  33.4718628  37.8634529  58.9602814  32.1542473  37.1190681
  28.1796513  12.4127808   7.5842705  28.9848709  12.9207964   7.6831288
  28.0164108  12.4037647   6.6411352  69.8109436  71.5837173  13.8202200
  69.8433380  71.7707291  12.8820257  69.0854645  70.9667664  13.9165592
  57.4435463  56.9973106  65.3287354  56.8698730  56.2748146  65.0735321
  58.0474739  57.0951271  64.5925751  28.1803188  62.2338982  46.2982826
  28.0694180  63.1807518  46.3843269  27.2977505  61.9036713  46.1301842
  71.6800919   9.1959944  25.2804489  72.4061966   9.8196077  25.2912884
  71.6138763   8.9213610  24.3658867   5.8232098  18.2643414  64.7118607
   5.8466682  18.8632336  65.4581909   6.0839434  17.4181633  65.0755005
  16.3984776   2.2393901  65.8109589  16.8949566   2.1938448  66.6280670
  17.0356560   2.0204694  65.1310272  69.1192017  50.6569023  53.9379883
  69.4760361  51.4512329  53.5405655  69.8512039  50.2860184  54.4307938
  43.8386650  62.7146568  87.6866379  43.2887268  63.2486725  87.1133804
  44.0766907  63.3012238  88.4046326  22.2840195   2.3013544  85.0231247
  21.3373299   2.3879259  85.1349945  22.5190105   3.0048125  84.4180145
  13.7746954  24.8994827  21.9002991  14.6314611  24.9322739  21.4747314
  13.9198561  25.2913704  22.7614517  48.8109589  32.2075958  49.3155708
  47.9073639  32.4640388  49.1312218  49.2328682  32.1828270  48.4567261
  37.5712929  30.2777176  60.4580116  37.8624802  29.3661575  60.4803200
  38.3546371  30.7736282  60.2199516  69.8212738  31.0582409  53.0175781
  69.6174393  31.6850491  53.7116928  70.6348114  30.6418591  53.3021927
  83.2094040  43.8133469  41.6203270  82.5862198  43.8857269  40.8973923
  83.8420563  43.1578865  41.3264694  73.0913239  62.9186897  65.5792999
  72.5138092  62.4462585  64.9797058  72.7183838  63.7989426  65.6273041
  39.5392494  23.3207073  44.8447037  40.3495522  23.2349472  45.3469810
  39.6367226  22.6976280  44.1246300  11.5296364  52.3284492  37.9284668
  11.0890179  51.5043793  38.1358147  12.3401899  52.3011894  38.4368858
  15.8582344  16.4604073   9.0367441  15.8109541  17.4155655   8.9959021
  15.1328754  16.2089233   9.6084452  56.1515617  25.8713856  57.4907532
  56.2719383  25.0824642  58.0192795  56.3221703  25.5865650  56.5929756
  70.9196701  51.4310951  80.8807526  71.8359833  51.6888008  80.7797852
  70.9224167  50.8205338  81.6179352  49.6733170  71.5711899  70.2870026
  48.8629608  71.6669235  69.7866211  49.4904022  70.8645325  70.9061966
  52.0338554  70.9726334  55.2263412  52.6385841  71.4981537  54.7025414
  51.9779396  70.1376266  54.7617226  33.0868225  64.9982071  69.2998962
  32.6304398  65.5715561  69.9157028  33.1243019  65.5016403  68.4866486
  14.2785921  49.8484917  79.7434387  14.2021198  48.8957291  79.6921692
  13.8532629  50.0788078  80.5694427  41.7580299  69.0396957  65.8014526
  41.3267860  68.7260971  66.5963821  41.0486755  69.1351776  65.1659012
  83.5127869  18.6943245  53.0544701  84.2878647  19.1529522  53.3787270
  83.0023499  19.3712502  52.6101074  72.3539810  21.3811722   9.2837877
  72.9505920  21.7727852   8.6458836  72.6762924  21.6862164  10.1319008
  40.6351700  54.9662056  54.3720932  41.4246902  54.4884834  54.1178017
  39.9844322  54.7207298  53.7144356  52.2964630  24.5054874  74.6513062
  51.6737785  23.9737892  74.1555328  52.3925018  25.3057041  74.1349106
  45.1181946   2.3151362  39.3923683  44.3991508   1.8017640  39.7606812
  45.4445381   1.7836702  38.6662292  83.3472290  49.7667465  52.0302849
  84.2653046  50.0306053  51.9690857  82.8633118  50.4885330  51.6289406
  71.3644333  26.0801144  74.2706223  70.7767105  25.3364010  74.1375732
  72.2031937  25.7896347  73.9123764  40.2600899  60.9295044  27.3993034
  40.8371086  61.6312332  27.0978737  39.6207809  61.3692474  27.9597855
   2.9607067  11.5472279  63.4087906   3.4810276  11.9645777  64.0953140
   2.2954528  12.1976051  63.1836700   1.8548787  70.0516968   6.2299328
   1.3051533  70.6000824   5.6701941   1.8866793  70.5180817   7.0652175
  36.2490654  20.7328892  79.3025513  36.8640633  20.0626717  79.0045319
  35.9995956  20.4542465  80.1836624  31.4908333   8.7720833  73.7738953
  30.9764290   9.5093460  73.4451599  31.1694107   8.0170984  73.2810287
  64.2194672  45.7154083  86.7585678  63.9332237  46.5552483  86.3994522
  64.1385498  45.1024017  86.0278778   9.8758297  21.9673367  77.3732758
   9.0136814  22.3514977  77.5325012  10.0946445  21.5222931  78.1919861
  46.7791786  13.8832340  19.5416107  46.6866608  14.4263926  20.3243313
  46.3206520  13.0713263  19.7579231  85.4627075  63.0314903  76.9426575
  85.3306274  62.9563141  75.9976044  86.0575104  63.7747154  77.0429993
  36.9088249  58.2877121  43.6387215  37.2407227  57.6980667  42.9616737
  36.6948624  59.0943642  43.1699333  86.1665878  15.0791750  61.8924026
  85.8386993  15.9719648  62.0003319  86.4383240  15.0329971  60.9757462
  34.5245819  66.0838165  83.4348297  35.3296890  65.8611526  83.9022217
  34.3015785  66.9610062  83.7463455  46.6842537  44.8269958  25.3972340
  46.6674995  44.6330223  26.3344250  46.1622429  45.6243858  25.3083134
  58.1397705  40.4567833   7.0890021  57.8840828  40.1464462   7.9576483
  59.0373650  40.7698059   7.2011180  16.1726208  15.8439550  83.2317963
  16.1003246  16.7789860  83.4234314  15.6555767  15.7219744  82.4355469
   3.8932886  22.1352367  69.4512711   3.9555402  22.5463619  68.5891037
   3.8258345  21.1986256  69.2656860  54.2118683  11.9837875  48.0343666
  55.0647964  11.6174154  47.8008804  53.5895729  11.5154428  47.4779205
  82.1307907  18.5805759  13.9241409  82.0307617  19.4204197  14.3723478
  82.9730682  18.6479359  13.4744053  46.1080437  41.5278397  29.3514252
  46.4040184  42.3673134  28.9994049  45.3935280  41.7560234  29.9460926
  31.3957443  57.8134842  89.0310593  31.2581444  56.9284821  89.3687897
  32.0214119  57.7020950  88.3152618   8.9070330  57.7910385   8.5971603
   8.9061766  56.9673004   9.0846882   9.8239136  57.9270134   8.3582640
  38.0726013  36.8571167  20.3384380  38.4899025  36.1523132  19.8431149
  38.7656746  37.5055656  20.4624996   2.1708288  13.0116100  35.1653099
   1.8452560  12.2182236  35.5904846   2.5520217  12.7035332  34.3431091
  68.3082504  17.0735435  65.6158676  67.7648315  16.5694885  65.0101776
  68.0445175  16.7692356  66.4842453  77.1006622  71.0741119  84.6810684
  76.4912491  71.3474808  85.3667221  77.4155121  71.8936996  84.2997818
  60.6498604  19.7800255  18.8237896  61.5941811  19.9364872  18.8204880
  60.5631676  18.8414993  18.9907799  32.5573196  36.7924728   5.0090313
  31.6805000  37.0847359   5.2580333  32.8950386  36.3552589   5.7907109
  48.6785202  35.1241646  10.6145935  48.0258904  35.1048431  11.3145437
  49.3913422  35.6574020  10.9664078  60.5431252   5.1337299  21.6893425
  59.6264076   5.3880534  21.5836086  60.6065445   4.8384938  22.5976639
  16.7707958  42.5821419  84.9145050  17.0132275  41.7055206  84.6161804
  17.0803280  42.6213074  85.8194275  46.6232033  45.1621857   6.4865985
  46.4295654  44.3816261   5.9675031  47.2115211  45.6771698   5.9344149
  66.6638794  61.6996727  34.9501152  66.0889664  60.9398003  35.0412292
  66.9105530  61.9223824  35.8477707  25.4351807  69.7018890  79.1774826
  24.4819736  69.7659378  79.2368774  25.5900326  68.9243393  78.6411362
  29.3482113  22.7365437  75.9549408  28.4807892  22.9141521  75.5912552
  29.3199253  21.8120193  76.2012863   8.9123421  25.2694016  88.0415878
   8.3777990  24.6830597  87.5061417   9.5229378  25.6692715  87.4223022
  19.1186085  18.0287743  81.0016174  18.6285954  17.7185974  81.7631302
  18.9695225  17.3607121  80.3325119  40.2701035  50.6183052  28.9590378
  39.5559769  50.0524750  28.6656265  41.0596161  50.2130699  28.6003075
  45.7773819  47.0809174  40.9164581  46.1217270  46.4808083  41.5779152
  46.3687706  46.9801598  40.1705780  75.3224182  53.7406578  22.2541008
  75.6558838  54.5595779  21.8874874  74.7520447  54.0145149  22.9723701
  71.3114853  21.0415325   1.5124407  71.6816940  20.7528534   0.6782694
  70.4522934  21.3958588   1.2833467  68.5708618  16.9403095  82.0369873
  68.9911957  17.0655289  81.1861801  68.3812790  16.0028324  82.0748138
  30.7344303  29.4919662  80.8581696  31.1024704  29.1474457  80.0444870
  30.3957806  30.3553276  80.6211929  42.2262802   1.6557571  66.5103226
  41.3751678   2.0240190  66.7474442  42.3235283   1.8572274  65.5796356
  36.9211159  16.8785057  12.9720802  36.7171249  17.7384224  13.3397255
  37.4513283  16.4503155  13.6442127  52.7791748  61.8578758  88.7946625
  52.2178001  62.3239326  88.1750870  52.2011986  61.2139702  89.2040176
  11.4677200  51.0224762  15.9146099  11.9342461  51.2258911  16.7252941
  10.6245317  51.4662933  16.0056820  63.6823463  19.1786175   0.2540382
  64.1219406  18.3283405   0.2582310  62.7493515  18.9657841   0.2326961
  54.6340790  55.0948944  40.5924950  54.3062325  54.7264290  39.7721405
  55.4136086  55.5889320  40.3385353  53.6572189   8.4876509  37.8090782
  52.8838692   7.9266148  37.8674011  53.3817253   9.2185116  37.2557449
  84.5472031  34.5939407  26.8855743  84.5562897  33.6390305  26.8200436
  83.7966309  34.7883644  27.4468918  17.2941418  52.3594513   3.7737796
  16.3697109  52.4955330   3.5660772  17.6771297  53.2362976   3.7474756
  75.4045563  30.9427814  13.4484787  74.7196884  30.9208717  14.1168451
  75.7757797  30.0605392  13.4569311  75.2582092  49.8307037  74.9362946
  74.8735046  50.3665733  74.2426910  76.1618805  49.6875572  74.6550140
  55.4312973  25.8573704  77.2058334  55.3736076  26.7670689  77.4979782
  54.5207558  25.5726547  77.1278458  57.4569588  34.7309265   3.9903610
  58.3058586  34.5746727   3.5766160  57.4959450  35.6423340   4.2802639
  43.2225723  35.4520531  32.2646866  44.0662918  35.0368385  32.0858841
  43.3576698  36.3736649  32.0442047  51.8425179  25.9722900  59.1891899
  52.6582870  26.4022655  59.4458427  52.1141014  25.1075916  58.8813400
  21.2825069  41.1314392  15.8760986  20.5042915  41.3339386  16.3953362
  21.8000221  40.5526428  16.4359264  39.5738564  49.4683113  39.0057755
  38.7781944  49.6328011  39.5118370  39.9089432  50.3401108  38.7962151
   6.5826826  70.6433182  38.0771828   7.1144109  70.9133835  37.3284760
   6.8664365  69.7480164  38.2619705  57.0830231  46.0109673  26.5412598
  56.3161430  46.5332031  26.3058834  57.7924500  46.3750839  26.0117664
  42.3782654  11.2746506  24.7518749  43.0809822  10.7677336  24.3451138
  42.8032265  12.0806084  25.0452538   7.6970105  53.8192215  52.3626595
   7.3812132  54.5016556  52.9549294   8.3273487  54.2656250  51.7973022
  14.6418781  27.1491623  69.0950165  14.9189425  26.3051968  68.7383804
  14.6710997  27.0292892  70.0442276  45.3439331   2.6293802  18.2557259
  45.8096428   1.8645517  18.5939312  45.6289787   2.6998355  17.3446732
  36.1427155  37.2615204  33.2793274  36.6006203  36.5575371  33.7386322
  36.0186081  37.9396858  33.9433479  51.5493774  55.2347527  21.2861290
  50.6193237  55.1565628  21.4985294  51.9666786  55.4610481  22.1173229
  69.0892410  12.1406269  44.4336967  69.0661926  11.3432074  44.9626770
  69.9702377  12.1545563  44.0596848  68.4319611  55.3217239  28.4464264
  69.2356262  55.1068954  27.9729214  68.2585144  56.2358093  28.2214966
  83.2740021  40.7143173  14.0436058  82.6374207  40.9815025  14.7066317
  83.6454315  41.5362740  13.7232046  46.1075630  31.5587902  70.2185135
  45.7758255  31.6035652  69.3217545  46.0435715  32.4571457  70.5426941
  15.5816898  37.8619576  75.6836014  15.2074976  38.5029488  75.0791702
  15.1540642  37.0372162  75.4530106  18.6727314  38.0408592  84.7356644
  18.3434372  37.3359642  84.1780624  18.3667736  37.8143082  85.6138992
  34.4376564  58.7480392   1.8556123  33.6200371  59.0969810   1.5006866
  34.5436745  57.9003258   1.4239069  22.1257763  52.5405083  17.7754936
  22.9324341  52.0765152  17.9996510  21.9468136  53.0915718  18.5374222
  68.2542267  64.4552917  81.3181305  68.4732437  63.7140350  81.8827591
  68.6669312  65.2084656  81.7407837  71.5678558  19.0178585  14.1433010
  72.2336121  19.1178513  13.4628544  70.8447037  18.5678291  13.7065544
  81.9356995  27.2076626  84.5201187  82.2868042  26.8903198  83.6881104
  81.3148651  27.8927975  84.2723541  56.0660782  35.1082344  16.2505341
  56.9300270  34.9818764  16.6427860  55.4789734  35.2263985  16.9972458
  58.5901489  42.0109901  80.2140427  58.1291580  41.2196846  80.4925308
  59.4728241  41.7103920  79.9978104  81.7560730  16.5273666  27.1545715
  82.0693817  16.0135956  27.8989563  82.4071579  16.3774929  26.4691067
  36.4082451  31.6110249   7.1248398  36.3141060  32.4947510   7.4803643
  36.7370033  31.0914783   7.8584757  19.1870708  36.0161095  74.7484741
  18.3822098  35.8948364  74.2447662  19.8226719  35.4374084  74.3273468
  15.3919401  63.8798561  34.7914581  16.1975861  63.8344116  35.3063354
  14.7056332  63.5952263  35.3949471   8.9436836  31.3002129  58.3467522
   8.6520929  31.1214809  59.2407646   8.8702412  30.4579353  57.8979683
  83.2161179  46.9671326  25.3449383  83.4065704  46.0535049  25.5576477
  84.0396805  47.4273872  25.5066395  32.0912170  50.9321671  57.0970345
  31.7627068  50.6227875  57.9411888  31.3434563  50.8516083  56.5049248
   2.5209818  39.9770126  13.0864506   2.3023348  39.1043777  13.4134560
   2.8238013  40.4535141  13.8594170  56.4515572  23.4601727  44.5628357
  56.1992531  24.2557106  45.0315514  55.6263237  22.9993267  44.4116821
  68.2103500  63.3794098  22.1244621  67.2868042  63.2088737  22.3094196
  68.2790527  64.3339996  22.1081429  53.7534866  61.4968491  41.7525940
  54.4819641  60.9624023  41.4364929  54.1607780  62.3181763  42.0278511
  24.9800987  35.0802460  55.3860168  25.7806835  34.7047234  55.7524567
  24.5871506  34.3649521  54.8858414  40.2520905  58.6344795  86.4514084
  39.9161987  57.8590508  86.9009933  39.9912148  58.5137787  85.5383911
  17.5229988  33.7611694  88.9683380  17.3767796  32.9633255  88.4601059
  18.0682640  33.4804420  89.7032623  83.6277695  40.5518875  67.9999008
  82.7705383  40.7495956  67.6226807  83.4300842  40.0941277  68.8169785
  62.2005043  69.0801544  31.3758030  61.3795815  68.9448166  31.8490887
  62.1356773  69.9718704  31.0339451  55.1679993  40.2854195  32.0628395
  55.7646866  40.5937996  32.7448158  55.0795975  39.3468056  32.2284431
  27.9388866  57.0439529  83.5345078  27.4032555  57.3039474  84.2839890
  27.7238712  56.1217232  83.3948746  46.5776062  58.3793716  19.2329597
  47.3217392  58.7704926  19.6907024  46.2282906  59.0888977  18.6937180
  46.9091263  59.2600975  40.6628189  47.1639862  59.3137169  41.5839043
  46.2766380  58.5423508  40.6307068  20.9723721  70.4802551  47.2829819
  21.0580635  70.1822128  46.3774071  21.8498077  70.7801514  47.5204735
  37.6951561   9.9575338  12.9210653  38.3065643  10.5170984  13.3999195
  37.8829918   9.0732756  13.2357664  42.9254227  40.0903320  10.7715654
  43.0053902  39.6632042   9.9186897  41.9821701  40.1824989  10.9057751
  27.3008175  19.7701683  87.4387665  27.9631824  19.4111214  86.8483505
  27.7034740  20.5607643  87.7980118  59.7882576  71.7762527  55.4201469
  59.4794388  70.9963303  54.9590797  60.3056107  71.4343033  56.1492920
  46.2148094  26.9160557  46.0798416  46.8597183  26.2092342  46.0528831
  46.6909637  27.6608543  46.4469719  68.0060577  35.0599594  58.5243416
  67.9743195  34.7231445  57.6289177  68.9244003  34.9738617  58.7802124
  47.7841568  44.9407463  78.0025864  47.5656586  45.2261658  77.1154404
  47.1147308  45.3436813  78.5555267  84.5622635  21.7054405  23.8971481
  84.7312851  21.2962742  24.7458229  83.6364746  21.5312786  23.7274170
  25.6700592   0.8972725  84.4855042  26.5294857   0.4771382  84.4522858
  25.0962887   0.2383379  84.8764343  62.4835854   3.1903024  72.8790741
  61.7825775   2.5852270  72.6367950  63.2895508   2.7256832  72.6537247
  14.8876934  50.2124329  53.5175591  15.7324371  49.9150429  53.8554916
  14.8509693  51.1407776  53.7479057  34.4278450  15.7400389  69.2745895
  35.0443497  16.4722347  69.2682495  34.3084755  15.5354605  70.2020187
  61.4412041  19.7340641  40.5625191  61.3069687  20.3610840  39.8518448
  60.5692482  19.3800793  40.7374954  62.9212189  41.3365746  84.6341248
  63.5902328  40.7378235  84.9660187  62.1051865  41.0243988  85.0251083
  67.9858780   2.7262161  51.5169487  68.0751572   2.3628407  52.3979836
  68.8014526   3.2058356  51.3719025  32.1630058  16.1171474  85.4948120
  32.7214546  16.3638039  84.7575760  31.4481831  15.6194973  85.0978165
  40.3442383  67.9576797  42.3891525  40.6665306  68.4964371  43.1117172
  39.7162170  68.5184860  41.9338341  52.0692062  67.2970886  75.0283203
  52.7687645  66.8149109  75.4691696  52.1462784  67.0434494  74.1085587
  72.7286758  57.3862572  42.8682594  72.7082977  58.2175865  43.3422966
  72.7608261  57.6376038  41.9452095  84.6526871  22.3500290  39.4973373
  85.0394821  21.5235348  39.2083321  84.2725525  22.7269821  38.7038383
  20.7726288  58.0320969  22.4459610  19.8984280  58.3769875  22.6277752
  20.7521439  57.8055916  21.5161724  25.1015301  62.2671280  53.5776443
  24.9514599  61.8012848  52.7550240  26.0526466  62.2627640  53.6852989
  35.6391945  24.7039051  46.0232811  36.2777023  24.2946129  46.6072502
  35.3411636  25.4788036  46.4996643   6.0716491  62.9157448  38.4151039
   6.2650208  62.4651031  37.5930595   5.3006945  62.4650650  38.7597046
  64.2621002  41.4131470   9.3999176  63.9694099  40.5403404   9.1376743
  65.0614014  41.2566910   9.9027805  86.6281204   5.2831697  18.9682255
  85.9247818   5.7762814  18.5458622  86.3095322   5.1250072  19.8568878
   4.0418839   6.2799621  25.9182701   4.8121958   6.6392517  26.3584557
   3.8631170   5.4603529  26.3792648  57.5659790  12.0881701  85.9672623
  57.7747459  11.3283682  86.5107193  58.3159065  12.1750488  85.3787918
  45.3021545  58.3422203  58.8045235  45.3271179  58.2414436  57.8529701
  44.3878403  58.5475349  58.9997253  71.1698761   5.6732202  87.1575317
  72.0973511   5.8480182  86.9979477  70.7119446   6.3887134  86.7164001
  28.3017216  71.5534439  84.0245514  28.2747974  70.5972977  84.0604095
  28.6498375  71.8153839  84.8768616  70.7079697  63.0202408  23.7971249
  70.1955185  63.4451447  23.1093159  70.9153137  62.1558762  23.4419918
  71.0050049  40.6177940  38.4713707  71.9264908  40.8533401  38.3636055
  70.8476486  40.6907654  39.4127235   5.2290192  65.6785736  38.2166939
   5.6605358  64.8491211  38.4217148   5.4981198  65.8730621  37.3189240
  48.8836899  70.9510956  38.1502037  49.1710472  70.1107941  38.5073471
  49.0663261  70.8879318  37.2127151  57.8494530  10.7255201  57.0808296
  58.3655052   9.9826536  56.7676659  58.0521889  11.4329910  56.4687691
   1.2067246  23.2879353   6.1236281   1.1046284  22.9754391   5.2246542
   0.3709041  23.0855160   6.5439405  26.8891182  39.4525108  25.5769653
  27.8342133  39.3809319  25.7107677  26.5140362  39.3343468  26.4496517
  15.2169237  44.3822594  76.7621460  14.6197004  44.5903168  76.0436325
  15.9058819  45.0438690  76.7001495  10.0426121  22.2428627  82.9782028
  10.2589798  21.3886566  83.3520355   9.2040024  22.1059666  82.5374985
  10.2339926   5.0185227  24.6852055   9.9274139   5.5504370  23.9508286
   9.7061357   5.3097591  25.4286976  44.4786301   9.3659801  19.6480770
  44.5539703   8.7369242  20.3656044  44.8720512   8.9212103  18.8973236
  86.4318161  10.4244642   6.6956906  86.0211182   9.5607395   6.7348924
  86.9789352  10.4653425   7.4800529  49.7534027  57.4768944   4.9228411
  49.6206589  56.5349312   4.8164597  48.9370155  57.8701515   4.6144695
  64.4155121  21.6201382  69.3725891  64.9221954  22.2232132  69.9164734
  64.7414169  21.7669697  68.4846420  30.4763718  10.7109137   4.3664746
  29.5998783  10.3768978   4.1756253  31.0477390  10.2481422   3.7536008
  35.3854485  60.8703766  37.6449928  35.6639290  60.0171471  37.3123055
  34.4297676  60.8458710  37.5969887  53.6550522  29.4371300  67.8645630
  52.9295120  29.7012634  68.4302979  53.2905083  28.7424641  67.3161316
  74.3367004  58.9775810  46.8502846  74.5118027  58.2181511  47.4060173
  74.7715759  58.7738190  46.0222778  84.2978058  12.1659269   4.7215128
  84.8785934  12.7919931   4.2891254  84.7428360  11.9534855   5.5419064
  23.8996315  46.0877380  35.2501831  23.8468151  47.0253372  35.0648499
  24.2999306  46.0373459  36.1182022  86.0757675  18.7445679  84.4659042
  85.5130615  19.4737320  84.2052994  85.4668884  18.0516567  84.7215881
   9.2239017   9.7600222  15.8562765   8.8478479   9.3615351  15.0714054
  10.1394558   9.4807920  15.8514757  55.4705772  26.8798714  42.3219604
  55.6979446  26.0135765  41.9842224  56.2138062  27.1246510  42.8732567
  65.4721832  18.3437214  80.4605942  64.5263977  18.3842888  80.6023026
  65.7850647  17.7149868  81.1110001  12.4904089  69.8482437   8.7573233
  12.2184448  68.9702301   8.4901876  11.7377005  70.1972809   9.2346430
  82.8531570  52.8307266  64.3759613  83.5999527  52.7527809  63.7822838
  82.9700699  53.6821671  64.7974091  56.9630699  18.6318264  81.0817413
  56.8104858  19.1157627  81.8933792  56.2002602  18.0598507  80.9969177
  82.1185150  61.0758286  85.5932236  81.2648392  61.1967125  85.1774597
  82.6985245  60.8148766  84.8778687  19.9071922  38.3314400  42.1888466
  20.1945782  38.4754944  41.2872429  20.7188435  38.2801361  42.6936455
  66.7133789  31.9281387  44.1223450  67.1680145  31.5831852  43.3538780
  66.0609894  32.5302429  43.7644463  17.2805996  53.7356644  76.2796097
  18.1381626  53.8661118  76.6843338  16.6619892  53.7835274  77.0084915
  65.6980362  66.8756104  49.8530807  65.2965088  66.0620117  50.1581573
  64.9626617  67.4777298  49.7394981  85.2890778  47.2345963  63.0071144
  86.1534958  47.5882263  63.2167969  84.6747818  47.8593636  63.3925171
  62.7473984  44.0645370  67.4566498  62.1610336  43.5496178  66.9023361
  63.2297401  44.6198807  66.8441391  36.6558418  54.7957115  60.9926453
  35.7593346  54.9851112  60.7158127  36.6289406  53.8844795  61.2844772
   4.1301088  57.3200722  51.3287315   5.0755510  57.3168221  51.4782639
   4.0339112  57.5678177  50.4091644  54.4740028  41.5142479   7.8037372
  53.6922951  40.9620514   7.8193917  55.0431938  41.1051826   7.1518788
  22.0060577  52.6776237   4.7147450  22.7096004  53.1317711   4.2510529
  21.6448631  53.3371201   5.3070607   7.2542505  41.1952248   5.0078468
   6.5073290  40.6541367   4.7517962   7.9491515  40.5668488   5.2040281
  78.0950470  22.5826283  54.4678116  77.6718140  22.5690727  55.3262558
  78.9151535  23.0545521  54.6125298  62.6009789  52.3897514  60.8439713
  63.1363029  52.0553627  61.5635834  62.3566360  51.6103210  60.3449631
  46.5294418   5.2892427  19.0158672  47.3830643   5.1024652  19.4066010
  46.4686432   4.6872263  18.2741718  66.4514771  27.6410179  24.8143406
  65.7528687  27.4100323  25.4265671  67.2218552  27.1787205  25.1445293
  34.8687744  69.3872299  63.7162399  35.2030067  68.4916763  63.7663231
  34.0961571  69.3234787  63.1547890  69.3278351  70.9267807  56.7166634
  70.0909805  71.5018311  56.7728386  68.5775833  71.5163040  56.7929955
  80.3051300  43.5967751  84.6342545  80.4013519  43.5198135  85.5834961
  79.5357666  44.1538239  84.5158920   6.7799335  29.1636734  69.1926498
   7.2382407  29.3155842  70.0191498   5.8554411  29.2935162  69.4040375
  54.7910843  31.0563240  20.8922787  54.4949493  31.2278004  19.9983368
  55.4633026  30.3816357  20.7966347  18.0811844  39.1368790  11.2344742
  17.5976696  39.3777084  12.0246935  17.8451595  39.8089867  10.5951014
  42.2566299  26.8642311  89.0259781  42.7664452  26.1171341  89.3392944
  42.7556000  27.1991386  88.2809296  77.2987595  50.5557022  79.4576569
  76.6251755  50.5964661  80.1365204  76.9419861  49.9565506  78.8019333
  74.0243530  52.7751884  15.6691551  74.1888428  51.9612465  16.1452541
  74.8961334  53.1134453  15.4646921  86.2058716  31.9304790  74.8077164
  87.0712051  32.3328209  74.7332306  85.6025085  32.6706085  74.8740311
  48.2628441  64.0827332  52.7043419  48.5942421  64.9405289  52.4386406
  47.3301849  64.2256851  52.8654213  25.0392876  24.0932980  14.3830605
  25.5722256  23.5258541  14.9400320  24.5731964  24.6615295  14.9963350
  17.5350838  23.1961498  77.2598419  16.7004395  23.1975136  77.7284546
  17.4284515  22.5281334  76.5826263  18.1185818  62.4187241  86.4044800
  18.7110405  63.1586418  86.2712555  17.2424374  62.7981377  86.3363037
  27.6074696  50.6700439  47.3089066  26.7149544  50.8202744  46.9973335
  27.8250046  51.4606171  47.8027725  18.5472794  61.4792480  53.3712616
  19.4464016  61.6216545  53.6671219  18.2483559  60.7192879  53.8705940
  28.1147518  43.1590157  80.4663391  27.4763508  42.4459991  80.4495010
  28.4222012  43.1838837  81.3724747  23.0369339   4.3036237  17.9504662
  22.9724731   4.8733859  18.7169189  22.1474762   3.9743578  17.8213100
  11.9395418  29.5488815  18.2384853  11.8928823  30.3651943  17.7408009
  11.3029280  29.6619587  18.9442959  39.5866776  22.2176647   4.6496415
  39.2057877  21.6999016   5.3589196  39.3876381  21.7202549   3.8564212
  60.0226898   3.0868995  76.4414825  60.6929779   2.9693167  77.1146240
  59.7118874   2.2008495  76.2556076  67.5643463  55.3448639  33.5577927
  68.4112854  55.2200432  33.9859734  67.6205521  54.8211784  32.7585258
  59.7737999  65.9863586  69.4251556  59.5196075  66.7427902  69.9537659
  60.3024216  65.4487839  70.0149078  24.9542313  63.3277550  41.5499115
  24.9230042  63.4493408  42.4988441  24.0920010  63.6090775  41.2438927
  45.7725258  24.8162727  78.3043213  46.6754379  24.5240555  78.4291916
  45.2802010  24.0111713  78.1441422  28.6842213  51.0065575  71.6892624
  29.2195015  50.3673592  72.1595154  28.3046455  51.5533943  72.3771057
  82.9871750  20.7772560   5.3083019  83.4200821  21.2489223   6.0198865
  83.5436020  20.0139179   5.1535754  26.6787853  40.8484230  81.7843399
  26.8328819  40.2638969  82.5265045  26.5874538  40.2625122  81.0329361
  31.1358795  56.7212067  70.8213730  30.2549744  56.4918060  70.5253830
  31.1052437  57.6688652  70.9526443   9.4794779  55.6040878  47.1147461
  10.1890783  55.0172119  46.8534470   9.6664791  55.8133926  48.0298691
   0.2452015  59.0055161  48.5570030  -0.7115203  59.0357742  48.5571442
   0.4714618  58.5787659  49.3833923   5.3634686  48.2859840  26.4816303
   5.6941538  49.0060349  25.9445972   5.1292539  48.6961060  27.3142014
  73.6251602  68.1825790  25.0440369  73.9340820  68.1618347  25.9497776
  74.1033096  67.4750366  24.6116238  56.3924637  55.8651962  81.4531021
  55.9627876  55.6076279  82.2687454  56.5790787  55.0379868  81.0091095
  71.5054321  45.7323990  62.7616386  71.2934418  44.9616013  63.2881012
  71.1473541  45.5368919  61.8957329  44.4522552  51.9997406  11.0847607
  43.9106674  52.0036049  11.8739996  43.8261681  52.0716858  10.3642941
  55.8967590  62.4927177  33.1096840  56.6609116  63.0565605  32.9897575
  55.1476059  63.0702667  32.9632378  26.1644344  56.9052773  73.3541718
  25.7957783  57.7876816  73.3952179  26.6120491  56.7934532  74.1928406
  46.3540001  19.3477859  75.2767334  46.9579506  20.0831451  75.1731720
  46.8428841  18.5894775  74.9570618  40.1447220  49.6950264   7.7311940
  40.9933395  49.2941818   7.5430388  40.3490448  50.6108971   7.9200444
  57.6190948  67.1819916  54.6641655  57.2100487  66.5819168  54.0406075
  56.8842506  67.6333466  55.0795174  11.3896952  68.9877701  14.0551844
  12.0876436  69.4838028  13.6273441  11.8395405  68.2541656  14.4743481
  62.4155426  28.0761948  88.0226746  63.0102386  28.7333775  87.6611786
  61.5414886  28.4382954  87.8772583  47.5007057  52.9592628  86.2468414
  47.5865440  52.0664978  85.9124298  46.6436386  53.2503014  85.9354477
  82.2379532   3.5254178  25.3446674  83.1893921   3.4806840  25.4395370
  82.1014328   3.9338853  24.4898300  69.7092667  34.4512939  71.0764313
  68.8214569  34.7932091  71.1818771  69.5856934  33.5286751  70.8534241
  12.4181681  51.4810829  18.6332684  11.7201443  51.1448097  19.1953335
  13.1233091  51.7107201  19.2384758  55.5801697  37.9291458  67.2787323
  55.6972923  36.9804497  67.2288818  55.1921768  38.0775909  68.1410828
  58.9158096   4.4361067  58.0695534  58.4543762   5.1971593  58.4218445
  59.4753952   4.7933412  57.3800011  37.7276649  60.2669792  69.5105515
  37.2569885  59.5019951  69.8414459  38.6034317  60.1917496  69.8895035
  64.5451660  25.7387505  43.9798317  64.9879074  25.3348141  44.7261887
  63.6175270  25.5489902  44.1202354   5.0833101  45.9395027  62.6452408
   5.7174573  45.3895798  63.1053238   5.5660071  46.2846565  61.8941689
  64.6709518  39.6351471  24.1108589  65.2981949  39.9973335  24.7366524
  64.0610886  39.1297226  24.6483021  11.0057535  58.1879387  77.6813889
  11.5904360  57.4575386  77.8836212  11.5908012  58.8943863  77.4077454
  46.9819374  15.2219086   3.6264539  46.1164474  15.1978445   3.2183177
  46.9255028  14.5920324   4.3449960  81.9080200   0.6499342  68.4478149
  81.1246414   0.9992333  68.8727188  81.6014404   0.3446825  67.5939636
  15.8893175  54.8238182  31.2996368  15.1964779  54.2495384  30.9734325
  16.1938000  54.3999138  32.1020241  74.4537125  39.0934715  51.2203979
  74.5206528  39.4622078  50.3396111  75.1658707  39.5073013  51.7080574
  19.9586468  47.6760902   0.4213952  19.1154270  48.0936356   0.2457044
  19.9623432  46.8992081  -0.1377746   3.2448239  36.7209930  39.2713432
   3.3708735  37.6698380  39.2772598   2.4830644  36.5770683  39.8328056
  22.7247105  62.3306007  38.4389267  22.8286705  62.1363144  39.3704185
  23.4424820  61.8604736  38.0146408  42.8451233  59.1901474  50.8698502
  43.2024460  58.3314056  51.0959396  42.3346100  59.0354462  50.0750694
  58.0745392  43.2882271  63.0469742  58.6337433  42.6770935  62.5673447
  58.5536041  44.1166954  63.0279007  69.0729446  30.1923008  38.4802818
  69.8441925  30.4142151  37.9585953  68.9342041  30.9565144  39.0397148
  63.0738945  62.3453979  65.6042175  63.5480118  62.0890045  66.3952332
  62.4029427  62.9538727  65.9137650  59.9113235  67.1766281  32.7922668
  60.0555763  67.9194946  33.3784218  59.3548431  66.5805588  33.2935257
  17.1322327  50.6053009  63.5523224  16.6329842  49.8079262  63.7288895
  17.7434578  50.3565826  62.8589401   8.7759666  71.2658005  55.0329781
   8.4338017  71.2233429  55.9259262   8.0130653  71.4744034  54.4938164
  84.2127686  16.3782578  64.9349060  84.3029099  15.4391193  64.7732620
  85.1070175  16.6810684  65.0925598   8.3930569  59.2593651  88.3551788
   7.7319574  59.8098068  88.7749329   9.1436176  59.8400078  88.2296906
  14.8940954   1.2094712  81.6088867  15.4077892   1.0824386  80.8112564
  14.1210976   0.6584129  81.4862518  22.2534370  42.1187935  70.0028152
  22.0978470  41.5648842  69.2378311  22.6926632  41.5438271  70.6294937
  49.4614754  27.9516201  22.3211670  50.0478210  27.5262756  21.6954556
  49.9718285  28.0055180  23.1291695  31.0819778  34.8027611  83.5221558
  32.0329323  34.6983833  83.5541306  30.9155540  35.2247200  82.6792450
  70.9557495  45.3731613  78.5126724  70.4285660  46.1630020  78.6329117
  71.0115509  44.9870758  79.3867722  60.1243744  28.9641171  49.4128265
  60.6379166  28.1710339  49.5662079  59.2852669  28.7925091  49.8402405
  53.8522606  64.3679276  32.2366829  53.1859169  64.9887390  32.5313263
  54.0307121  64.6201630  31.3307209   3.2463858  65.3451614  35.9010735
   2.7807968  64.9843292  36.6555634   3.3215146  66.2803574  36.0908241
  72.3676147  46.2185020  16.3870964  71.5830536  46.0924034  15.8534317
  72.2957993  47.1167183  16.7100239  79.6951675  16.5047607  55.6011848
  79.9934616  17.3407555  55.2428932  79.5172424  15.9641638  54.8315544
  34.7671776  64.3133545  56.8483009  35.0436592  64.7399445  57.6593590
  35.5276756  63.7994499  56.5766830  62.8743744   8.4322166  81.6428070
  62.9684677   8.8459063  80.7847595  62.6873474   7.5141444  81.4468536
   1.5477031  49.4829407  21.3011036   1.7412201  48.8265190  21.9703522
   1.3856180  50.2871742  21.7942238   6.0974984  55.5376892  54.1511116
   5.2819343  55.8420334  53.7530403   5.8623018  55.3398132  55.0576210
  52.1191978  61.6339493  46.6980896  52.8702049  61.0438728  46.7615891
  51.3953972  61.1431541  47.0872765  63.7817650  19.1522846   8.5319281
  63.7905159  18.9014606   7.6082172  64.6501846  19.5235825   8.6875277
  49.9731636  14.3309669  58.0133018  49.9674187  14.0403547  58.9253006
  50.6288605  13.7771254  57.5895615  46.5389366  15.9693031   7.3940697
  46.4949989  15.7380800   8.3218832  46.9599915  15.2163830   6.9792728
  84.7277832  60.0190582  14.0087967  85.3093567  60.7608528  14.1753635
  85.3162079  59.3011131  13.7752485  37.8853874   1.1404434  20.3718910
  37.8301201   0.2594466  20.0017262  37.0545883   1.2594020  20.8321629
  73.1401596  12.1788902   0.6798605  73.9170532  12.5718012   0.2820011
  72.4408569  12.8114309   0.5152528  82.3181610  52.4303818  59.3489037
  82.0332642  53.1781082  59.8742332  81.6630783  52.3621674  58.6543198
  52.8137550  61.5592537  57.0460129  53.7650795  61.6122093  56.9543114
  52.5997314  60.6578827  56.8052826  62.8937111   2.0338798  49.3714714
  62.0378990   1.8856106  48.9691811  62.9194870   2.9758935  49.5393333
  78.3141785  47.8318291  72.0892105  79.2244873  47.6096954  71.8936844
  78.0893021  48.5063934  71.4484177   1.1380361  65.6135483  10.1461639
   1.6451498  65.0545197  10.7348547   1.0602292  65.1038284   9.3397131
  79.8355103  16.6759739  45.1393852  80.3519821  17.0879841  44.4467545
  78.9261169  16.8151054  44.8750458   9.9187565  36.0091896   6.4295959
  10.7374401  35.9388504   5.9386353  10.0313148  35.4127045   7.1697097
  48.4344292   2.8276825  87.9703598  48.5507774   3.0670841  88.8898087
  48.2429428   1.8900243  87.9893875  20.5650845  69.9139252  68.7406311
  21.3341427  70.4690933  68.6118851  20.4924545  69.4131546  67.9281158
  22.7249222  59.4399757  75.2352829  22.5277443  58.9326096  76.0226364
  23.5793877  59.1166039  74.9497070  15.8843565  61.3437996  17.3393555
  16.2993507  61.5037003  16.4917431  16.6112919  61.3224869  17.9617233
  26.8353386  45.8891182  11.1466436  27.4285717  45.6670189  11.8642635
  26.0895405  45.3001862  11.2614260  56.9917297  67.1308365  13.0050249
  57.2146683  68.0613403  12.9784746  57.5320396  66.7751312  13.7105522
  39.0433502  49.5076561  76.0700836  39.0484848  49.3745270  77.0179672
  39.3013916  50.4222412  75.9552689  37.4007759  37.3924446  28.2809734
  37.7424850  36.7669373  27.6420612  37.5056992  38.2458725  27.8603954
  59.8752670   3.9460471  36.3826256  60.5747452   4.2874064  35.8254585
  59.0676079   4.2145662  35.9446564  49.3041115  48.5377007   3.6567497
  50.1042099  48.2275124   4.0808458  49.3171463  49.4861450   3.7852788
  14.1300335  64.6333847  58.8203583  13.3098879  65.0573196  58.5676308
  14.8085575  65.2681580  58.5903740  17.5905399   6.9121919  25.4277306
  17.3581333   7.7279801  24.9842110  17.1327534   6.2321095  24.9336128
  70.6852798  58.4078979  73.8158875  70.2266312  58.9271393  73.1553879
  70.3707581  58.7519951  74.6518936  26.2544727  32.4189796  14.2921219
  25.3697567  32.7840691  14.3069954  26.6295109  32.7333641  13.4694786
  23.1227665  17.5205193  87.1136627  23.3045025  18.1847000  86.4487762
  22.1802845  17.3669682  87.0474701  67.1821289  20.2478943   5.4416251
  67.4812164  21.1402798   5.6160650  67.9684753  19.7835007   5.1548533
  45.9001694  30.4884510  63.6022415  46.1494637  31.2644291  63.1002998
  44.9551735  30.5768623  63.7263260  71.3614578  54.1464920  82.0606003
  71.2661133  53.3506050  82.5837708  72.0037842  53.9163208  81.3892822
  74.6988754  11.1972771   7.1117258  74.7718735  11.9115229   7.7447777
  75.4724121  10.6563463   7.2706823   4.2398539  69.9702988  80.5105667
   4.0148458  69.1960602  81.0264664   3.7439823  70.6811752  80.9167557
  55.7937584  27.0728779  82.8372574  55.2410469  26.6479015  82.1814117
  55.4768219  27.9755249  82.8690262  70.5311432  39.5302238  16.5500793
  71.0292130  39.2219582  17.3071327  69.6210556  39.5319099  16.8466816
  44.2511253  34.3679123  41.2599068  44.1930008  34.4842758  42.2082291
  43.8925743  33.4943161  41.1033707  84.9688568  17.6283760  13.2142429
  84.9905090  17.1430206  12.3895054  85.7968597  17.4104557  13.6422110
  45.1951218  18.8781300  71.4335709  45.4427071  19.0759220  70.5303497
  45.8935089  19.2629547  71.9630966  12.1896324  35.7481766  70.0658417
  11.8976793  34.8789444  70.3404770  11.8445702  35.8474731  69.1785355
  31.4379978  36.5932198  70.9510422  31.9243488  37.1811295  71.5290222
  31.8471394  36.7080040  70.0933380  64.3877029  63.4761047  70.9947662
  65.2235107  63.6279182  71.4359055  64.4397583  64.0007935  70.1958771
  47.6060638  50.4549751  73.7733765  48.4340286  50.5548058  74.2432022
  47.8496170  50.4916496  72.8484039  44.5029564   6.9240661  68.0850677
  44.3882217   7.7895160  68.4775772  43.8456383   6.8871527  67.3902283
  68.0018234  61.9724274  49.1066246  67.2488480  61.5282631  48.7167931
  67.6180725  62.6276512  49.6894226  54.6237946  64.5511780   9.3306408
  53.7668343  64.9323425   9.5218620  55.2375183  65.0673141   9.8533077
  45.9375114  37.6443672  80.4131241  45.1550217  37.4413681  79.9005508
  45.8223763  37.1573067  81.2290573  77.8258972   7.8336053  68.9082870
  77.7981949   7.8974786  67.9536285  78.7511063   7.9412889  69.1287918
  49.6973572  11.4159336   0.2919577  49.2467957  11.6242390   1.1103930
  49.0269432  11.0025892  -0.2520317   0.6208027  44.8394661  73.0132294
  -0.0233120  44.6685028  72.3261185   1.4671682  44.7600975  72.5732346
  20.5713654  11.3999100  86.6783905  20.7380409  12.3087969  86.4286423
  20.2683849  10.9817581  85.8724289  69.2064743  29.9733543  13.0118227
  69.1069565  29.0217876  13.0409317  69.8869858  30.1628723  13.6577473
  58.2880630   0.9413483  44.1322136  57.6046524   0.7858173  43.4802971
  59.0242271   1.2894554  43.6291084  79.8503799  50.9983978  24.9253159
  78.9004288  50.9990997  24.8077564  80.1741028  51.6092377  24.2632675
  11.5641956  24.4680939  17.9541264  12.1665363  24.7582016  17.2691040
  11.7043285  25.0843678  18.6730156  19.5599461  41.8692055  37.0191917
  20.3349247  41.7342377  37.5645561  19.9090557  42.1352806  36.1685677
  17.2462749  47.7337379  84.6382217  16.5595207  47.6436653  83.9775467
  16.7747116  47.9209976  85.4498825  21.1416111  40.9653854   2.8450146
  22.0561695  40.7490540   2.6633072  20.6795063  40.7526016   2.0342031
  40.4581032  53.9509583  56.9181519  41.0019569  54.2859650  56.2052536
  40.9850540  54.0868607  57.7056046  59.0428391   0.8616241  28.5537796
  58.5057526   0.0789038  28.4308300  59.9434814   0.5511606  28.4605846
  21.2141418   2.9197109  20.1624088  21.1419907   3.8707809  20.2429810
  21.4037762   2.6177852  21.0507278  64.1306610  58.2966576  21.2511253
  63.8934288  58.3147087  22.1782856  63.7291946  59.0850601  20.8857803
  24.7372456  30.1248150  16.8678837  24.9422016  29.8997421  15.9603777
  25.0827961  31.0105381  16.9788818  49.9947357  30.2086067  50.8392868
  49.6524582  30.7455750  50.1246262  49.5774155  30.5615177  51.6251183
  83.0865402  61.4759407  81.9970932  83.0041428  61.6195717  81.0543289
  83.0903320  60.5237541  82.0948792  16.2393265  28.0856152  17.1231365
  16.8611107  28.3438015  16.4427280  16.3613815  28.7332172  17.8173580
  44.0297966   6.7116370  70.8673935  43.8932381   6.4305105  69.9626541
  44.3608055   7.6066718  70.7927170  29.5524921  50.3538742  64.0381699
  28.8370991  50.8268852  64.4632721  29.7860088  49.6640892  64.6593781
  59.1733017  65.9497757  40.3830376  59.4109497  66.1867752  41.2794685
  59.6609840  65.1443100  40.2109528  14.5152445   2.1492534  23.3845863
  13.5889931   2.1212878  23.1447773  14.7140150   3.0822091  23.4640579
  36.2308617  48.8884621  15.3991423  36.9403801  49.3861542  15.8054905
  36.1821747  49.2271156  14.5051756  61.6705780  35.5355301  12.6178465
  62.0729256  36.1856270  12.0418911  60.9439049  36.0002632  13.0328226
  75.8004074   9.7421551  43.3780212  75.6089783   9.4488077  42.4872169
  75.6778107  10.6910362  43.3492584   0.7514048  48.2152481  38.8112335
   0.9882764  48.8796120  38.1641350   1.5056586  47.6264648  38.8371277
  43.0890884  61.5893288   5.4299169  42.2445755  61.5629082   5.8797302
  43.4951973  62.4023399   5.7304535  27.3695393   3.9047439  64.1468582
  26.5136719   4.1238322  63.7784500  27.3140182   4.1801167  65.0619049
  53.3690948  50.9382973  28.1126499  52.7053757  51.4395180  27.6388512
  52.9390221  50.6828308  28.9287434  82.0825806  19.2995110  47.4874725
  82.2435074  19.0096550  46.5895195  81.1731110  19.5979767  47.4834518
   8.8592520  64.3089371  24.4195614   8.4187717  63.7791061  25.0840073
   9.6027203  63.7742386  24.1410198  77.5925522  53.6700134   5.4981341
  77.5640793  53.7229881   6.4534431  76.7220535  53.3591766   5.2494431
  74.1622925   7.6310682  46.0325699  73.3982162   7.8322883  46.5728760
  74.4231339   8.4746265  45.6629715  48.0337524  53.2002029   2.6867344
  48.0909348  53.4588737   1.7669245  47.3958511  53.8045654   3.0662868
  60.0964737  17.3109055  19.3995342  60.0128975  16.3716564  19.2350407
  59.3150826  17.5360985  19.9044552  82.0268784  47.2624664   0.8119046
  81.5745468  46.4360809   0.9813653  81.6560745  47.5735092  -0.0139220
  77.2909012  39.9613571  66.8041153  77.1043777  40.0597801  67.7378006
  76.4673615  39.6522713  66.4266434  47.5746651  47.1417732  38.6733055
  48.1695404  46.7290039  39.2993851  47.3234406  46.4343643  38.0794296
  47.8994331  19.6570072  84.0589600  47.0703201  19.2798119  84.3531189
  47.7738876  19.8104935  83.1225281  43.0912018  47.0955315  76.2341919
  43.5650978  47.9264183  76.2700119  42.3153839  47.2848473  75.7064590
  29.8697224  59.3587608  35.3356972  29.0120735  59.3802681  34.9111862
  30.0121479  60.2572289  35.6335258  64.3313370   9.8651810  41.8877106
  64.1279755  10.7415791  41.5609016  65.1472549   9.9750013  42.3760147
  34.9121628  58.7452240  77.3070679  34.0208893  59.0775032  77.4140930
  35.3923569  59.4714203  76.9092255  75.2218170  47.1581154  59.7199135
  75.3980560  47.4254074  60.6219826  74.8110733  46.2973366  59.8010712
  63.2199516  15.5187922  64.9496689  63.3338394  16.3248596  65.4531784
  63.9703598  14.9765301  65.1927185  28.9242229   8.3200598  11.2472115
  28.4205360   7.8426285  10.5879765  29.0884228   9.1753731  10.8500862
  43.1350555  45.8952560  68.0233459  42.6513367  45.7728729  68.8402176
  43.1806068  45.0200043  67.6385269   7.5348558  68.3463058  53.4121552
   6.9398355  68.6110535  52.7106628   6.9624410  68.1757584  54.1601448
  51.0300217  52.0033150  27.2632847  50.7055016  52.7606354  26.7760639
  50.6305885  51.2498055  26.8286476  37.2343216  44.1443596  15.1064835
  37.7577667  44.6134872  14.4567490  36.3702927  44.5535011  15.0586596
  32.8564949   5.3296280   8.8139668  32.5051765   5.9405441   9.4617243
  32.0929909   4.8405738   8.5071821  10.7443886   6.4341378  17.9372234
  10.1608973   5.9376335  18.5110283  10.4228582   6.2530365  17.0540161
  63.1579857  39.3743706  72.5592651  62.2954140  39.7891045  72.5450668
  63.0319252  38.5437012  72.1006470  19.2513924  29.5516987  80.3609695
  18.7766533  29.2459507  81.1338730  19.3269539  30.4978123  80.4850311
  78.8465881  68.1857834  28.7183952  79.7830200  68.0065231  28.8032207
  78.4620361  67.3425751  28.4789276  18.2557392  59.4134979  47.4058990
  18.3259125  58.4702682  47.5529366  18.8442192  59.8013077  48.0536079
  79.5657425  15.4632349  72.9823914  79.7503433  15.9362392  72.1709518
  78.9127884  16.0012894  73.4300232  72.9380035  13.2058830   4.3977561
  72.7972794  12.2720423   4.5538640  73.2422180  13.5461903   5.2391100
  80.0785294  64.6357117  46.1508408  80.3649979  63.7256813  46.0733261
  79.1628876  64.5761871  46.4234200  15.7588644  14.8334131   1.1686082
  15.9327507  15.4662066   1.8654354  16.4926262  14.2203579   1.2132192
  66.8892365  71.6478119  54.3895416  67.0867462  70.8436737  53.9093552
  66.5661545  71.3464966  55.2386932  64.8324051  57.4723549  27.4225674
  65.3379517  58.2816925  27.3474865  65.0188065  57.1546135  28.3060417
  27.0458012  64.9688568  54.6408882  27.5262871  65.3570557  53.9096794
  27.2000847  64.0279694  54.5562897  64.0307617   4.0381336  76.2298050
  64.6683350   3.3352947  76.1043091  63.3957443   3.9142361  75.5243759
  22.1876202  49.3649940  34.1703568  22.0325756  49.0844078  33.2684326
  23.0653267  49.7466011  34.1549492  83.9639816  42.2302361  57.1346130
  84.7445221  41.6914940  57.0052223  83.7193909  42.0820236  58.0480881
  80.5463104  32.0872231  35.7902565  80.9829254  31.2498512  35.9464989
  81.2209930  32.7445488  35.9604492  66.1687469  18.5236626   3.0363033
  66.7481537  19.2855778   3.0353782  65.4003906  18.8076668   3.5314860
  55.8317566  20.8422642  29.4533463  55.9320488  20.2668800  28.6949883
  55.2460442  20.3645306  30.0406666  66.7556610  43.2941208  85.8447342
  67.1589127  44.1106644  85.5499954  65.8264542  43.5051079  85.9357758
  31.4376163  32.0676079  77.0874557  30.8252964  32.7670822  77.3155594
  31.4226151  32.0386848  76.1308060  36.8458786  68.8237991  16.3213959
  37.0297089  68.1071625  15.7140560  37.1815910  69.6039581  15.8799381
  85.5491714  47.9287910  84.5724411  84.8361435  48.4914856  84.8744354
  86.0077286  47.6729088  85.3727493  31.5496216  53.6808929  53.0172539
  32.0242233  53.1891060  53.6874275  32.1042290  53.6221771  52.2393112
  59.2338982  53.3930550  16.7771606  60.1158943  53.0606422  16.6103821
  58.7986946  53.3553276  15.9254532  49.4455910  37.2532310  20.2125568
  49.8119507  36.5677643  19.6538601  48.6861458  37.5767479  19.7279816
  30.6805305  70.3151093  18.9923420  30.1408901  70.7596741  18.3385944
  30.2355003  69.4812164  19.1433163  64.4519348  36.8716660   8.6716557
  65.3157043  36.6423874   8.3287745  63.8554039  36.7207680   7.9384341
  76.4495621  56.4822388   2.5771008  76.8003998  57.2229843   2.0826955
  77.0170135  56.4166183   3.3451669  54.7329597  53.6436577  15.9628849
  54.7513657  53.9987106  16.8516102  55.3526077  52.9143829  15.9834366
  10.8876181  32.9126167  30.8364639  10.6338387  33.4655724  30.0974979
  11.4284039  33.4801865  31.3856888  27.4792976  26.5763531  88.1055527
  27.1084633  26.3069630  88.9458771  28.2870903  26.0689487  88.0265427
  53.5578079  14.9959793  32.7716179  53.7407036  14.0621252  32.6681862
  54.4065933  15.3841944  32.9839516  77.5839767  64.0657425  37.7671776
  77.2138214  63.2388573  38.0761681  78.1292648  63.8196831  37.0199547
  76.0209122  70.6182098  77.5458527  76.3593597  71.0911179  76.7855530
  76.4544220  69.7655563  77.5100098   4.9703474  24.2291374  62.6180840
   4.4821577  24.9816589  62.2840004   5.8566890  24.5620022  62.7589073
  73.0062714  42.2693062  61.2531548  73.3890533  42.7210999  62.0052109
  72.8171387  41.3876228  61.5742455   4.3139386  66.0369797  53.2152634
   4.1332250  66.9399796  53.4763374   3.8731682  65.9389038  52.3712616
  54.6771393  17.5057793  69.7808228  54.7273903  16.8893013  69.0503006
  55.4530678  17.3159618  70.3082123   4.8983121  30.3197136  41.4103508
   4.5808582  31.0147018  40.8337669   4.7431068  29.5123081  40.9202080
  82.7587204   1.3962853  79.8015366  82.3089142   1.2395989  78.9712677
  82.3379822   0.7975776  80.4185944  42.8177299  57.6994896  33.2750168
  43.1361656  57.7214584  32.3726006  42.3992577  58.5509300  33.4021301
  65.7382889  52.2153511  78.0328293  66.0638199  51.5369987  77.4411316
  66.2948608  52.1439819  78.8083115  30.9151459  41.5156555  78.6410904
  30.9686375  42.1796837  77.9537506  31.2997169  41.9357491  79.4104156
  11.0899944   5.2473860  75.1958542  10.4511099   5.4686995  74.5183029
  11.9394960   5.3514819  74.7672043  75.7807770  69.5728683  29.2375603
  75.1111984  68.9990082  28.8652916  76.1309738  70.0512695  28.4860744
  26.2157841  45.9417191  80.1509552  25.4783287  45.7501945  79.5715485
  26.7683792  45.1617241  80.1011353  50.3297920  23.6689949  29.0065174
  49.7784920  23.5945320  29.7854595  49.8283691  23.2356091  28.3158779
  58.9049454  49.1607170  30.4530525  58.9782600  49.6394386  29.6274128
  57.9742317  48.9491119  30.5253925   0.4743575  27.5439167  60.8153114
   0.7071180  26.7219143  61.2470131   1.0125166  28.2043781  61.2516670
  43.5182838  70.7423096  54.9744377  43.8393440  69.8413239  54.9372940
  42.8138313  70.7190399  55.6220741  64.3026810  46.8610764  58.0536766
  64.7618256  47.6884232  57.9090500  64.9051132  46.3429489  58.5873871
   1.0251472  29.2690353  41.7592926   1.0810716  29.8334751  42.5303383
   1.8714244  28.8229275  41.7271461  44.8973465  44.6689453  47.4610634
  44.2008553  44.2307053  47.9500198  45.3356514  43.9638901  46.9846001
   2.3365424  52.0219269  49.6187859   1.8829406  51.8296547  50.4394608
   3.0539773  52.6027679  49.8720512  86.2650223  48.1180611  70.6451797
  86.2618790  49.0263329  70.3430786  86.3257141  48.1828575  71.5982590
  66.5093079  12.9993801  16.6778221  67.3916473  13.2104826  16.3726101
  66.1437531  13.8399525  16.9535675  34.3994789  69.5483398  77.4889908
  34.6077690  68.8067474  78.0572205  34.3785782  70.3027496  78.0777588
  83.2938843  30.0523109  62.4415474  82.5847092  30.6815338  62.3097191
  83.1407471  29.3769207  61.7807655  69.5698166  47.9941978  22.6411800
  69.0070724  47.5299454  23.2608700  70.4014206  47.5212097  22.6720638
  78.4363403  26.8289757  39.7100105  78.9838562  27.0057030  40.4750061
  77.6305618  26.4604568  40.0721588  46.1477547  50.6506348  28.8297043
  46.5303040  50.6931229  29.7061081  45.8219986  51.5359421  28.6673870
  20.3552074  66.3953018  36.6848602  19.7051945  66.7991943  36.1098938
  20.5755806  67.0805511  37.3158188  77.4030609  46.7944336  77.1115570
  78.2036819  47.2348595  76.8264847  77.5507812  45.8715668  76.9048538
  70.2163544  41.0686035  32.9713631  71.1107635  41.2956429  33.2257538
  69.8015594  41.9093475  32.7781601  55.8192024  58.4818649  71.0238724
  56.6990967  58.5259132  71.3981400  55.2344208  58.6043587  71.7717056
  28.4138184  18.2480869  16.4629898  28.4613514  18.6111736  17.3473759
  29.2125969  17.7281685  16.3742809  86.8522415  33.9667282  21.4289398
  87.1607666  33.0678444  21.3147068  86.2778931  33.9274597  22.1936760
  37.6522102  70.4789429  79.3349838  37.3100128  70.0380325  78.5573349
  36.8754768  70.8208008  79.7777634  14.0393553  41.7633476  38.9626503
  14.3302126  41.5521889  38.0754967  13.0995169  41.9223175  38.8751068
  52.0048141  40.7302780  81.4687881  52.4648666  40.9101257  82.2886887
  51.0858879  40.9131393  81.6646729  69.2773285  66.3552628  60.4598503
  68.7346954  65.9212952  59.8014793  68.7679443  67.1219025  60.7225685
  80.0954895  24.2468338  54.9420395  80.0977020  24.8734684  55.6656113
  80.9428101  23.8059387  55.0044403  74.4158630  13.3697786  45.8971252
  74.6025314  13.4623489  46.8313751  74.0209351  14.2053175  45.6478500
  65.9329834  10.6801653  66.6338348  65.8198471   9.7875080  66.3073425
  65.1994934  11.1672716  66.2584000  56.0693741  31.8798523  59.2225876
  55.8936386  32.0677795  60.1445618  56.7624969  31.2199364  59.2405548
  61.3847351  46.2977562   7.3012424  60.8387909  45.7946053   6.6970768
  61.3907585  45.7801018   8.1063700  19.7344761  23.9631748   7.4362803
  18.7778339  23.9305840   7.4344206  19.9953423  23.3038006   8.0792475
  74.8924866  57.0099106  26.4608669  74.5173798  56.8185196  27.3204575
  75.1424713  56.1540413  26.1126842  27.1517277  66.1397324  60.8322372
  27.8253746  65.5547409  61.1789589  27.5527554  66.5345154  60.0579262
  28.5729637  49.0940018  23.1697941  28.2440357  49.2787476  24.0495129
  29.4003620  48.6351089  23.3149223  56.0572815  68.9889221  22.7842903
  55.8636055  68.2677917  23.3831997  55.6872025  69.7612762  23.2117825
  12.0280285  66.7162857  30.4116516  11.4857969  67.5041504  30.4501133
  12.9031439  67.0381393  30.1952801  61.1979561  60.0414619  21.5867367
  60.8175087  60.8894234  21.3577003  61.9243011  59.9312401  20.9731388
  77.2263870   8.1863203  25.3188820  76.3039932   8.4360037  25.3742790
  77.3740463   7.6420031  26.0922832  27.7437153  56.2096863  75.7182312
  27.3235302  56.8857384  76.2498627  28.4885979  55.9195213  76.2447205
  64.1539001  23.0792389   4.9520364  64.5555344  22.3761120   4.4416165
  64.3255997  23.8721428   4.4440441  15.8611784  36.0123482  43.3445320
  16.1215763  35.9550972  42.4252129  16.0197525  36.9259834  43.5819283
  56.2377014   6.2207751  82.6983185  55.4253769   5.7166028  82.6517258
  56.0168190   6.9817543  83.2353058  77.3377304   2.1691170  21.5774994
  77.2665710   1.3871868  21.0300026  77.7976151   2.8045702  21.0289192
  24.0542889  42.3139114   4.3089232  23.6402779  41.6196136   3.7963042
  24.9882774  42.1059418   4.2835073   2.4843214  11.7112999  49.0875893
   2.8839464  11.0394888  49.6400414   2.2506540  12.4131317  49.6950951
  47.6796646  67.6374130   4.8371129  48.5724869  67.9141083   5.0433593
  47.4242401  67.0832901   5.5746298  66.7368164  65.4861450  63.9805794
  67.1463547  64.8898010  64.6073837  66.8008041  66.3477097  64.3927002
  75.8284225  38.3737450  57.6681519  75.0301514  38.1422920  58.1429329
  76.2716064  39.0030403  58.2371941  80.3167877  10.2834921  82.5990524
  80.1759491   9.3460894  82.4661102  81.2680435  10.3782358  82.6477432
   2.5937948  56.5850296  18.8738518   2.0637100  57.1392212  18.3010406
   3.4128320  56.4594498  18.3946457  20.7488518  32.7822151   4.3155389
  21.6997509  32.7191391   4.4052277  20.4151287  32.6469421   5.2024221
  61.9505196  35.7164612  42.2162857  62.2085991  35.1578484  41.4830894
  61.4095078  36.3987274  41.8187294  78.1990051  35.0776253  86.0875702
  78.1575851  35.4821854  85.2210541  78.9155197  34.4462128  86.0231018
  50.4566193  19.8972912  74.8918915  49.9650383  19.6947956  74.0959167
  51.2560196  20.3204079  74.5785828  71.6040802  19.8744946  32.3339996
  72.4971848  19.5365086  32.2679062  71.2640610  19.4957962  33.1446800
  26.7796822   3.9463117  23.3379841  25.9998913   4.4167285  23.0432529
  26.4452515   3.1141272  23.6724339  74.5640869  64.6415176  13.4723940
  73.9149246  63.9558754  13.6296005  74.2032318  65.1512299  12.7469931
  43.4879951  29.3329525  42.3025284  43.9239388  28.5392113  42.6126289
  42.6790276  29.3766499  42.8123245  78.8139267  11.5854187  78.0530548
  77.9724503  11.2962494  77.7001801  79.1958160  10.7967834  78.4383469
  61.2453804  55.4482384  14.7747393  61.9070435  54.7576942  14.7349129
  60.8762131  55.3757477  15.6549063  79.5141373  64.4643021  13.2788677
  79.9096451  65.2853470  13.5715933  79.9126740  64.2976303  12.4246902
  71.6371765   0.7169313  56.6533432  71.8566589   0.4847800  57.5556526
  72.1862030   0.1437949  56.1182556  27.8064327  16.2113628   6.9495006
  28.3891811  16.6883259   6.3586168  27.7112312  16.7870388   7.7082925
  15.1119881  39.3255424  28.6426220  15.5640249  40.1691399  28.6580143
  14.4688663  39.4112320  27.9388580  70.4435959  64.7742996  32.2413368
  70.9526443  64.7716751  31.4307251  69.5681458  65.0537109  31.9734917
   5.0629563   1.6781129  70.1998978   5.8979425   2.0051908  69.8651581
   4.9405966   2.1389694  71.0298767  70.9737473  68.8823700  22.0816784
  71.3959808  69.3228378  22.8191986  71.6924210  68.4585724  21.6124897
  10.6610870  54.9825935   8.4601421  10.2499475  55.1392097   9.3102407
  11.3706388  54.3678589   8.6468773  43.2935829  38.1938477   5.6620889
  43.8532524  38.3926582   4.9114399  42.4019356  38.2609406   5.3204799
  83.3116379  34.8098526  51.5695114  84.2131729  35.0957298  51.7169838
  83.3418121  34.3437309  50.7340164  40.9178886  28.3789005  68.6042633
  41.1015930  28.0283260  67.7327194  39.9708977  28.2835999  68.7060394
  14.8253946  69.0550919  16.2173367  15.1655788  68.7182541  15.3884525
  15.3871393  69.8030090  16.4205379  48.3504601   5.9912858  62.2369308
  49.1981812   5.5794330  62.0696678  47.9874992   5.5012217  62.9747162
  60.7898369  19.8937855  77.6571960  59.8385048  19.9923611  77.6956711
  61.1185303  20.7853146  77.5415802   5.2502861   8.3940344  18.7275105
   4.8067422   7.5775414  18.9573803   5.3673859   8.8464003  19.5629063
   7.4243078  69.3344574  46.3486328   7.2329931  68.9645386  47.2104874
   7.0849814  68.6878510  45.7297707  40.1428680  34.5220566  55.3372421
  40.8773117  34.1843338  55.8498497  40.2163658  35.4735336  55.4115562
  40.6729660  55.1572151  40.8241386  40.5043526  54.3466759  40.3436928
  39.8036919  55.5200539  40.9942703  56.2219734  42.9445457  85.0946426
  56.3208046  42.7395172  86.0243912  55.2771873  43.0308189  84.9675140
  13.6334572  43.2985191  11.7853689  14.2744780  43.1197739  11.0973463
  12.9378881  42.6579018  11.6369610  64.0402908  20.9315796  65.6920471
  64.9153824  21.2731285  65.8758545  63.4502144  21.5162182  66.1677017
  50.8332520  47.2734566  86.1395950  51.1036186  48.1749458  85.9650879
  50.9826736  47.1559258  87.0777206  57.1837006  60.5755424  46.8516998
  56.8708763  60.3896484  47.7370338  56.8058929  59.8801651  46.3132401
  57.8725700  50.1221619  68.4907684  57.4668579  49.8216972  69.3040009
  58.1330109  51.0251617  68.6724243  22.1126041   2.8089182  10.0176296
  22.0530853   1.8999090  10.3115540  21.4074764   3.2580342  10.4838057
  29.6038380  57.9024200  46.8101425  29.5554714  58.3230629  45.9516830
  28.6994858  57.8932495  47.1236610  37.8539124  33.4417839  65.3493347
  37.8076172  32.9576569  64.5248947  38.7857819  33.6264114  65.4666672
  77.1570892  34.0986214  76.3597565  76.2176208  33.9156685  76.3722534
  77.2420273  34.9454956  76.7977219   2.0450711  40.1323280  59.8835945
   2.5217752  39.7931938  60.6412048   2.4266803  39.6732445  59.1353645
  59.0620041  50.0428085  35.0620384  58.9808884  50.9027596  35.4745102
  58.4155045  50.0537643  34.3562393  51.0651550  42.6123962  24.1265926
  51.9514732  42.4645767  24.4564724  50.7586594  41.7438698  23.8659115
  55.1125450  48.3108864  55.2019958  54.9527702  48.0128517  56.0974731
  54.3780632  47.9602165  54.6982117  54.5244827  59.1861343  88.7240219
  54.1530304  58.9814758  89.5821457  55.0556946  59.9682808  88.8733368
  47.5662956  39.9263840  38.6372757  47.4877892  38.9728432  38.6660614
  46.9802704  40.1936874  37.9292145  46.8952827  37.2127190  77.8587189
  46.4514427  37.4807892  78.6633148  46.5985680  37.8413353  77.2006683
  33.9701004   6.3741474  17.8070259  33.2936172   6.1697445  18.4526463
  33.8130531   5.7573490  17.0920944  77.2601471   6.4921503  81.1097260
  77.1430130   7.1862202  80.4610443  76.4409637   6.4863262  81.6048355
  70.1021271  31.9243641  61.8165855  70.4480133  31.0411949  61.9454422
  69.8530350  32.2144279  62.6941109  65.7119217  21.7405758  61.0764694
  66.1997833  22.2087669  61.7539787  65.7080307  20.8296280  61.3703918
  47.4855690  50.1041985  86.0238266  47.2576294  49.1901588  86.1935577
  47.8446693  50.1007042  85.1365433  44.9901009  33.8875389  84.8535614
  45.1020775  33.6144180  83.9430084  44.0622215  34.1118431  84.9239578
  26.6645584  11.7206573  73.4811478  26.8647099  12.4800463  72.9338760
  25.8126945  11.4171591  73.1673813  22.4170437  11.4925985  34.5346527
  22.6913948  10.7431993  34.0061035  21.8247242  11.9834328  33.9650307
  77.1340637  20.4709797  85.0429382  76.9318161  19.6976662  85.5695419
  77.9974670  20.7495079  85.3481903  20.6013947  24.3485794  19.8409004
  19.8072739  23.8188515  19.7702446  20.9681911  24.1176662  20.6943474
  66.4491119  24.0753784  54.3354874  66.9526062  23.3486710  54.7023849
  67.0671158  24.8058720  54.3093987  17.4013081  50.2382355  69.3011322
  17.9694366  49.5368690  69.6197968  16.5611401  49.8099747  69.1369934
  58.9828835   2.4023995  46.1026154  58.2223129   2.9796817  46.1697845
  58.8506699   1.9264673  45.2827148  84.6360474   0.3281031  85.7552948
  85.0264740   1.0607377  86.2317886  84.3976898   0.6957052  84.9042435
  44.5129700   2.8454897  67.6818695  43.6057129   2.6663461  67.4348373
  44.9658089   2.0124032  67.5509644   5.6656141  39.9319191  58.2347984
   5.6753597  40.5556145  58.9608421   4.9414034  40.2215538  57.6799469
  63.5042992   0.5095549  70.2187881  63.9154129  -0.3329929  70.4120026
  62.6163063   0.2846826  69.9410553  25.4619389   1.7479026  66.9440842
  24.8355503   1.5858611  66.2386703  26.2952690   1.8925285  66.4958954
  52.5464096  41.4560280  87.5161591  51.9933167  40.8283234  87.9812546
  51.9285774  42.0542984  87.0959396  31.6771297  62.3579025  49.3793716
  31.2504139  63.1585884  49.6844063  31.4731255  61.7070198  50.0509109
  83.1219025  21.5492954  14.7170916  83.1506271  21.4629993  15.6699600
  83.7942276  20.9454498  14.4015360  14.0399246  41.6854019  82.5036469
  14.2039051  42.5803528  82.2063217  14.1469479  41.1487122  81.7183151
  78.3018646  50.6723480  43.2033806  77.3488312  50.6823959  43.2920494
  78.4572067  50.8207321  42.2705994  61.0589027   4.0978084  29.6951542
  60.4714241   3.7513373  29.0235443  61.1092834   5.0353384  29.5087891
  25.8999138  58.4089165  58.3639717  26.2450371  57.6618767  58.8529053
  26.5495453  58.5677147  57.6791420  26.7220306  47.2809143  40.7239456
  27.0283356  46.3781471  40.8100853  27.5099754  47.8128471  40.8353958
  72.5854111  16.0227451  27.5074825  72.0057144  16.2088814  28.2460861
  73.3439560  15.5915680  27.9010925  30.3170090  45.4779587  24.2732430
  29.3694553  45.6083221  24.2361107  30.5986824  45.5062218  23.3588619
  19.5048180  65.7992325  60.8594360  18.9517498  66.5672531  60.7162857
  19.4743176  65.6550446  61.8052216  80.6476746  63.4976997  10.2203569
  80.3161163  62.6329727   9.9783792  80.0081177  64.1098785   9.8564358
  82.6353760  32.5064278  75.2187653  81.9525146  32.6848831  74.5721741
  83.2621384  33.2214813  75.1087646  77.4487534  35.5264244  35.4412727
  76.5058365  35.6327858  35.5670929  77.6291580  35.9581070  34.6062088
  47.7092209  59.5417671  88.2502213  48.3040390  59.4798317  87.5028305
  47.7231674  60.4680023  88.4913101   4.7168827   0.6205871   7.6205249
   4.0388594   0.4855023   6.9585066   5.0730314  -0.2533855   7.7804055
  74.2077713  18.6784554  49.1791725  74.9305038  19.0164204  48.6503372
  74.6060257  17.9982471  49.7222595  61.1011047  57.8753929  79.5439072
  61.0316162  57.0362930  79.0885925  60.2483101  57.9919968  79.9626923
  21.3982334  39.4725647  72.2866974  22.2202034  39.9502373  72.1752396
  20.9038601  39.6569672  71.4880600  35.2314911  43.6926079  23.5209904
  35.5451241  43.0263290  22.9094830  35.9343910  44.3417435  23.5491314
  22.1821423  31.9106846  21.6594448  21.9706230  31.2766342  22.3446255
  23.1143227  32.0915985  21.7800312  82.0100708  57.5646973  54.3469391
  81.5842743  56.7500229  54.6138458  82.1638336  57.4581871  53.4081917
  80.9768143  70.9265823  37.4308815  81.1794968  70.3397141  36.7023621
  81.7118225  71.5392303  37.4565353  74.0043793  23.0970516   7.9292617
  73.8572540  24.0087547   8.1810274  74.0847168  23.1218605   6.9757619
  30.5469856  54.7281914  14.4686365  29.6751347  54.6996155  14.8627043
  30.6621437  53.8615875  14.0788012  37.8142891  63.1146202  23.4690857
  37.7384605  62.5180626  24.2138004  38.0156479  63.9638939  23.8620529
   2.2682109  31.8713055  65.9017410   2.4531767  32.8015251  65.7724762
   3.0284145  31.4223080  65.5319748  55.8338776  29.7486877  23.6216068
  55.5475121  28.8662777  23.3858528  56.3660316  29.6257820  24.4076977
  21.6562862  19.6577892  85.4325104  22.5164318  19.3656216  85.1308136
  21.5004215  20.4740810  84.9575348  74.2738495  68.3582306  50.7019997
  74.7331848  68.3633652  49.8622284  73.7563019  67.5531540  50.6869965
  34.6278152   4.8265462  20.8354225  33.8178253   5.2078104  20.4966240
  34.8226738   4.1063461  20.2357788   4.8963990   8.4911203  14.7250814
   4.7181306   7.5889263  14.9905949   4.8380761   8.4756184  13.7697859
  28.6127682  58.7757721  87.9536896  29.3709641  58.2659798  88.2391434
  28.9851704  59.4890213  87.4352036  56.2794533  66.3425522   2.8374014
  56.6813660  65.4812851   2.7237601  55.3531265  66.1562653   2.9905338
  40.1982880  50.8456612  81.4047699  41.0595055  50.4285049  81.3820801
  40.0405807  51.1188278  80.5010376  14.9016714  62.0025101  58.1215744
  14.9834957  61.7448959  57.2033310  14.4840307  62.8633041  58.0925369
  81.8694992  32.1950569  64.0669403  81.6343231  32.7708206  63.3393326
  82.5736313  32.6580925  64.5208435  19.9109993  66.5331039  72.9896622
  19.3806343  66.8967438  73.6986771  20.1446953  67.2903061  72.4527664
  37.8598595  39.9514160  83.3252029  38.6328583  40.5090981  83.4129410
  38.2113762  39.0636215  83.2582397  22.6055088  51.0271416  15.6735048
  23.2330589  51.6800041  15.3633776  22.2556896  51.3972359  16.4839916
  35.6056175  18.3810558  89.4188766  35.0379181  17.6604271  89.1456680
  35.5219116  19.0300064  88.7202377  66.5044632  30.5206490  27.4352970
  66.2344513  29.6404724  27.6972427  67.1393890  30.7845325  28.1012306
  42.5021057  64.9550705  33.5974312  42.5491600  65.9108353  33.5743217
  42.1562805  64.7114563  32.7387772  21.4114704  70.5613022  16.1854305
  21.7788944  70.1606369  15.3975868  22.1725712  70.7565460  16.7320900
  77.4356995  21.9209366  64.2071686  77.0365067  21.7835236  65.0662308
  77.1533051  21.1675854  63.6885681  80.0811462  14.3240519  33.9163704
  79.7310486  14.5675001  33.0594025  79.9932632  15.1171217  34.4450951
  56.1134338  56.9307785  43.9288330  56.7402153  56.8279610  43.2127266
  56.3353539  56.2314758  44.5436211  66.5526810  46.6711540  62.3950577
  66.3514862  47.0413055  61.5355568  66.7951431  45.7630539  62.2139549
  81.0791550   9.7143650  22.0480232  80.2469482  10.1872168  22.0392933
  81.7200775  10.3629131  22.3392754  22.8802586  30.5330944   2.5396068
  23.4562206  31.2383480   2.2444487  23.4753456  29.8615150   2.8729000
  81.6059647  42.9569702  45.5284271  82.0344315  43.7953720  45.7008400
  80.6965942  43.1873779  45.3381767  74.8777771  50.8151894  30.3616447
  75.3649750  50.1771355  30.8829422  73.9880066  50.4642944  30.3239441
  33.9564590  17.8907566  80.3224335  33.7704277  18.8288364  80.3628235
  33.7817993  17.5735683  81.2084961  17.0610905  47.1369438  43.7384644
  17.6981850  46.5190125  44.0969429  16.2470722  46.6364288  43.6828537
  11.8640308  16.2483215  68.0916138  11.5740576  15.3810158  67.8088989
  11.0650778  16.6821537  68.3910980  49.6455421  22.0095024  69.4994125
  49.7930641  21.1175289  69.1850052  48.7165108  22.0320168  69.7288208
  72.8537292  20.4587727  87.3399506  73.4024963  20.7909966  86.6295166
  72.2344513  19.8697891  86.9088745  58.0203552  65.8244476  78.7225494
  57.5794334  65.9618912  79.5609589  58.0533943  66.6940689  78.3239212
  54.9523048  36.1251335  48.4365501  55.2796440  37.0009880  48.6413918
  55.5916367  35.7686920  47.8197556  42.8666878  30.4497013  22.1731930
  43.0052948  29.5209503  22.3587818  42.7826805  30.8563499  23.0356388
  70.1073914  64.0479126  49.2806396  69.6080246  64.8640060  49.3099060
  69.4661865  63.3672981  49.4852180  15.6072264  67.0940704   5.6506839
  15.2447758  67.8304749   5.1581769  15.9992886  67.4946442   6.4266067
   2.6347938  62.3222694  55.1213036   1.9073453  62.8534470  54.7974205
   3.1887901  62.1812286  54.3535614  63.6310616  63.2411804  49.5920029
  63.9500427  63.3287544  48.6937752  63.3006020  64.1114807  49.8147392
  77.8886337  52.8536301  77.6322861  77.5447540  52.1589546  78.1938934
  77.5060501  52.6780548  76.7726212  15.5576563  62.4634705  44.5071335
  15.8842249  61.6167297  44.8114624  14.6453075  62.4861107  44.7958183
   8.3504086  56.0407753  69.4346466   8.2809057  56.2763176  70.3598099
   7.4530249  55.8367767  69.1713638   6.1367397  37.4471207  49.5526085
   6.0455232  36.5643845  49.1938858   6.1247411  38.0197411  48.7856712
  52.5626907  36.8043022   9.2212400  51.8252449  36.3371086   8.8286362
  53.0336914  36.1347198   9.7172737  79.1359177  70.5153732  56.4890747
  78.5929413  69.7542648  56.6942825  78.7180557  70.9080582  55.7226448
   6.3285499  10.0835762  20.8940277   7.1703324   9.6292515  20.9290047
   6.5590825  11.0093699  20.8166161   4.3109770  48.3319664  59.1537285
   4.3908095  48.6012039  58.2386475   3.3779018  48.1529770  59.2701988
   8.5416422  58.1892891  31.4392090   8.7182741  57.3105736  31.7752075
   9.2331038  58.7333374  31.8162041  79.5200119  67.5132446  31.6713524
  79.7319641  68.4321442  31.5072155  78.5670471  67.4994431  31.7602444
  51.8724709  41.0589485  27.6744518  51.9301605  41.9458961  27.3191643
  52.6971664  40.6449356  27.4200859  11.2479267  44.6197815  47.0554810
  10.4532146  44.2484436  47.4385872  11.7168407  43.8654633  46.6986122
  66.0108261  52.3102684  73.6729889  65.6538773  51.4345055  73.8208466
  66.4814682  52.5165749  74.4805527  57.8692055  30.9821796  45.9688721
  58.1412735  30.1065521  46.2436218  58.3833160  31.1563606  45.1804657
  55.1574860  31.3985462  13.1766882  55.1829567  32.3032951  13.4881525
  54.9205322  30.8857918  13.9494562   9.1422548  31.5543098  49.4930496
   8.4152203  31.2505150  50.0365181   9.1033173  31.0034657  48.7112007
  83.7798080  14.0937328  22.0036335  84.0155182  14.7930107  22.6132908
  83.7077942  14.5302086  21.1547890  71.2683411  61.3628654  73.7227478
  72.0678177  60.9253311  74.0153656  70.9683990  60.8410187  72.9784698
  45.8637314  56.2328148  65.5454254  46.7990265  56.1936340  65.3456268
  45.6475143  57.1640739  65.4981079  49.7058868  43.6414108  48.9499512
  48.9905930  43.7197685  49.5811768  49.3454018  43.9906654  48.1349030
  71.3300095  60.3776932  83.9927444  71.9527054  59.6770554  83.7988739
  71.0940323  60.7323685  83.1355667  21.2029209  44.8894958   2.0071454
  21.4276371  44.5511475   1.1403961  21.4525681  45.8130379   1.9758552
  34.5163078  21.7282734   6.6248522  35.0021324  21.1061401   6.0834141
  33.7651176  21.2299824   6.9468012  15.0235338  43.3012276  42.2277527
  15.1696005  43.9276772  42.9365921  15.3515377  43.7442474  41.4452057
  65.3296356  19.1820717  70.1643829  64.9227219  19.9110413  69.6961288
  64.8457642  19.1267948  70.9884262  42.7804718  36.8106422  15.3998718
  42.1793060  36.5326004  16.0909023  43.5133514  36.1977692  15.4590855
  20.1579628   2.0016720  30.2570133  20.8344803   1.5398384  29.7617702
  19.9811153   1.4343481  31.0074139  63.3835487  56.8029251  70.9562073
  63.0249825  56.0383224  71.4068146  63.5604591  57.4320030  71.6556320
  48.1677208  24.7415581  45.5303917  48.4148369  24.9286270  44.6247597
  48.9991531  24.5848274  45.9780388  23.2222214   1.6520442  25.4168377
  24.0754662   1.7606940  24.9968357  23.2312927   0.7543326  25.7488976
  61.7640076  62.5549431  39.5467987  62.3759384  63.2622337  39.3430557
  61.5014992  62.2118645  38.6926193  13.8121386  27.0199356  87.3677292
  13.0947475  26.3888321  87.3103485  14.4560566  26.7091045  86.7313461
  74.8187103   0.6762414  80.6447983  74.2326431   1.1886376  81.2017593
  75.2190857   0.0412267  81.2386780  79.8198853  11.7769976  42.1851387
  80.5226898  12.4264069  42.1612587  79.2194138  12.0985403  42.8576508
  81.6322098  68.4087372  70.6596527  80.9583435  67.8571777  71.0570526
  81.3584900  68.5013275  69.7471085  82.9506378  63.1244316  69.0201797
  82.4475098  63.8108444  68.5820694  82.9651337  63.3882637  69.9401855
   3.8631487  45.1060486  82.5937042   4.1424732  44.3911896  82.0217056
   3.0123544  44.8249245  82.9303818  67.3741074  31.0689640   6.5626149
  66.6257019  31.3709774   7.0773182  67.3771820  30.1188889   6.6791425
  76.6268921  54.1778221  81.2275848  76.5726547  53.3151588  81.6388016
  77.5650711  54.3612289  81.1785507  72.9182053  46.7878532  70.1413040
  73.7923965  46.8603859  70.5243988  72.4347153  47.5292244  70.5057678
  86.0908966  59.0181007  21.0977573  85.2216568  58.6695404  21.2956333
  85.9560852  59.5779915  20.3331814  34.3859978  27.5499001  12.3028078
  33.6749763  27.7811432  12.9004774  34.0867310  26.7485619  11.8732395
  40.4409256  68.4911804  68.2231903  40.0388107  69.1289215  68.8129501
  40.2898827  67.6456909  68.6457520  12.0944595  21.5337658  12.8507347
  12.5917397  21.3910580  13.6560783  12.1643190  22.4747276  12.6896639
  54.5110817  41.7905960  21.9739723  54.2064362  40.8955498  21.8245850
  55.1115570  41.9633827  21.2488480  68.1550217  55.8737106  44.1366959
  68.9637985  55.4365807  43.8701706  67.7603683  55.2790680  44.7745667
  69.9688263  29.9491711  82.4131165  70.4615707  29.2028332  82.0719147
  69.6877747  30.4274254  81.6330414  51.5590858  38.9787788  67.8715286
  51.4896240  39.8641548  67.5144424  51.0503502  38.4367256  67.2685394
  68.9777679  54.9428482  17.7070274  69.3925781  54.4874992  16.9743443
  69.5720520  54.8018188  18.4440308  59.8887672  36.6466675  60.8568230
  59.1996193  36.4449501  60.2238846  59.4365234  36.6837349  61.6996384
  28.1957054  46.9659843  36.8819733  28.2558098  46.0150871  36.9737129
  28.7764492  47.3093033  37.5610199  81.3810425  46.2165718  11.9702625
  80.8158035  46.4657936  12.7014437  80.9257660  46.5421867  11.1937771
   2.8426585  11.4210358  52.4951935   2.6907682  12.2120953  51.9780998
   2.0908000  10.8608665  52.3024483  26.5683575  15.4690275  84.5802994
  26.4569530  16.2212467  83.9989319  26.6901379  14.7257452  83.9896011
  85.4157028  11.0124359  64.5032883  85.9843140  11.1771975  65.2554626
  84.8982391  10.2482004  64.7570724  31.6503925  59.2224045  12.4325857
  32.5208244  58.8852997  12.6445780  31.6224308  59.2286110  11.4758148
  16.6929493  24.3772278  23.2168007  16.7165661  25.1827240  22.7002239
  16.0382767  24.5463142  23.8943310  70.3026581  45.1837044  60.1996880
  70.7317505  45.5084915  59.4080887  69.5738678  44.6537476  59.8768196
  72.1325073  48.7994537  41.2687492  72.7672501  49.3249664  40.7817459
  71.8841248  49.3508110  42.0107346  81.5580139  41.4376450   5.6919713
  81.6940155  41.9413795   6.4944587  80.7886353  41.8369827   5.2860022
  78.9167709  11.2348595  39.3545952  78.9450912  11.5240755  40.2666168
  78.0244980  11.4308167  39.0687828  17.5676956  29.8169003  68.2962265
  17.6984024  28.8688774  68.2761688  17.1975994  30.0258503  67.4385529
  13.1750364  33.7129593  81.4614410  12.6804857  33.2080307  80.8159180
  13.1354599  33.1856956  82.2593460  11.5884581  11.8340950  17.7119427
  10.7174616  11.8410835  18.1088676  11.4302330  11.6275587  16.7907810
  46.1492043  -0.1778378  10.0502186  45.9451790   0.6261628  10.5279093
  47.0529327  -0.0598394   9.7576685  58.6331062   6.6574068   9.1990671
  59.2141876   6.2214117   8.5757837  58.6221542   7.5720096   8.9169083
  43.6372299  34.3798027  74.9984055  43.0216751  35.0540237  75.2860641
  43.3926735  34.2041512  74.0897980  53.9791069  24.1309242  30.6871319
  54.8694305  23.8371258  30.4941559  53.6578140  23.5088749  31.3398609
   9.6380663   9.9609222  27.1461048   9.6410646  10.8013411  27.6042728
   9.6296425   9.3070717  27.8451328  83.4790649  29.2034931  -0.1372187
  82.9355164  28.4299412  -0.2868947  83.2272873  29.5080948   0.7345945
  70.9620438  26.3114376  53.7757988  71.3264084  27.1962090  53.8012466
  71.6014099  25.7755184  54.2450943  51.5086060  15.9217358  28.8194828
  50.7757263  16.4583073  29.1214962  51.5926857  16.1326942  27.8896122
  35.3496246  26.6187840  68.9343033  35.5512161  27.4355888  69.3908386
  34.6510811  26.2203465  69.4534454  48.3244514  54.8016357  36.6247520
  47.6863708  54.4144478  36.0254440  47.9123344  54.7391815  37.4864273
  67.0877762  28.3280163  22.3629456  67.3944473  27.4240170  22.2924442
  66.5545197  28.3387356  23.1577740  78.5075836  39.6046066  57.6244812
  78.3701324  40.5173759  57.8778419  79.4531326  39.5318985  57.4945297
   8.8900948  55.0618477  77.6622772   7.9777403  55.1889305  77.4021072
   9.3854551  55.6525688  77.0949173  84.6033478  23.3971443  54.7458725
  84.1473312  23.2680836  55.5775108  85.4993973  23.6219769  54.9964333
  40.7938957  15.1636629  86.5505142  40.6957550  14.5270348  87.2585449
  40.8629341  14.6315613  85.7578430   0.8654063  19.3976631   8.4679356
   0.8172578  19.6259422   7.5396023   1.1821705  18.4944344   8.4763613
  85.5601349  35.6659126  55.7698479  86.3676605  35.6066933  56.2803688
  84.9236679  35.1531219  56.2680283  80.3180313  43.5517349  58.8983650
  80.4877396  44.1646729  59.6137238  81.0083313  43.7314949  58.2600861
   0.6752955  21.5647202  20.5974636   1.3888597  22.2012405  20.6410484
   0.9971992  20.8841515  20.0063324  65.5189438  11.7416439  51.5841064
  65.4278564  12.1877346  50.7421227  64.7330246  11.9878798  52.0718803
  79.5822296  51.2869835  50.0814400  80.3405075  51.8497162  50.2382164
  79.9484940  50.4053574  50.0120735  51.5074463  47.1846428  56.5604630
  52.1210060  46.7647820  55.9575577  51.7552032  46.8532715  57.4236221
  52.4132843  57.8947144  28.0772800  51.8841171  57.3653450  28.6739254
  52.7168541  57.2758217  27.4131660  51.9837494  65.8362579  33.5278168
  51.1236877  65.7199860  33.9315567  52.0096550  66.7608490  33.2814407
  72.3539581  42.2195930  53.0033188  72.4525604  41.3514252  52.6124268
  71.4251404  42.2773170  53.2273369  47.3793945  19.4640408  38.0691071
  48.3172035  19.5063915  38.2560616  47.2349701  20.1457481  37.4128685
  30.3531857  70.7793579  88.8198929  30.9791698  71.4850769  88.9821777
  30.8575954  69.9766693  88.9521332  82.6579895  47.2710648  38.1685715
  82.2654190  47.0041428  38.9997597  83.5542450  46.9374123  38.2089081
  61.2883606  52.9481850  85.1361008  61.0478668  53.0390358  86.0581284
  61.5342026  53.8324928  84.8644409  55.7708817   1.4510683  39.0616493
  54.9880791   1.6612681  38.5524673  56.4001579   2.1327209  38.8258629
  43.4592514  20.3153896  15.6827812  42.6624184  19.7857304  15.6553335
  44.0986061  19.8125191  15.1782255   0.5853579   5.4920120  82.6047668
   0.5407827   6.4457898  82.5372925   1.5126065   5.2865396  82.4855042
  29.1138840  10.6738453  84.4592438  29.9597569  10.9587355  84.8050308
  29.1892204   9.7216845  84.3964157  51.9719772  23.4988003  69.9893417
  51.1506729  23.0223045  69.8683167  52.6453857  22.8185463  69.9920502
  60.1553574  51.4628487   3.5844655  59.6478920  52.1639977   3.1756895
  59.5196152  50.7631378   3.7343647   0.7953876  54.9148369  86.7745438
   0.8924869  55.8444099  86.5679092  -0.0160403  54.6558800  86.3377838
  85.0581818   2.2718349  18.1049557  85.0558319   2.5074987  17.1772232
  85.9684982   2.3847558  18.3784523  72.2444229  37.9389687  40.3860359
  72.8804474  37.6098328  39.7509232  72.2874603  37.3170662  41.1124077
  45.1455956  48.6413155  56.2060318  44.5042725  48.8945961  55.5421143
  45.8922462  48.3132210  55.7049370  12.3203239  24.5738335  12.4806099
  12.3814726  25.2216625  11.7786064  12.1938190  25.0926819  13.2749805
  83.0041733  46.7611237  75.5383911  83.8141403  46.2661743  75.6617203
  83.1920700  47.3496208  74.8072281  27.0718117  32.3535309   1.9730406
  27.3117867  32.1319466   2.8727872  27.8895206  32.2772217   1.4813473
  14.4139462  36.6030464  73.2296753  13.4668560  36.4705658  73.2709122
  14.5754986  36.8999138  72.3341293  51.1665268  27.3965893  75.1523209
  51.3842697  27.2817917  74.2273178  50.2458878  27.1421795  75.2150269
  51.6367989  32.1702843  67.4718323  51.9142494  31.8401775  66.6172714
  50.7424507  31.8452244  67.5753098  41.8650703  60.6064377  55.7547340
  42.1969223  59.7167206  55.8751984  41.5988388  60.6404076  54.8359299
  80.5916443  32.7423553  14.4670277  80.9927139  32.0113869  13.9968576
  80.9286880  32.6667328  15.3597260  49.4029541   7.1459417  18.9846573
  49.5280495   6.5418015  18.2528133  49.1095047   6.5901246  19.7065907
  42.2993698  65.1114883  54.8200073  41.5260468  65.6683350  54.9101753
  42.7340355  65.1656036  55.6711044  32.6391640  58.1400375  38.6959686
  32.6198845  57.3182945  39.1864777  33.0072021  57.9023857  37.8449097
  74.8113937  38.9810066  55.2237968  74.8952484  39.8852806  54.9213219
  75.2972488  38.9581871  56.0482101  79.5143509  43.9229164   9.8603315
  78.8450928  43.4511757   9.3645649  79.1460190  44.0072021  10.7397966
  58.0784302  10.3849468  43.6143417  57.2166862  10.7901077  43.5170097
  58.3827744  10.2507858  42.7167854  77.3530273   8.2802839  58.2105865
  76.7441559   7.6298528  57.8606644  78.1892319   7.8182220  58.2696190
  63.8549194  60.1411057  50.3392220  63.3083649  59.9482269  49.5774460
  64.5455475  59.4788780  50.3123474  56.6943550  69.5622635  40.7513885
  56.7959709  70.4696121  41.0388451  56.3420486  69.1068039  41.5160217
  61.3982620  65.7205124  85.2639847  61.8292885  65.6435089  84.4127960
  60.9825745  66.5825272  85.2448502  29.7110767  53.0198708  29.3543644
  29.7262192  52.3223190  28.6990604  29.8094807  53.8262596  28.8481159
  14.6392937  20.2863369  86.9403229  14.3973026  19.5441399  86.3864136
  14.5020790  21.0541077  86.3854141  20.3544502  59.1929359  68.5243301
  20.8172340  59.1598396  69.3615646  20.8233757  58.5720863  67.9667587
  33.4300156   1.9652600  67.7122116  33.3576431   1.1544964  68.2158508
  33.3141479   2.6606143  68.3597336  15.6254673  26.2361164  85.5956345
  15.0355043  25.7937489  84.9853210  16.1526108  25.5315552  85.9723892
  60.9063492  58.5086441   2.2432928  61.3718796  59.3324432   2.0988505
  60.3340874  58.4200935   1.4811192  38.5208435   9.4472351  48.2525444
  38.9449196   8.9146309  47.5796967  38.0979042  10.1550703  47.7664108
  83.8464737  61.0810852  42.8895340  84.5761261  60.9173164  43.4870453
  83.2095184  61.5641060  43.4160461   3.8449757  49.8972054  34.6405106
   4.5634985  49.5112114  34.1395454   4.2061520  50.7128067  34.9877510
   1.2661778  69.2095566  62.9229774   1.2566727  70.1198883  62.6272850
   0.5197775  69.1433792  63.5185776  29.7076588  43.6452103  44.2070503
  29.3043098  42.7772408  44.2201691  30.0852432  43.7470818  45.0807152
  49.3017807  51.5310516  84.0910797  49.7322197  52.3848076  84.0457535
  50.0161476  50.8983727  84.0160751  62.3779297   2.3827176  19.6689453
  62.0593948   2.3114970  20.5687771  62.8192635   1.5494164  19.5044384
  50.5322227  35.1647758  18.2500916  51.2434425  34.9724503  18.8611641
  50.1874008  34.3058739  18.0059204  60.1791534  40.7578621  54.6722412
  59.6930237  40.3452110  53.9583626  61.0922852  40.5227432  54.5074844
  82.0002060  52.7240715  81.2112045  81.9564972  53.5629539  80.7522888
  81.2343903  52.7250252  81.7854538   2.5554404  44.8063774  75.5189056
   3.3170002  44.6716042  76.0829086   2.8706279  44.6030922  74.6382446
  85.8733597  55.2310867  80.6522141  86.7839203  55.2726402  80.3600235
  85.7504196  54.3216667  80.9243774  72.5779953   2.4482193  19.4957542
  71.8677750   2.0432138  18.9979725  72.8895645   1.7540768  20.0765514
  18.7307320   3.1082990   7.3326612  18.7030945   4.0647497   7.3585463
  18.8746662   2.8977273   6.4100699  28.9669189  61.3728943  10.6667500
  28.3350639  61.7488327  10.0538387  29.6753464  61.0478745  10.1111221
  51.4878235  16.5705929  66.4990387  51.7596474  15.9708118  67.1937408
  50.5624084  16.7389622  66.6764908  12.5777178  10.1156645  25.7761841
  12.1903458   9.9345474  26.6325569  12.5495853   9.2756681  25.3180943
   3.0969341  56.6739044  77.1196060   2.2386887  56.7795219  77.5300827
   3.3809841  57.5670662  76.9251633  75.7991638  37.1755524   2.9755783
  75.8680038  36.3243942   3.4080367  74.8954086  37.2126923   2.6623971
   5.7764583  33.3449516  24.8121300   5.8821187  33.6162796  25.7239666
   5.1358938  33.9585228  24.4523525  18.1736870  64.3656540  34.7551460
  17.6469803  65.1395340  34.5553360  18.5408897  64.1015167  33.9115677
  13.6374359  66.0561066  21.6607971  13.5580482  65.5218735  20.8705235
  14.2878752  66.7213516  21.4358463   0.4642701  20.9316998  27.2184830
   1.3409594  20.7784729  27.5708599   0.5169635  21.7972374  26.8131428
  23.7289238  39.9645500   2.2538159  23.9050770  39.0691795   2.5428064
  23.5688553  39.8855820   1.3134046  60.4029274  29.4383469  65.2322311
  60.1552505  30.1457348  65.8276215  60.9467087  29.8630505  64.5687866
  70.6582489   6.6652226  19.7919788  70.3571472   6.7059979  18.8842850
  71.4684677   6.1570344  19.7529545  35.8480453  16.8889561  76.1052551
  36.0060005  17.1947422  76.9984436  36.6459274  16.4156151  75.8695297
  31.5178242  47.1916504  48.1304398  30.7321949  47.7259903  48.0142670
  31.7977257  47.3693504  49.0283852  83.9038162  34.9811974  46.9411659
  83.3403778  34.7074776  47.6649361  84.3358688  34.1759796  46.6562309
  45.8760948  59.1875076  48.6072617  46.0863724  58.4111557  49.1261978
  45.2958183  58.8647842  47.9177971  83.9108429  55.5933876  70.3361664
  83.5021286  55.6172295  71.2013931  83.7715149  56.4713440  69.9811859
  25.7077332  19.7676888  82.1492310  25.7521095  20.5290356  81.5707703
  25.5310097  19.0316887  81.5633087  82.4659195   9.6553307  47.4701195
  82.0338974   8.8072948  47.5722198  82.3006516   9.9002523  46.5596657
  29.7798290   4.4190426   3.5012887  28.9981232   4.9668446   3.4300177
  30.1896992   4.4730897   2.6379704  49.9433861  58.6732788  10.0984230
  50.4231682  58.5440636   9.2802877  49.0927353  59.0169983   9.8255119
   9.2905045   7.6186900  10.8917694   9.5327263   7.7788906   9.9796858
   9.0194559   8.4754057  11.2216215  80.8549423  32.5535927  10.1888504
  81.6348114  31.9996490  10.1543179  81.1485901  33.3537140  10.6245193
  46.9552956  44.0778046  37.7291031  46.4651642  43.5506592  38.3600731
  46.2989426  44.6538315  37.3371506  82.4150162  34.2171440  28.6180019
  82.1384354  33.4131050  29.0576134  83.0110321  34.6365509  29.2385654
  12.0009518  19.1136894  10.6877766  12.7035160  19.7620010  10.6395292
  11.3681555  19.4912758  11.2987013  21.8965740  70.4328842  74.4099731
  22.4347992  71.0843506  73.9603806  21.2780476  70.1324387  73.7441025
   1.2087305  36.5817566  62.3828850   0.5547494  37.2572746  62.5623856
   0.8713900  36.1197090  61.6154556  50.8337555  31.2255573  55.4652443
  50.0924835  31.1481476  54.8646164  51.0936508  30.3215694  55.6426964
  21.1324863  61.7650719  54.5322151  21.6237221  61.0686073  54.0964890
  21.7791557  62.4536667  54.6867752  40.9855118  26.6599159  85.1949997
  40.1503525  27.1208668  85.2741928  41.5104980  26.9883385  85.9249039
  75.8156967  61.9767303  63.0843201  74.8793945  61.8379135  62.9418564
  76.1682434  62.1468201  62.2108192  27.7162304  68.6760330  43.7976379
  26.9023647  68.9166260  44.2403259  28.2463360  69.4726868  43.8213730
  49.5516510  66.7619324  59.2776337  49.7041321  67.6925735  59.4416122
  50.4077263  66.3529587  59.4045334  33.1559525  40.2315292  68.1854324
  33.8626938  40.2833519  68.8289108  32.8967934  41.1415100  68.0405045
  10.8770218  50.7823067  88.4971237  10.3972549  51.5872192  88.3017578
  11.0518103  50.8297882  89.4370270  33.5989151  10.8643408  70.2318115
  32.6755905  10.9317369  69.9885712  34.0725899  11.1907091  69.4667282
  59.6674004  52.4816322  29.0258579  59.6184769  53.2406883  28.4447594
  58.9766273  51.8967209  28.7145061  50.5219688  43.9504471  21.9139214
  50.6193504  43.6124268  22.8041401  51.4003067  43.8917236  21.5380096
  59.1282845  52.2507591  25.0123520  58.3757019  51.9110641  24.5281429
  58.7490005  52.6497574  25.7954082  13.7965336  57.2651291   8.5028343
  12.9323416  57.2912102   8.0920753  14.3972797  57.5526543   7.8153267
  39.7739754  13.1261806  18.4953251  40.4313889  13.7498989  18.8035774
  40.0449677  12.9144592  17.6020336  78.4187241  60.4417801  64.7028427
  78.4300003  59.7380486  65.3515854  77.6080322  60.3031349  64.2131500
  55.9751053  68.5338745  71.2464828  55.6079712  67.7208176  70.8995132
  55.8801384  68.4537125  72.1955795  21.6822281  52.5576859  83.5814896
  21.6723309  52.9935608  82.7293472  22.3515453  51.8788223  83.4955139
  59.8152313  39.1572533  43.6633377  60.3494644  38.9613037  42.8936424
  59.1840286  39.8085251  43.3572884  71.2606812  68.9617615  74.0227966
  70.4076920  68.6328506  74.3064346  71.6140671  69.4066467  74.7931442
  51.4442596  47.6733246  48.9045219  50.7733421  47.5479050  49.5756187
  51.7340202  48.5780602  49.0216675  31.9101791   4.1838255  68.6921997
  31.2398796   3.5684848  68.9893341  31.9547768   4.8424988  69.3853073
   2.1502488  58.2890968  71.1585159   1.7460346  59.1162796  70.8965759
   1.8742744  58.1646309  72.0665741  24.8273602  12.9621420   5.9042134
  25.0036011  12.0257082   5.8133168  25.6386051  13.3867264   5.6252079
   6.8914099  59.7710495  51.8588905   7.6278062  60.1110268  51.3505898
   7.1131320  58.8534775  52.0174255  71.1311874  55.5079384  88.3610687
  71.4545746  54.6232262  88.5311661  71.7012863  56.0752487  88.8800888
  26.5359592   7.5793333   5.8317752  26.0957718   7.9682236   6.5875740
  26.4523087   6.6352201   5.9655066  60.6206894  11.3555470  20.5093880
  59.9917946  11.1165533  19.8285027  60.9978027  10.5218534  20.7904091
  84.0339737  49.9536781  42.5204391  84.7320023  49.3196526  42.6847534
  83.6496277  50.1154175  43.3820343  70.7914124  43.9440041  86.2046204
  70.2969284  43.6931267  85.4243774  71.1824341  44.7881165  85.9792252
  38.5850105  26.6110935  80.8943329  38.4137878  26.4042969  79.9755554
  39.3896980  27.1291809  80.8772888  46.5756187  11.5668077  88.5611496
  46.0318184  11.4530878  89.3406219  45.9635582  11.4916220  87.8290558
  21.1273556  59.9259834  44.9438553  21.4339466  59.2695122  45.5693779
  20.7053032  59.4179459  44.2510338  19.2368126  39.6158218  19.6154728
  20.1466122  39.7733002  19.8678532  19.0119152  38.7857513  20.0357590
  11.2350836  44.6748123  57.7834778  11.5435934  43.9477158  58.3242073
  10.5698605  44.2856750  57.2157784  48.1017799  59.3635559  38.3479004
  47.3785248  59.3705139  38.9748688  48.6623001  60.0899086  38.6207771
  77.0100784  44.8036118  69.6006851  77.7421646  44.7816963  70.2169647
  76.3771973  45.3993454  70.0016708  78.7236252  56.5154266  75.6426315
  78.1423569  57.2539902  75.4613113  79.4835129  56.6649590  75.0800934
  26.8194389  64.5828934  47.6923523  27.6380539  65.0782852  47.6661186
  26.1454945  65.2214355  47.4593468  19.4939671  71.2931442   4.6434345
  20.3621006  71.6571579   4.4700150  19.6027336  70.7877045   5.4489985
  16.9030018  46.2471123   0.9740370  17.5054798  45.9220695   1.6430643
  17.2140789  47.1315117   0.7809059  52.0082283  71.5058136  65.6427612
  51.1663818  71.2995834  65.2365646  52.3548813  70.6575546  65.9193954
   1.7924811  62.4936752  78.8722382   2.5921316  62.1517181  79.2720566
   2.0632930  62.7759399  77.9986115  86.1464539  54.9029617  15.6882725
  85.3741913  54.4249916  15.3859663  86.3843384  55.4647636  14.9506941
  59.2392883  49.4124222  59.0199776  59.7708015  49.8553009  59.6814766
  59.8184357  48.7425461  58.6565437   4.2491188  15.0025101  70.1430588
   4.1153436  14.4541264  70.9161072   4.5234151  15.8494473  70.4947510
  18.6494732  47.2906609  25.3393116  18.0945530  46.6034622  25.7081661
  18.1615505  47.6110992  24.5807037  12.6229429  56.4684181  36.0719070
  12.0419655  56.0112724  36.6799469  12.0321169  56.8987579  35.4538727
  51.6812325  13.3192024  62.6054916  52.4295273  13.8435478  62.3202744
  51.7189178  13.3482161  63.5615082  41.3788490  26.5717773  21.5192013
  41.2139740  27.5097466  21.6154251  42.0861549  26.5176144  20.8765354
  56.1341324  27.7204266  18.4516735  56.6075592  28.5501709  18.3914814
  56.1577225  27.4981804  19.3824158  22.5946693   0.6212704  77.3740692
  23.0458317   0.0118588  77.9582748  21.7177639   0.2511356  77.2727356
  75.8018646  47.2272034  63.0249901  76.7485275  47.1444244  63.1399536
  75.4468155  46.4047470  63.3622360  44.8686028  70.1141739  77.7594299
  45.0792313  69.1820145  77.7051544  45.6267204  70.5538406  77.3744812
  20.7111855  37.2929916  64.8489151  21.1291313  36.8964043  64.0845413
  19.7881603  37.3661346  64.6062088   1.3252575   6.2759390  24.9500713
   1.2809677   5.5283546  25.5462151   2.2610528   6.4020715  24.7931957
  50.6696320  67.4522324  77.6267700  50.6784325  67.0230255  76.7712326
  50.6531143  68.3878250  77.4252014  53.7690697  47.5789986  63.0169334
  54.5120811  47.1074028  62.6404190  53.7217636  48.3920898  62.5140648
  70.4575272   5.8934021  48.7241592  71.1886139   5.5979795  48.1815071
  70.1529007   6.6954045  48.2996254  25.9346619  56.7787895  54.8823547
  25.3328094  56.5555344  55.5923996  26.4018955  57.5520248  55.1986351
  77.8218384  53.4096298   2.2879636  77.4318848  54.0243340   2.9095013
  78.7008362  53.7540474   2.1299479  59.1382942  63.7607040  37.9722176
  58.2797508  63.9595261  38.3458519  59.3074188  64.4804306  37.3642540
  71.8172913  54.7777328  50.5163879  72.1419830  54.7481041  51.4163475
  72.6075821  54.7727852  49.9763527  76.4866943  28.0645218  20.3394737
  77.0361176  27.9464817  21.1143513  77.0107498  27.7149525  19.6187801
  25.8591442   3.5699024  80.3518372  25.9242153   2.8693397  79.7028275
  25.5234680   3.1381850  81.1374435  57.1223602  18.4615345  12.8981590
  57.3837433  17.8559818  12.2044611  57.1608772  19.3258610  12.4886618
  83.8345871  44.7305679  31.7988911  82.8781891  44.7407646  31.7610302
  84.0803909  45.6508789  31.8929100  36.9986115  18.5575047  73.9911880
  36.6648407  17.7806911  73.5424194  36.3392944  18.7509212  74.6576157
  68.4877319  66.0356827  48.9516068  68.9534988  66.8716965  48.9321594
  67.6615982  66.2319870  49.3934135  37.5999527  68.6058273  29.4211845
  38.3770714  69.1581955  29.3362904  37.6988182  67.9461670  28.7346649
  48.5556335  62.6702881   0.6830688  48.1760941  63.5111351   0.9383304
  48.3729286  62.5995941  -0.2538691  61.5529480  34.3098412  81.3156891
  62.0392494  34.8947105  81.8967896  61.0384026  34.8964806  80.7613220
  75.3097153   3.3390861  84.7354126  75.1845703   4.2795124  84.8625717
  74.6514893   2.9315917  85.2983704  82.5848541   8.1943340  12.1556435
  82.3370895   8.5576162  13.0058613  81.7558441   8.0917139  11.6882582
  21.7770519  65.4909592  84.1569748  20.9592190  65.9717178  84.0294800
  22.3313160  65.7629776  83.4255219  17.9016094  56.7611618  47.5312119
  18.1527863  55.9322510  47.9387016  17.6866169  56.5285454  46.6279373
  42.3919983  61.2522621  72.0169220  43.0374069  60.6190681  71.7026825
  42.8748627  62.0765343  72.0773239  40.2253151   3.7191589  62.7243652
  39.4990196   3.0963321  62.7528610  39.8092422   4.5765438  62.8138466
  25.0708332  48.8989868  34.0375366  25.5706749  49.5239067  34.5627670
  25.7199631  48.2597694  33.7438354  68.1417770  48.1439476  53.7686348
  67.8845520  48.0014763  52.8577156  68.4503174  49.0497665  53.7915154
  32.8275528  48.9608498  82.1249313  32.7617760  48.0217781  82.2982864
  32.2203407  49.3622665  82.7465363  56.6622887  13.9277477  48.3019524
  56.8943291  14.2767944  47.4413948  56.6409569  12.9788799  48.1777420
  30.4189053  38.2556114  89.3549728  30.3997250  39.1667671  89.0622940
  29.6583004  37.8532867  88.9356384   2.4544384   2.1244390  50.0630798
   3.1825435   2.7278790  50.2112503   1.8392915   2.3127069  50.7718658
  10.8408060  47.0943832  55.5780754  10.4146633  47.9509163  55.6093941
  10.5966606  46.6750832  56.4031868  30.7776985  46.0580330  74.1416779
  29.9917774  46.4107475  74.5589905  30.6266499  45.1134911  74.1061707
   9.0998116   3.2295961   9.8647909  10.0183191   3.4888396   9.9380608
   8.9428625   3.1676242   8.9225817  15.6434221   8.8112364  58.3160477
  15.9129162   7.9149213  58.5166092  14.7908726   8.7156801  57.8914795
  46.5178986  39.0536041  57.2469330  46.1594543  38.2323303  56.9103889
  45.8371277  39.7026405  57.0693626   4.8383627  21.5109406  17.6780357
   5.3952045  22.1150913  17.1869526   5.3593578  20.7113590  17.7519646
  21.5821457  16.8798962  13.8049946  22.2713509  16.3335800  14.1828394
  20.8585033  16.8178463  14.4284716  69.6742706  54.7312698   2.8944721
  70.2530594  54.7860489   3.6548886  70.2372589  54.4167557   2.1871154
  82.5772324  35.6909218  15.0708313  83.5089722  35.4716072  15.0699244
  82.1331177  34.8490677  15.1722069  64.4244843  47.2560043  75.1012115
  64.8554306  48.0258026  74.7298279  63.7988052  47.6126442  75.7317429
  65.2982712  57.2094765  79.2449265  64.9719772  57.1130219  78.3502426
  65.5207901  56.3188515  79.5160446  82.1283188  21.1778526  63.0205498
  83.0754089  21.1235218  62.8928337  81.8628845  20.2819862  63.2283974
  44.5216751  38.7749557  88.7417068  43.9369926  39.5202713  88.6042786
  45.3456154  39.0381126  88.3317032  13.0142574  40.3321114  75.7008133
  12.6979208  39.4840088  76.0120697  12.2349367  40.7653427  75.3526764
   7.9470811  69.6954193  11.5689783   7.3772478  70.4104767  11.8521929
   7.7342877  69.5715866  10.6439819  26.6673355  64.3853149  71.6843185
  27.5355034  64.1177292  71.3827972  26.3960438  65.0614700  71.0634766
  48.0051537  45.0203323  47.1257286  47.4663773  44.3783112  46.6633873
  47.6972542  45.8675880  46.8038712  33.5984802  62.1821709  76.9125519
  34.3153572  62.8159904  76.9368515  33.6090698  61.7752647  77.7788925
  66.3158798  44.6979828  10.3712845  67.2160645  44.8046951  10.0638371
  66.3492889  43.9366913  10.9505472   4.6856132  49.2747726  85.5193863
   5.4101505  48.7736130  85.8937073   4.9871783  49.5135307  84.6428680
  68.7737503  47.6287537  63.8549042  67.8907242  47.4874573  63.5135307
  68.6378555  47.9309349  64.7529297  35.3842735  27.0170116  66.2349854
  34.6870041  26.4604053  65.8882370  35.3284416  26.9074707  67.1842575
  66.4370651  66.9709549   5.8252673  66.2316055  67.3965302   6.6576753
  67.0943756  67.5380936   5.4221325  67.2086029  36.7829552  54.9618492
  67.9014053  36.1245461  54.9093094  67.2278824  37.2194061  54.1101608
  12.7893629  28.9507828  68.7020416  12.3229780  28.8140488  67.8774033
  13.2843933  28.1422501  68.8341446  47.5053368  33.7009583  13.3568754
  47.3863983  34.3189011  14.0781479  48.4425583  33.7341118  13.1651640
  73.6272583  32.4046783   7.5679879  74.5566101  32.3310547   7.7850528
  73.3301239  33.1786346   8.0464611  29.2983971  17.5916481   5.1571870
  28.8568382  18.4379711   5.0865173  30.2255154  17.8119984   5.2473397
  45.1834373  55.5059929  42.5679703  45.5974770  54.6587791  42.7323761
  44.2766571  55.2910347  42.3493958  53.6747704  55.0093727  29.5905704
  52.8239861  54.5707474  29.5934639  54.2031898  54.5112114  30.2141399
   3.2596889  50.0535736   7.0717473   3.4001379  50.7406578   6.4202738
   4.1274753  49.6742706   7.2107058  54.7450218   4.4259481  72.8920441
  55.1146393   5.1472797  72.3828278  54.3022079   4.8527894  73.6254959
  79.2873306   0.9366364  22.9996243  78.5695267   1.5618889  22.8993759
  78.8546371   0.0874024  23.0880146  74.7700653  46.7248878  67.1463318
  74.3929138  46.0987968  67.7643890  75.6507797  46.3913879  66.9749908
  20.5374241  31.3223419  67.1550751  20.9745426  31.8827477  66.5139008
  20.9545841  30.4672947  67.0496979  65.1447601  40.9427071  72.2918091
  65.9146729  40.4042969  72.4750595  64.4063110  40.4174919  72.6001358
  70.8541489  63.4996147  87.7459106  70.5176697  62.7374077  87.2746887
  70.1221924  63.7856712  88.2923965  59.0039406  61.0261230  42.3810349
  59.6012955  60.3440781  42.0740852  59.2163544  61.1309128  43.3084679
  51.7332993   2.7973304  10.1824875  52.3702583   2.1786945  10.5399809
  52.1642227   3.6495230  10.2480955   3.4340861  15.8212185   6.9102511
   3.1081953  15.1008053   6.3707771   4.3675852  15.6379004   7.0161076
  16.9825153  33.7378349  76.0337448  17.5305996  33.0856514  75.5972900
  16.8977356  34.4456215  75.3949280   9.8871164  53.1411591  22.3409824
  10.1957808  52.4205132  21.7917767  10.5356855  53.2026291  23.0422745
  56.2876358  25.4617615  67.8105164  57.1138420  25.9350204  67.9087143
  56.5072441  24.5521412  68.0120010  55.7902679   9.4466648  74.6992950
  55.1798592  10.1836948  74.7197647  56.2901154   9.5270205  75.5116577
   4.5098329  51.8363075  26.4336739   3.8077996  52.3195534  26.8693962
   4.6282792  52.2875671  25.5978718  67.6607666  56.7494202  20.9487476
  67.1989746  57.4969978  20.5691319  68.5717773  57.0366859  21.0101585
  41.3198471  58.6467934  18.6693382  41.8662834  59.2786179  19.1367092
  41.0361824  59.1115913  17.8821087  52.3113823  64.9537735  49.7597351
  52.8156662  64.7867661  48.9634705  51.4502754  64.5756226  49.5816193
  77.5998917  45.4386024  11.8121929  76.7972260  44.9753189  11.5727367
  77.3089294  46.3233147  12.0332308  80.6915512  55.3372459   3.9483218
  81.5483170  55.0717812   4.2825494  80.7040863  55.0804596   3.0262940
  35.5817146  50.0966682   8.4535389  35.0382919  50.7477531   8.0096788
  35.5416374  49.3255005   7.8879185  86.6775894  38.5311127  55.1515007
  85.7463226  38.5675926  55.3697739  86.8061523  37.6514549  54.7966728
  32.9168167  17.8507233  71.0837250  32.0915031  17.8925228  70.6006699
  32.6708527  17.5278797  71.9506226  39.6047516  36.9167175  12.7350616
  39.4663849  37.2102814  11.8345566  40.5329018  37.0818710  12.9008770
  22.5318584  40.2987709  56.8731155  23.3391247  40.6068878  57.2849655
  22.6664772  40.4520607  55.9379082  48.2114792  30.1325531  21.5768414
  48.6297760  29.3002396  21.7971020  47.9953041  30.0534821  20.6477299
  42.0019951  37.1262970  81.0198212  42.7143707  37.3468628  80.4197311
  42.1478043  37.6876602  81.7812958   4.0618973   4.0074406   5.1878195
   4.2474031   4.1133785   6.1208773   3.5794733   3.1826093   5.1316738
  74.3113098  43.3979340  76.6408386  73.6769180  43.1854553  75.9562683
  74.3202820  42.6261520  77.2069702   4.9036803  67.3611679  18.5327148
   4.6462440  66.6846237  17.9064236   5.1333313  66.8779144  19.3264122
   9.5031033  22.0790138  68.0728226   8.6231747  22.2247524  67.7253799
   9.6469278  22.8092556  68.6747284   1.2516209  53.0366287  58.4978638
   1.3522315  53.7687912  59.1061783   0.6442543  52.4416466  58.9375610
  25.1312485   2.3067582   4.7006454  26.0454159   2.1504836   4.9375114
  24.7093735   2.5534327   5.5236926  81.1893845  69.2627716  77.2032394
  81.6786194  68.5795593  77.6616211  81.6185760  69.3336105  76.3505936
  53.2343254  22.3049774  20.4470596  53.0962868  22.3875809  19.5034733
  52.5474052  22.8450642  20.8377991  46.2129440  67.6474762  77.9734879
  46.8936539  67.5084534  78.6319275  46.6624870  68.0910645  77.2542038
  23.0437679  57.5269585  59.3443680  23.6153202  57.9506226  59.9847336
  23.1871300  56.5900726  59.4782372  43.0034294  47.3776741  59.6144066
  43.1998749  46.4656830  59.8286858  42.1033249  47.5055389  59.9138985
  48.6592941  47.6866264  68.8629837  49.5152664  47.9412727  69.2075043
  48.6315384  46.7357559  68.9693069  10.1010017  20.4638710  79.7846603
  10.3713140  20.6784286  80.6774750   9.2637930  20.0119572  79.8899536
  43.9714432  31.9900379  25.4701843  43.5396996  32.1659813  26.3061714
  43.8132057  31.0596924  25.3100281  59.0441704  56.7320862  49.0919495
  59.6409492  56.7308693  49.8403358  58.1890373  56.5218773  49.4671707
  63.0721321  53.1534729  14.4734545  63.3044739  52.7744217  13.6257687
  63.9010887  53.2014771  14.9496498  26.8921547  34.3015099  67.4912033
  27.4670620  34.0213928  66.7789917  26.1234341  33.7362862  67.4148788
  30.6818066  64.5875702  10.6238155  30.0434875  65.1609039  11.0481653
  30.5591927  64.7441864   9.6875105  64.8927612  20.9908791  88.1268692
  64.1545715  21.2596321  87.5799866  64.5261154  20.3331013  88.7177429
  72.6560059   3.7165058  56.5013885  72.7099075   3.9919622  55.5862656
  72.0036850   3.0160005  56.5026360  81.3669968  30.4104710  41.2267151
  81.0251999  31.1331177  41.7532043  80.7115707  30.2828865  40.5408783
  70.2512512  16.1160927  15.9501057  69.8416061  16.9273472  16.2505913
  70.5752563  16.3218861  15.0732374  54.9440536   1.8233299   3.8910143
  54.4923706   1.2192395   3.3017037  55.2580299   1.2702289   4.6063676
  57.4317818  57.5996017  87.8915100  56.6033707  57.1976776  88.1530914
  57.2036476  58.1551018  87.1461182  58.1608124  53.4986229  48.4202271
  57.6119194  54.0781021  48.9485817  58.7326813  53.0663414  49.0545235
  22.6481495  47.3562965   2.8147614  22.3162403  48.0763283   3.3510633
  23.5991135  47.4027405   2.9134557  73.5101395  50.3335838  39.0954475
  72.8222656  50.8672333  38.6975975  74.2751389  50.9083862  39.1200294
   8.2178011  66.6229858   2.7517490   8.8847170  65.9971085   2.4693747
   7.5057583  66.5150299   2.1212156  84.3430481  52.9092789  74.7898712
  85.1417999  53.4365463  74.7754135  83.7613525  53.3722000  75.3928299
  70.3003922  60.7522354  41.5115318  71.2379227  60.9275475  41.4307137
  70.1661453  59.9384918  41.0256958  21.4327145  54.2043114  44.1970558
  22.2270470  53.8925667  43.7633705  21.5423260  55.1540680  44.2437401
  69.5062637  37.3364944  76.1732559  68.6454773  37.6020164  76.4969635
  69.5142593  37.6152916  75.2575912  41.8149834   8.7718925   2.3709683
  42.2074471   8.7427921   3.2435272  41.3667221   7.9308581   2.2817955
  24.6442623  26.9192905  86.8798218  25.1274872  27.7446594  86.9184494
  25.3046188  26.2656746  86.6497269  28.3604050  55.5210228   5.4045691
  28.6306648  54.7934074   4.8444204  28.7437916  56.2954559   4.9928651
  78.3388824  66.0323257  68.7909164  77.5119476  65.8501663  68.3445663
  78.4615555  66.9764557  68.6919785  53.6462898  65.6257858   2.9613626
  52.9637184  64.9548798   2.9758995  53.1834030  66.4424896   3.1483421
  75.2247086  66.4966736  83.7320633  75.9313583  66.0015640  83.3176422
  75.6699371  67.0837326  84.3431015  56.7483139  63.8651047  49.6382599
  56.9855995  63.5378609  50.5059204  55.9804764  63.3503571  49.3898773
  58.9240303  39.8264160  52.5275116  59.0901642  39.6338806  51.6047096
  57.9870758  39.6665535  52.6406174  80.6875992  29.9814930  86.8815536
  79.9056473  30.1284237  87.4137115  80.5950546  29.0837402  86.5626373
  18.2406330  44.5122719   2.4904118  17.8699570  43.8044777   1.9632931
  19.1412296  44.2369423   2.6617377  32.6823502  66.2488556  71.6587830
  32.4703178  65.8171082  72.4863510  33.2039146  67.0102768  71.9126282
  20.1285686  61.3715134  15.5379915  20.2435951  61.1991539  14.6034908
  20.4666615  62.2584801  15.6613417  77.3492584  17.2138882  70.3120270
  76.6378937  17.0344315  69.6972198  77.5717773  16.3576031  70.6773987
  62.1394463  42.1184044  24.3378201  62.8953972  41.8209534  23.8315639
  62.4798927  42.8287125  24.8816872  42.0526352  58.7083931   5.9856110
  41.5554161  59.3525696   6.4896336  42.9652863  58.9795227   6.0845585
  35.9859314  39.7491760  34.6990776  35.9836731  40.7001991  34.8076324
  35.8483849  39.4069557  35.5823631  73.4744492  60.4724960  74.9824371
  72.9207153  60.6940842  75.7311096  74.3664627  60.6406479  75.2862091
  50.0452309  48.7165108  28.9877090  50.1648827  47.8752823  29.4284439
  50.7131310  49.2849350  29.3711567  53.2373810  68.7187042  37.3064995
  52.5163345  69.3137360  37.1009369  53.9104729  69.2813339  37.6894226
  32.8448372   0.7190875  59.8069420  31.9163208   0.6505493  60.0291824
  32.9183884   1.5509802  59.3392067  64.4496460  34.1939011  75.7138062
  63.8179359  33.7795601  76.3015900  64.0853653  35.0627861  75.5447540
  34.1668205  23.2548580  68.0918198  34.1434784  23.8347874  68.8529816
  35.0276642  22.8384666  68.1342621  65.0504227  22.5132389  82.2331619
  65.1098099  23.3411369  81.7564163  65.8891220  22.0819206  82.0695114
  27.8872986  64.9565201  32.5976028  28.1016998  64.1891098  33.1280251
  26.9926453  64.7973862  32.2967682   4.5610547  55.3407173  78.9261398
   4.1170764  55.9485855  78.3348541   4.8802586  54.6416397  78.3554993
  72.3844223  10.4332209  50.7654228  72.6761932  10.6801310  49.8878479
  71.7469177   9.7345591  50.6181374  66.0856400  35.4243317  32.3564453
  65.4956970  35.3372536  33.1051865  66.6507111  36.1634560  32.5814400
  13.2801676  38.5992088  63.0505295  12.9427767  37.8529663  62.5550232
  12.8357677  38.5455475  63.8966141  36.6684570  26.1728783  72.0024490
  36.4089279  26.4735947  72.8733368  37.6252327  26.1610374  72.0284119
  74.7057266  45.5691833  87.4660568  75.4328308  44.9762115  87.2764816
  74.1127167  45.0538445  88.0128632  39.9637337  55.9204750  87.5959320
  39.9573059  55.1756554  86.9947357  39.3118935  55.6975098  88.2604752
  42.8904915  66.8998947  44.1453934  42.1094742  66.4680405  44.4914360
  43.0429153  66.4776764  43.2999763  13.7812977  63.3275566  27.2296295
  14.3586607  63.9304161  27.6980762  12.9596052  63.3532219  27.7199306
   9.9059286  65.4481125  63.4449196  10.8072338  65.7271500  63.2836227
   9.9874077  64.5519409  63.7712097  26.1857910  56.5955544  18.0157185
  26.0604916  55.8607178  17.4152584  25.6916237  57.3141632  17.6212196
  43.7617378  40.9470520  70.7865982  43.7125702  41.8958092  70.6696396
  43.0343399  40.7400475  71.3733444   8.1020565  57.8211975  11.7551146
   7.7412682  57.6206360  12.6187344   8.3845129  56.9738808  11.4108725
  79.7899094   4.4532251  59.6519699  80.5791473   4.0024066  59.3518028
  79.0733185   3.8637297  59.4169617  31.5045452  46.4983788  21.4869118
  31.9392738  46.2930069  22.3145981  32.1812859  46.9232292  20.9598904
  31.5212555  29.6251431  77.9841766  31.4845409  30.5491638  77.7370529
  31.1023407  29.1657429  77.2563705  41.0864677   9.0656767  71.5219879
  40.9985580   8.2894430  70.9688416  40.7380257   8.7951450  72.3714752
  38.7974930  53.1384315  82.4874268  39.4247360  52.4990997  82.1497116
  39.3128395  53.9347649  82.6158981  57.7707558  14.4693346  62.7030640
  57.9877777  15.2257452  63.2480202  58.5565491  14.3194962  62.1774139
  41.3430481  71.1750031  50.8919182  41.8929787  71.9209442  51.1314545
  41.9624023  70.4642258  50.7263260  36.9053612  60.4955330  52.8505440
  37.3861008  59.7753181  53.2584839  36.0383224  60.4641380  53.2548790
  31.1149998  29.6210537  69.7049026  30.5665550  30.3563766  69.4315186
  31.2405758  29.1064987  68.9076004  69.7947693  37.3089561  65.0542984
  69.3645554  36.5156593  64.7352066  69.0842514  37.8366013  65.4189606
   8.3898411  33.9070969   3.8777671   7.8298440  33.8450813   3.1039526
   8.0165300  33.2775536   4.4946527  13.0374060  43.2666550  35.6759567
  12.1588116  43.6456871  35.7011833  12.9248266  42.4309959  35.2229309
  82.9378204  24.0024185  45.6037254  83.1864777  24.6238003  44.9194107
  83.1709824  24.4411697  46.4218712  48.2426224  24.0244312  82.2695236
  47.6034431  24.5080547  82.7927704  49.0829353  24.4301186  82.4828949
   6.4459352  32.7503586  57.5344772   5.8300657  32.5064163  58.2254410
   7.1753373  32.1390495  57.6369934  38.2201805  70.0758743   1.9480141
  39.0438957  70.5388031   1.7949711  37.7153015  70.6644974   2.5091331
  82.7990875  63.9981117  25.7002659  81.9438553  64.4032593  25.5565395
  82.8569183  63.3167152  25.0305004  44.7511444  45.8557472  79.3254471
  44.9861183  46.6541710  78.8526535  44.3009567  45.3162079  78.6754761
  56.5778046  31.1099033  39.2907257  57.1859512  31.5751381  38.7163162
  56.9845467  30.2542782  39.4274788  34.0214348  48.6806679  49.4765587
  33.7275810  49.5371094  49.1660957  33.3587799  48.4170609  50.1150246
  76.6189651  35.9616737  72.4580307  77.1852798  35.1968880  72.3550034
  76.0769882  35.7574539  73.2201233  56.1886482  40.4160233  29.1915226
  55.9341393  40.2164154  30.0924206  56.5491409  41.3016739  29.2351131
  45.9948082  53.7785110  59.7177734  46.1716537  52.8378754  59.7049370
  46.4513474  54.1185722  58.9482536  42.1928978  52.6083069   2.0923672
  42.7302551  53.3984795   2.1481388  41.4984436  52.8341103   1.4735152
  53.7932625  16.9158955  51.7208595  53.4501038  17.6651173  51.2338867
  53.5481071  16.1552181  51.1940765   1.3269362  36.8638458  67.8246078
   1.8154954  37.3949089  68.4535065   1.4046246  37.3398285  66.9977798
  12.9711151  59.2550735  39.5204964  12.7602348  59.6304245  38.6655846
  13.9275341  59.2660675  39.5575714  71.8576584  16.2951603  33.8495445
  72.7060776  16.6255493  33.5541496  71.9693451  16.1551495  34.7898407
  50.5613937  34.5705757  58.6884575  51.1307945  33.8083267  58.5836258
  50.4795685  34.9316216  57.8057442  79.7331238  63.2395668  65.5215149
  79.3998489  63.1108170  66.4095383  79.6129913  62.3909912  65.0952301
   6.2520704  15.5710115  10.7055187   6.7881055  15.4204817  11.4841318
   5.9268346  14.7028913  10.4671459  84.5335388  44.1123123  21.2926731
  84.1528015  44.1325417  20.4146862  83.7788010  44.1221504  21.8813152
   2.5695806  52.1940269  70.2129898   2.0562649  51.4395866  70.5020523
   2.0241184  52.6142807  69.5480881  19.3439636   4.6773071  55.0112686
  20.0768661   4.7860036  55.6172981  18.5644760   4.7815762  55.5569420
  68.7780533  15.6429386  50.4239159  67.9357529  15.7245722  49.9766006
  69.4284363  15.8171959  49.7435684  19.2172546   4.7026567  22.1919861
  18.2673340   4.6004891  22.2506599  19.3412418   5.4862905  21.6564713
  52.9484367  35.1017113  22.9022198  53.5247498  34.3614273  23.0921516
  53.0747566  35.6989136  23.6395302  53.1378632  36.0880013  70.0119934
  52.4349251  36.6316261  70.3677750  52.7550240  35.6792908  69.2357025
  31.9352036  20.3232479  87.0100861  31.6770325  20.5283184  86.1114655
  32.2986069  21.1419239  87.3476334  46.5266037  64.3848648   2.4650881
  46.2128906  64.9316635   1.7447926  47.3537483  64.7878342   2.7290394
   5.1835628  67.5789261  72.8177338   4.5415053  67.1347656  72.2639160
   6.0315442  67.3061600  72.4673691  17.8330154  25.4808903  32.9851799
  18.7199535  25.8230343  32.8733368  17.5753822  25.1924572  32.1095886
  37.6171532  26.9886112   4.8131328  37.2507973  27.6393795   5.4118929
  37.6342010  27.4281292   3.9629769  71.8702011   8.3891935  14.5216064
  71.8683548   7.7021108  13.8551645  72.7930222   8.6225691  14.6224537
  75.5485840  15.8057356  28.7136936  75.8087997  15.5498781  27.8287888
  76.2884140  16.3162594  29.0427151  52.7618904  50.7463646  73.0617447
  52.9524498  51.1760521  72.2279053  52.5127449  51.4608765  73.6479492
  63.4734917  14.4090605  86.5263367  62.5500984  14.2151384  86.3651657
  63.7554436  13.7348919  87.1445847  85.4717560  48.1650887  23.8874016
  85.8158569  47.6436539  23.1621876  84.5237503  48.1632156  23.7550659
  44.7063560  27.9209614  72.1340561  45.4942589  28.0479851  72.6625519
  44.8340645  27.0702229  71.7143326  70.3469086  70.5758667  16.3705616
  70.3408356  71.2172699  17.0810566  70.0222626  71.0578842  15.6099710
  47.1286316  42.0345688   9.1773195  47.0346489  41.1105728   8.9457378
  46.2429962  42.3149109   9.4081678   0.8381088  49.7463493  83.8717804
   1.3683023  49.6997757  84.6673660   0.1717959  49.0690384  83.9880066
  36.7463036  19.5935402  23.1401825  36.6881676  18.7944660  22.6164150
  37.1973305  20.2192059  22.5733051  29.6000919   0.8626600  79.3026276
  29.8793335   0.4583836  78.4811554  29.6241665   1.8032972  79.1269760
  36.0114479  48.8246765  25.8551083  35.7793159  47.8964043  25.8807449
  35.1714554  49.2825699  25.8863792  47.5443268  20.7805424  79.8369751
  46.9156723  20.2635174  79.3332748  48.3984451  20.4258327  79.5902176
   9.7412958  56.8890877  75.7585983   9.0258713  57.0791626  75.1517410
   9.6783400  57.5733833  76.4249344  70.5446243  43.6565590  11.6577196
  71.3634186  43.5700302  12.1458931  69.9069138  43.9479942  12.3093529
  19.6787682  55.5334511  22.7415333  20.0812397  55.1042824  23.4965553
  20.1629753  56.3535995  22.6459637   0.4560120   6.9277706  67.8459930
  -0.0235379   6.3429737  67.2592392  -0.0391473   7.7466831  67.8252258
  45.8729286  43.0318069  71.1364288  45.6415787  42.7351151  70.2562637
  46.4807777  42.3674583  71.4610748  57.1852837  70.3778992  63.1990814
  57.2533760  71.0338669  63.8928375  56.8963280  70.8706818  62.4310341
  27.3026676  71.5961456  59.2579269  26.6116219  72.1493759  58.8937645
  26.9545994  70.7065811  59.1965714  72.8886490  58.0438004  24.4798489
  73.4353561  57.8140259  25.2312145  73.2800064  58.8465919  24.1354675
  31.9882202  25.4416904  69.1969986  31.1043911  25.8002338  69.2777557
  31.8954144  24.5195713  69.4364014  59.5448380  25.3836575  81.9633331
  59.2817726  25.6526890  81.0831909  60.3212433  24.8409519  81.8258667
  47.9132957  14.6958971  14.3614511  47.6132202  14.2139540  15.1321125
  48.8627586  14.7523508  14.4689674  17.5681019  42.7787552  44.8687973
  17.0738277  42.2780342  44.2197952  18.2011814  43.2790718  44.3538895
  24.7349396   9.8899479  77.2753296  25.2108173   9.4933958  78.0050659
  25.1909199  10.7156620  77.1125107  53.8135262  41.7771683  73.1472015
  53.0186844  42.3079414  73.0949326  54.3289566  42.0420799  72.3853760
  23.0532436  33.1634483  78.0353241  22.3104897  32.8461494  78.5490036
  22.8166924  34.0609665  77.8013611  22.4484596  48.2774506  36.7060356
  22.3596325  48.8506508  35.9445992  22.3225899  48.8565369  37.4577332
   8.6770649  55.7541084  84.9477768   7.7796025  55.4417839  85.0628662
   8.8095655  56.3722534  85.6665039  49.6277504   0.5336416  81.5259781
  48.8195496   0.7514638  81.9903030  49.5525169  -0.4023728  81.3403702
  62.3477821   4.8959537  15.8232679  61.7035637   4.4099455  16.3380585
  63.1394920   4.8880258  16.3611965  12.9692535  27.0611382   7.9046273
  12.4579515  26.2762051   7.7079492  13.2678385  27.3727951   7.0502572
  86.6055069  12.9597483  81.6370239  86.6038895  12.2700920  82.3008041
  86.0613174  13.6529751  82.0105591  67.7795181  19.3638515  67.1824036
  68.0171585  18.5400600  66.7568207  67.4341888  19.9081135  66.4747620
  73.9273453  57.7550697  58.9630661  74.8246078  58.0562973  58.8201675
  73.9545975  57.3161316  59.8132591   2.0659709  34.5821495  31.8422432
   2.3023291  33.8314972  32.3871193   1.1670183  34.7896538  32.0973091
  10.8961611  41.4774475  74.5073013  10.8808413  41.2003517  73.5912094
  10.5700226  42.3772240  74.4908524   2.9285941  49.8127632  71.6008148
   3.5622938  50.2220726  72.1899872   2.7698863  48.9493103  71.9822540
  25.8166485  58.1892662   5.2281628  25.4396286  57.8353653   4.4226561
  25.3433857  59.0083275   5.3744326  15.0522146  36.9112778   4.2380214
  15.6540537  36.4106445   4.7888312  14.1981411  36.5051613   4.3858781
  62.5275002  59.0370178  83.8769226  61.9351654  58.3681221  83.5334930
  63.3598213  58.8697128  83.4347916  63.6000214  14.1233644  31.9165649
  63.0014496  14.8686619  31.8668232  64.4035339  14.4331970  31.4987183
  84.0935593   1.5257692   4.6617751  84.3612518   2.4348555   4.5271015
  83.5563812   1.5490743   5.4536881  50.8719864  56.7008286  30.0644684
  50.6707993  55.7682304  30.1420460  51.1505775  56.9596291  30.9428978
  78.9993134  25.7744122   2.7913015  79.1345673  24.9212074   2.3790138
  78.1196289  25.7230225   3.1651280  58.0390015  59.4834251  72.0355911
  58.1975136  60.4151001  72.1875458  58.8793068  59.1447678  71.7266846
   5.5447884  22.4366970  10.6554699   5.5772524  23.3930912  10.6333885
   4.6151261  22.2307987  10.7532740  81.2633362  37.0501518   0.8430890
  81.7246857  37.1700745   1.6731502  80.9207306  37.9186172   0.6318399
  76.8329391  23.0863037   1.5961490  75.8885193  23.1717510   1.4657595
  77.1501541  22.6791859   0.7900093  86.1860733  16.4197407  73.7006683
  86.4688263  16.2060909  72.8114929  86.9988556  16.5954266  74.1747513
  73.9800339  51.8133850  84.9531860  74.2679443  51.5975647  85.8401871
  73.9860229  52.7701683  84.9255829  52.5801392   7.0561204  84.8246918
  52.5556297   6.4714570  85.5821915  53.4709053   7.4064908  84.8212891
   3.2432876  35.9355507  18.0529842   2.4544907  35.6216621  17.6108246
   3.4862947  36.7284966  17.5750580  79.7256165  49.2772484  85.0689240
  80.6434631  49.2112007  84.8054199  79.7524796  49.7028389  85.9258804
  34.7144585  42.9515839  75.4612274  34.7018509  43.3620338  76.3258667
  35.5280037  42.4474258  75.4472656   8.3807230  21.1992455  11.4202557
   8.3784609  20.2911663  11.1175699   7.5320082  21.5456638  11.1447401
  10.5519991  47.0050354  48.4508629  10.9517307  46.1452980  48.3193550
  10.9944782  47.3594551  49.2221184  45.7442017  13.2668743  44.0148582
  46.1536674  13.6501322  43.2391739  45.4644623  12.3960972  43.7325058
  76.0851898  44.1977463   1.9707744  75.9828262  43.7535782   2.8124802
  75.1893692  44.3542137   1.6720212  49.1069183  57.5957298  23.7928886
  50.0421867  57.4320946  23.9142513  48.8079300  57.9183998  24.6430187
  68.0050888  28.4432755  30.8960361  68.2743835  29.1803761  30.3479538
  67.9162292  28.8167114  31.7728939  46.7160149   2.2885568  15.9489450
  46.3879089   1.6643507  15.3016863  47.5442276   1.9120083  16.2464485
  79.6700821  70.7692337  78.9668121  79.0527802  70.1140137  79.2921600
  80.1522141  70.3201294  78.2724838   2.5875602  35.9873695  71.7482681
   2.7927041  35.3215904  71.0918503   1.8286721  35.6375809  72.2151413
  47.0975533  65.7528534   6.7488475  47.3064423  65.4562531   7.6346383
  46.2207947  66.1297226   6.8229761  47.4623337  17.0705738  74.0211716
  47.1623192  16.4228039  73.3835144  47.7391968  16.5523796  74.7768555
  32.7913818  54.3248863  37.8456535  32.1076126  54.3368912  38.5153923
  33.4882965  54.8738861  38.2050171   8.6626682  33.1505280  40.3025284
   8.1886129  33.9174194  40.6240540   7.9837775  32.4902191  40.1634827
  77.3666077  47.4849854  84.9292603  77.0241470  48.0217781  85.6439743
  78.2486496  47.8239670  84.7765350  61.2226028  65.8733444  88.1529617
  61.2831039  66.0607986  87.2162476  61.3319016  64.9244232  88.2148743
  29.0730324  37.9606743  86.0025711  28.5913906  37.2684326  85.5497437
  28.3927269  38.5179825  86.3804932  11.5768642  50.2226906  45.2263031
  12.4578552  49.9193726  45.4455872  11.4995508  50.0727997  44.2840805
  51.5147820  58.5206413  49.2925415  51.7375107  57.6901321  49.7131119
  51.9828949  58.4995537  48.4578819  66.0386276  19.4430084  74.7301407
  65.4985046  20.0383015  74.2104111  65.4370193  18.7503338  75.0030899
  83.2225189  39.0917778  85.8766785  83.9413528  38.4917603  85.6779556
  83.5142212  39.9367218  85.5343170  57.3569832   4.6528325  69.6263733
  56.4307632   4.5392675  69.4131775  57.5726166   3.8943248  70.1689529
  20.2855206  39.5195045  79.6592865  20.7033291  40.2139473  80.1686172
  20.5450630  39.6963921  78.7550888  28.9908371  52.7734795  67.7424469
  28.8252831  52.0957298  68.3977966  28.4286613  53.5025139  68.0045547
  11.8760862  59.6100197  20.6239643  11.7469893  60.1569519  21.3988380
  11.5699949  60.1504631  19.8956375  22.0453777  56.3059998  78.7712097
  22.2818356  57.0689201  78.2436905  21.2796841  56.5885963  79.2712936
   6.8976808  16.6995029   7.5706358   6.9037991  17.4472866   6.9731307
   6.9956918  17.0870552   8.4403639  74.5744553  57.1156921  51.7126236
  74.1101303  57.1739311  52.5476341  74.5082169  56.1933022  51.4655609
  59.3057022  51.8316460  50.3618279  59.7534027  51.7418823  51.2030983
  59.6883774  51.1473961  49.8126526  80.7767563   6.3421307  37.1510391
  80.8955688   5.8519964  36.3374786  80.9894714   7.2461581  36.9192696
  53.6886520  28.7806435  64.3666306  53.8070564  29.0475750  63.4550591
  54.5750427  28.6029739  64.6812363  13.3303041   5.3089752  79.6598816
  12.6362057   5.2673221  79.0020599  12.9758110   4.8354344  80.4124298
  38.0022850  30.3896351  46.5059853  37.4323463  31.1513157  46.6120262
  38.8889771  30.7406292  46.5885315  68.0647507  46.3297386  41.5687256
  67.7365341  45.4430923  41.7182693  69.0101471  46.2209663  41.4656715
  56.7611580  10.4513855  59.5519295  57.1341324  10.4250021  58.6707802
  55.9531593   9.9425287  59.4853325  83.1148987  69.6268082  68.3567352
  82.9254379  70.5476685  68.5365982  82.2921295  69.2749329  68.0169220
  69.3483582  32.8173981  45.8453789  68.5432739  33.0237732  46.3202171
  70.0304260  32.8221512  46.5169373  35.8421593   0.8203256  26.2660866
  35.2209740   1.3578925  26.7573910  35.8314590   1.1888219  25.3827248
  55.0752106  43.9521332   9.1112680  54.9392738  43.0388451   8.8589573
  55.7566566  43.9162903   9.7825193  28.1258392  46.5277634  54.1706581
  27.6260738  46.4558067  54.9838562  27.8658066  45.7603760  53.6610222
  63.6460838  57.2101974  66.8386002  63.8856201  56.7317123  66.0449295
  64.2152863  57.9797630  66.8352966  25.3076153   4.7907076  66.8309021
  26.2068577   4.4726210  66.7507935  25.3766594   5.5665188  67.3873062
  72.1204224  34.3491173   8.7765770  71.1995010  34.0959053   8.8399963
  72.5102997  34.0415268   9.5948782  23.0367107  27.7410393  84.7019577
  23.6917686  28.4047318  84.4859924  23.4194355  27.2556992  85.4328461
  63.3871651   8.7759933  55.0891380  63.3550987   8.5560493  56.0201721
  63.7938499   9.6420622  55.0614967  48.7807999  39.1067810  35.1543198
  48.8542061  39.1825485  34.2029495  47.9286842  38.6946564  35.2967300
  63.2648506  22.6883659  60.2784653  64.1364822  22.5002251  60.6264381
  63.0169716  23.5169907  60.6885490  83.9689636  13.4116135  74.6251297
  83.5398560  12.6148367  74.9369736  84.8627167  13.3499508  74.9622269
  10.1828680  23.0882740  10.1541567  10.8426123  23.0518112  10.8467169
   9.4132671  22.6643486  10.5339384  41.0685997  59.5555801  13.4202852
  40.9590416  60.2460594  14.0740957  40.3030663  58.9926872  13.5358162
  65.4711914  62.9502792   9.3207359  64.9434052  63.5558968   8.8002548
  65.0127640  62.8926697  10.1590424  16.0229855  47.7197685  68.8854523
  15.1744394  47.6664238  68.4457321  16.2969303  46.8084412  68.9887466
  18.7842846  42.0510826  75.6244888  18.2995949  42.2714996  76.4199295
  18.4069862  41.2197762  75.3367233  45.0344353  19.0280056   3.4528623
  45.1769524  18.8781052   2.5182769  45.5700493  19.7946339   3.6568875
  23.4015751  11.3729343  68.5447617  22.5623569  11.4844246  68.0980911
  23.9025555  10.7923861  67.9718704  46.6585693  37.7577477  74.2475128
  46.2701874  38.2995682  73.5606155  46.0783882  37.8728256  75.0000916
  33.9270973  40.8079643  16.5150223  34.1139946  41.6067963  17.0081444
  33.0332909  40.9281082  16.1942348  79.9779739  53.5701408  87.5076675
  80.5190430  54.2759857  87.1537476  79.4939041  53.9767799  88.2263794
  38.5057335  23.1722908  65.0425415  38.9144707  22.7704277  64.2759399
  37.5654716  23.0830708  64.8870392  43.3476143  60.2557068  11.8005209
  42.5598373  60.0899658  12.3183727  43.9668922  60.6380539  12.4222441
  11.7198868  48.6420021  36.4669762  11.4366760  49.2865715  37.1154785
  12.4433718  48.1791039  36.8894997   6.3368311   7.4781709  68.0759277
   5.4858632   7.5900397  68.4996872   6.9732037   7.6019969  68.7801514
  60.1078568   0.5725545  51.3554726  59.8418694   0.8638515  50.4833298
  59.7518311  -0.3127357  51.4312325  46.4442024  34.8076172  67.9472275
  47.3712502  34.5980835  68.0608368  46.0258064  33.9622688  67.7842407
   9.0860424  23.9210968  18.8503609   9.9922247  24.1022243  18.6008434
   8.8726978  24.6018639  19.4885406  86.0729065  41.4905090  45.2422142
  85.9745483  42.1946373  45.8831215  86.3025742  40.7217979  45.7642937
  34.8308372  65.1852112  39.2724304  35.7022438  65.2858276  38.8893394
  34.9689713  64.6287689  40.0389328  37.0161057  51.8687286  59.8935432
  36.4654617  51.1076126  60.0771980  36.6279449  52.2621918  59.1120377
  55.0723190   3.0234792  43.2424469  55.5969162   2.2383921  43.0853882
  55.4922371   3.7018850  42.7136116  14.3471727  60.3198051  88.2148056
  13.6688814  60.2035751  87.5494843  14.5696287  61.2497253  88.1701431
  14.3120995  44.5549164  63.3496628  13.8208561  43.7560120  63.5411377
  15.1158714  44.4705772  63.8625641  62.4706612  59.5432930  59.6707687
  62.1608429  58.9047546  60.3130417  63.2223778  59.1202354  59.2558289
   5.1403036  58.4331436   8.1311588   4.2887149  58.0125885   8.0121555
   5.0226755  59.3158188   7.7800498   8.2752666  50.3176804  27.3007107
   7.9701424  51.1274986  26.8916588   8.8668146  49.9312820  26.6549568
  71.9690704   4.5192261   7.0608439  72.1658478   3.7717984   7.6255217
  72.2945557   4.2603202   6.1987181  74.6558990  42.0208931  54.6764832
  74.4983292  42.1446800  53.7404900  75.3869400  42.6058044  54.8757133
  38.4426575  16.9353752  15.5099974  38.1681328  17.6638355  16.0669632
  39.3363571  16.7413483  15.7926416   2.0998495   3.0318773   7.8243537
   1.8129320   2.6475639   8.6527338   2.7083781   3.7251151   8.0799818
  40.9464874  38.2518044  72.3091354  40.5386353  37.5370750  72.7980576
  41.7062302  37.8504639  71.8872910  48.5330620  51.2276459   7.4810591
  48.2683411  50.9680557   8.3635378  48.0229721  52.0172310   7.3005180
  64.9181442  67.0613098  73.5671921  65.8379364  66.9842758  73.8207092
  64.4841232  67.4130478  74.3444595  39.4262543  37.8208389  34.4253502
  39.8818321  38.5953064  34.0953751  39.5754738  37.1522102  33.7568436
  16.6085434  27.9909420  72.8017120  16.0266533  27.3377972  72.4130707
  16.7055721  28.6591892  72.1232834  86.8407745  25.7656040  22.4206390
  86.8025208  24.8120270  22.3467560  86.7532578  25.9368877  23.3583126
  72.5031509   5.3988280  62.4684219  71.6850204   4.9029980  62.5007210
  73.1889191   4.7330952  62.5209274  80.9747543  30.5732079  25.4822254
  81.3328857  31.4579067  25.5549240  80.9181061  30.4144268  24.5399895
  73.4359283  59.3224144  14.9621105  72.7301712  59.2279091  14.3224201
  73.2082596  58.7105103  15.6620884  20.3983288  23.2541142   4.9147964
  20.4113579  24.1382046   4.5481291  20.1401310  23.3774376   5.8282275
  28.1034622  36.8395157  18.5023689  28.6155033  37.3750076  19.1084156
  28.4099083  35.9456329  18.6549873   3.9569116  10.5251255  22.2846889
   4.3127527  11.0169659  21.5446205   4.6781497   9.9630270  22.5676956
  74.4046631  30.4949436  73.9263077  75.1448288  30.6306419  73.3347168
  74.4340286  29.5615654  74.1364899  49.0146103  24.1468735  76.5405350
  49.0764465  24.9612770  77.0396957  49.6152687  23.5479259  76.9840469
  45.0055771  46.0815315  37.1773033  44.1531105  45.6769943  37.3381729
  44.8766861  47.0053368  37.3922501  83.9191895  47.5896835  13.6049891
  83.4380341  47.3383751  12.8165960  84.3830338  46.7941895  13.8662720
  12.5063553  23.7379665  71.0653076  13.4211750  23.6141987  71.3183212
  12.5386133  23.9020443  70.1228256  38.3772240  63.8932343  79.4178238
  37.8760223  63.2099571  79.8629761  39.2921181  63.6509933  79.5610733
  36.2962112   7.3771687   8.3901577  35.7102585   8.1105986   8.2031469
  36.1992340   6.7949600   7.6365919  14.2760439  62.2185211  20.5830994
  13.4662628  61.8744507  20.9600620  14.9240427  62.1247406  21.2813358
  19.7413445  64.0169144  63.4736900  19.2582550  64.5031967  64.1418076
  19.6583538  63.1005363  63.7375145  41.2505608  43.7753372  87.6863632
  41.4298363  42.8471336  87.8364639  41.2580414  44.1651497  88.5605621
  68.3627396  34.0657806  74.5234299  67.9922791  34.0065689  75.4040451
  68.0766296  34.9201088  74.2001724  46.9890404  66.7626190  73.9830704
  46.1410599  66.6435928  74.4108505  46.8608284  66.4213409  73.0980225
  39.2566795  61.8270721  49.1445351  39.4177170  61.8802032  50.0865936
  38.3083725  61.7208633  49.0692673  23.0395374  65.6674881  22.8618164
  22.6212711  66.4162598  22.4368134  23.4518566  65.1849442  22.1453152
   9.2388268  68.5708237  61.8846321   9.1136904  69.4576797  62.2223549
   8.4539385  68.0968857  62.1595268  34.2079124  49.1632614  58.4610329
  33.9557076  49.8153610  57.8072815  33.6650581  48.4007874  58.2605934
  64.9991608  21.3169537  43.1774712  64.3794022  21.0023956  42.5193024
  65.8240662  21.4153938  42.7019997  66.2625732  28.6920891  41.0236931
  66.5988083  29.5461464  41.2952919  65.9348907  28.2958984  41.8310890
  39.0242119  50.4835129  61.3350639  39.4964409  51.2924080  61.1377831
  38.1445427  50.6286774  60.9867249  45.4844170  32.9846191  16.7230034
  44.5489502  33.1675987  16.6355457  45.5310478  32.2777824  17.3667736
  47.2051430   1.4986714  28.6003952  47.9159050   1.3059211  27.9889221
  47.6367836   1.9175737  29.3450031  56.1212349  15.9370499  33.5008507
  56.3003235  15.7087774  34.4130173  56.5234566  16.7980137  33.3860016
  58.0889130  61.8491325  22.4121380  58.4691353  62.7137222  22.2567444
  58.2016487  61.7032051  23.3514080  83.2665787  59.2722511  75.3810272
  83.5761642  58.7535400  76.1235428  83.6862259  58.8734856  74.6187210
  65.2559967  69.3506470  28.0747452  64.4339905  68.8770447  28.2021885
  65.2224274  69.6483459  27.1656361  80.1416931  70.1567154  60.4881897
  79.4882660  70.8366928  60.6522141  80.9753647  70.5638962  60.7236099
  79.3283005  64.2992859  49.8225899  79.5185318  64.6813354  48.9658012
  79.4194946  63.3557549  49.6896973  45.1961136  65.6202469  31.6461506
  44.5624580  64.9047470  31.5935287  45.2673721  65.9436111  30.7480469
   3.1562080  24.8323231   7.2327952   2.2873414  24.5362492   6.9614239
   3.4421179  24.1807632   7.8730741  57.4713211  13.4890823  68.6886292
  57.2099724  12.8310862  68.0444489  57.7864037  14.2254667  68.1645126
  76.9470062  32.6000481   8.0710688  77.1982193  31.8496418   8.6096001
  77.7460632  32.8342400   7.5989432  54.2431068  70.5699234  80.1616745
  53.5892029  71.2570190  80.0330429  54.1456757  70.0006332  79.3983536
  38.6777916  46.1562080  68.0343323  37.9460144  45.5447235  68.1169205
  39.0890350  45.9264412  67.2010803  54.2860680  66.9079361   6.0726604
  53.8607750  67.2486496   5.2857208  53.9053459  67.4153748   6.7894492
  68.1492233  12.1974745  20.6618404  67.8751907  11.5887098  19.9758759
  67.7085800  13.0186453  20.4433270  84.2087250   4.4943271   5.5147104
  84.5810852   4.1732316   6.3359761  83.3956833   4.9280272   5.7737522
  23.2573071  57.1637306   4.0160799  23.4944515  56.6384506   4.7803278
  22.9823780  56.5225372   3.3607049  61.7518044  52.1407700  16.7200050
  61.4090004  51.2644348  16.5446415  62.1400108  52.4166756  15.8896999
  15.5494518  68.9694672  52.1055565  15.1814938  69.2321701  51.2618599
  15.0244656  69.4402542  52.7528419   6.3406649  61.6454659  20.3014469
   7.1737494  61.5757179  20.7676411   5.7945313  62.1912003  20.8672600
  36.9415207  64.7236099  76.6113663  37.4904785  64.1487579  76.0780487
  37.5584412  65.3261795  77.0267563  68.4948730  49.4238586  58.5999374
  67.8766632  49.8079720  59.2216301  69.3526535  49.5520782  59.0049248
  10.9302874   1.8716002  68.0704498  10.6537552   1.2703155  67.3789139
  10.4408989   2.6760104  67.8982391  67.3845825  19.3678951  43.4218445
  67.3281555  20.3234253  43.4183846  68.3131256  19.1822968  43.2818222
  39.9379959  39.0159187  63.4909172  39.7168121  39.1151695  64.4169083
  40.8318977  39.3509865  63.4209404   7.8489442  64.2667694  83.5942993
   7.8163719  64.1025085  84.5367355   7.9201860  63.3966331  83.2018433
  82.9241257  11.9318771   0.7880068  82.3586044  11.3513298   1.2973088
  83.2866516  11.3716221   0.1017697  23.3666496  17.8522110  77.0318604
  23.1998653  18.3159084  77.8524704  24.3155155  17.9031258  76.9165649
  82.4033432  63.6552353  71.7619934  82.4437790  63.7256546  72.7157440
  81.4869690  63.4509430  71.5755539  43.2818146  36.3511925   3.4879711
  44.0544853  36.3361282   2.9231820  43.2442818  35.4725952   3.8659825
  65.5915146  69.3098755  18.9301643  66.3041077  69.7100525  19.4284630
  65.8259888  68.3832550  18.8789330  60.3087883  14.8719215  20.1689434
  59.9196625  15.0108786  21.0323677  60.9886322  14.2142572  20.3156528
  62.1257095  51.3220024  11.2062845  61.7462959  50.4436417  11.1786728
  62.4737625  51.4603577  10.3254042  86.4360352  57.0543671  25.6158695
  86.0882187  56.3801193  26.1995144  87.2275696  56.6646767  25.2445908
  60.3507423   6.7115335  77.4084396  60.1791725   7.1970572  76.6015549
  59.6484184   6.0625920  77.4514160  82.9629059  31.0461292  87.1504822
  83.1617203  30.6557064  88.0015259  82.0485687  30.8140144  86.9882050
   9.4480314  39.0750237   4.8950377  10.2309160  39.4358101   5.3111591
   9.7150755  38.2061844   4.5949788  52.1847763  57.4000320  55.4343567
  51.7094498  58.1483498  55.7953491  52.4454498  56.8894539  56.2009048
  32.9910545  46.8095169  42.3538094  33.3044510  46.8613815  41.4508553
  33.7701836  46.9667435  42.8871613  82.4042664  58.8546715  82.5235977
  82.4624023  57.9767303  82.9005127  81.5160370  58.9053879  82.1704636
  57.9277878  70.4269638  74.1342545  58.0449486  70.6794128  73.2184067
  58.3924332  69.5939484  74.2144012  31.3619385  70.2971802  43.1164513
  31.5844326  70.8588791  42.3740044  30.4738407  70.5601425  43.3580399
  50.8077354  23.9051857  86.0904007  50.4880714  23.9444618  86.9917908
  51.7591286  23.9735222  86.1704865  60.9954338  64.5064621   9.6191292
  60.1209869  64.4311142  10.0010939  61.5899620  64.4349518  10.3658915
  12.9911346  41.9127693  63.0862694  12.4797745  41.2101326  63.4875717
  13.8964081  41.7192650  63.3297195  60.6666412  38.8768845  80.7121048
  60.3675537  38.0042572  80.4565735  61.0646553  38.7509613  81.5734787
  66.7910767  43.1948395  17.6057796  66.3399658  43.7812996  16.9984913
  66.3572159  43.3407135  18.4464455  22.3615112  50.0394630   5.9856997
  21.9797077  50.9139900   5.9104776  21.9289665  49.5295563   5.3007684
  58.4296532  26.0612144  18.0209160  57.9493294  26.8105030  17.6686554
  58.6131477  26.3000240  18.9295044   6.9823608  18.2207623   9.8706293
   7.6738691  18.3087349  10.5266085   6.5405388  17.4022655  10.0966549
  75.9392471  24.7846489  48.4694290  75.7628174  25.7252331  48.4493065
  76.8019791  24.7114658  48.8775558   5.6619511  47.0073280  52.9808350
   5.6951399  47.7629013  52.3941154   4.7274561  46.8450699  53.1097717
  14.2203350  50.8726768  28.4510994  15.0384998  51.2729225  28.1567478
  13.6497526  51.6143646  28.6525116  61.9563713  15.7549429  57.1052971
  61.5223389  16.4963131  57.5274544  62.3186722  16.1180115  56.2971191
  58.3525963  54.7024384  74.0943069  58.9620819  54.1712456  73.5818710
  57.4891319  54.4776764  73.7476959   0.7334488  64.9272766  70.6267242
   0.6465636  64.2302856  69.9764252  -0.0887483  64.9020081  71.1161957
   3.4778707  19.7403240  32.1448059   3.1744959  20.0575466  31.2941799
   4.0513115  19.0032063  31.9349174  62.0234566  58.0753555   8.1886702
  62.7962379  58.1880035   7.6351800  61.9140701  57.1268921   8.2571192
  81.5551758   3.9151692   2.3511307  81.8867950   3.5835893   3.1855841
  82.0947189   3.4818702   1.6897879  68.7165756  29.7511559  60.2536354
  69.2779770  30.4454975  60.5985222  68.4098969  30.0872440  59.4114799
  62.9402771  21.6588783  53.6537743  62.9932709  20.7461185  53.9371376
  62.0175095  21.7885056  53.4348373  85.1107254  70.3543701  54.7139282
  84.2965012  70.3215332  55.2161255  85.7908249  70.1178513  55.3446121
  70.3542175  34.5117073  65.6737061  69.4072342  34.5751991  65.5495071
  70.4741669  34.5463943  66.6227264  14.9810543  66.3597565   2.2294445
  15.7292271  66.8554459   2.5622506  15.2633867  66.0485382   1.3694093
  86.3331375  21.9201221  35.3950691  86.3787460  21.1463451  34.8334427
  86.9178391  21.7202663  36.1261024  16.6985226  26.0773182  79.5263901
  16.9671154  25.5182362  80.2554398  17.4479046  26.6541080  79.3781586
   5.9553142  64.8912659  34.1863441   5.4500666  65.4282837  34.7967300
   6.0215378  64.0384216  34.6158867  25.3371277   8.9380007  74.7021561
  26.1664047   9.3591404  74.9283676  24.8402252   8.9326363  75.5202560
  30.4847050   7.2706852   2.6334124  31.0803413   7.9850464   2.8595486
  29.7216091   7.4083695   3.1946251  76.0423660  13.9078951  74.0579529
  76.3604050  14.7554531  73.7469406  75.1467819  13.8512287  73.7248535
  64.2957764  57.3743668  37.3169899  63.5624733  57.3544044  36.7020912
  64.5171585  56.4535103  37.4557114  76.6828079  52.6630363  60.3145599
  77.1921005  53.0330238  61.0356407  77.3183289  52.1589165  59.8064156
  12.5736980  52.8292389  30.7823887  11.9147892  52.1354027  30.7566490
  12.8692808  52.8451920  31.6926670  56.7180748  17.9244995   3.5618768
  56.6641884  18.7264557   3.0420754  55.9625549  17.9677658   4.1480079
   9.7331905  69.4105301  20.0718880   8.7973175  69.2150879  20.1185398
  10.1609888  68.6030807  20.3569298  46.6056175  51.4790840  67.9506760
  46.3210983  51.2623177  67.0628128  46.8519554  52.4028854  67.9044113
  81.7702942  68.5488205  81.7744980  82.0327148  68.3682785  80.8718491
  82.0392914  67.7704468  82.2623672  -0.2338354  23.5627346  15.1795006
   0.3676811  23.5462360  15.9239044   0.2052876  24.1104832  14.5288277
  75.3467636  58.4566154  81.1102142  75.9455948  58.3031120  81.8410187
  75.8295746  58.1602859  80.3386459  15.0765429   3.2598691  72.9525223
  15.5487185   3.9329345  73.4426880  14.1860828   3.2890830  73.3024597
  58.2834396  62.5013618   6.2974129  59.0160980  62.8025398   6.8347530
  57.7086906  63.2635765   6.2272053  12.7858305  35.6655235  84.5960541
  13.5913124  35.4886818  84.1100998  12.7987661  35.0370865  85.3179550
  39.0031357  30.7203026  67.6987076  38.2262268  30.1618290  67.6713409
  39.0275383  31.0529041  68.5959320  12.8895445  59.8555984  73.8641968
  13.6986008  60.2382889  74.2036209  12.8263397  59.0049400  74.2985001
  80.9510574  16.9887218  39.9774513  81.0821228  17.9290619  39.8557396
  81.6994705  16.5838566  39.5390511  75.9520721  43.6938591  73.2490082
  75.5142059  43.5530891  72.4095535  75.7149200  44.5877419  73.4959183
  13.3036070  40.2630959  13.7965021  13.4421415  40.1438103  12.8569221
  14.1858559  40.3219681  14.1631126  41.1361008   6.7835488  48.1750336
  40.5395050   7.3329763  47.6666718  40.6343575   6.5417485  48.9535065
  55.4238281  54.3458328   1.7215029  54.6095085  54.8203926   1.5544338
  55.3648605  54.0851250   2.6406255  14.5639305  67.9786148  73.7451172
  13.7656851  67.8622131  74.2603683  14.3511257  67.6108246  72.8873978
  53.0988007   4.1815400  13.0656862  53.3572960   4.8727970  12.4561148
  53.4578629   4.4588647  13.9085369  15.1380796  56.0305672  35.2702751
  14.2150993  55.9619942  35.5144844  15.2281237  56.9170990  34.9207268
  29.7373333  21.6896763  82.1074219  29.3965454  22.5427361  82.3764648
  29.2990646  21.5080433  81.2760544  10.8733788  51.6603737  32.7276535
  11.3094282  50.8132782  32.6353416  11.1039534  51.9536476  33.6091614
  28.8016376   8.2561836   4.7579923  28.1619072   8.6665792   4.1761389
  28.2733955   7.8390031   5.4385467  21.2763023   9.0229292  17.5242119
  21.9962807   8.5895967  17.9825630  21.6259975   9.2119923  16.6534653
  21.2539330  34.7862396  73.3402786  20.9896736  34.9378395  72.4328537
  22.1557655  34.4715691  73.2777252  62.4502754  62.4143906  16.7886009
  61.6974792  62.8342056  16.3723259  62.8587799  61.9060440  16.0879307
  46.0826912  24.9598713  14.9643965  45.7899971  25.8508377  14.7727118
  45.4018364  24.6013718  15.5337334  61.6847954  50.1635666  87.0183029
  61.0203362  49.8173523  87.6140060  62.3080559  50.6124420  87.5895233
  55.0121727  55.4224243  77.0218277  54.3249741  54.7611618  77.1037903
  54.7631989  56.1050911  77.6448898  48.8983841  28.2314835  84.5587845
  48.6080589  29.0159187  84.0933762  49.4455490  28.5639095  85.2703552
  -0.2573487  56.0298538  64.0889664  -0.2227717  56.2516327  63.1584549
   0.6545728  56.0653877  64.3777008  45.3694229  60.2977791  51.7066498
  44.4343452  60.2012939  51.5262260  45.5909920  61.1642952  51.3656425
  79.7238159   7.2000418  71.7473831  79.7463989   7.2673502  72.7019424
  80.2810745   7.9165297  71.4435043  19.4975662  11.8709459  80.4915390
  19.0907917  11.3074265  81.1497269  18.7639790  12.3315382  80.0841904
  76.8531876   5.0700407  77.7263870  76.3107376   4.6525288  78.3954620
  76.4146729   5.9018092  77.5472412  20.7679043   9.5708799  84.6587372
  21.7138920   9.4249573  84.6518860  20.6476994  10.3856087  84.1708832
  36.7138596  22.4461174  68.3170929  37.0238838  23.3511429  68.2847443
  37.4697037  21.9448109  68.6230621  43.4692802  37.5268211  71.6006546
  43.4622688  36.6992683  72.0816345  43.5753937  37.2705078  70.6845398
  10.2867022  50.6096458  12.6092930   9.6652231  50.6947594  11.8862772
  11.1003103  50.3244209  12.1934566   1.4581255  24.4092083  88.4294586
   1.4634371  23.7076492  87.7782898   2.3509903  24.7539940  88.4173508
  73.8098068  31.6911621  52.2398758  73.4066849  32.5548210  52.3283043
  74.6670761  31.8656235  51.8514519   9.2682400  64.0595703  33.8102379
   8.5489950  64.1279526  33.1823502   9.8667164  63.4223175  33.4204102
  80.3115082  54.2882347  49.9032516  80.8771591  53.8154068  49.2927475
  80.8779831  54.4887619  50.6483192   2.6252873  70.5435791  13.0827017
   2.7064846  70.6927109  14.0247211   3.4635518  70.1579132  12.8281298
  24.2693348  31.8865757  11.3025818  23.7968063  32.1938286  10.5289249
  24.5783863  31.0128498  11.0631590  65.5145111  69.7540894  48.0979500
  66.4709167  69.7750092  48.0649605  65.2719955  70.5707397  48.5344048
   7.2431903  32.9348183  68.2805252   7.9663591  33.1570702  68.8669281
   6.5022063  32.7733574  68.8645706  34.1493874  58.8598175  11.1960878
  34.2067223  59.6370430  10.6403313  35.0586777  58.6504555  11.4096212
  15.5337658  64.0013199  73.5769424  15.3583527  63.1048393  73.2909698
  15.9736433  64.4089661  72.8309097  11.0630131  14.5046434  80.0209427
  11.6914806  13.8366213  80.2948151  10.6075735  14.7495947  80.8264313
  60.3872948  55.2071419   3.6818140  59.7546425  54.5953484   3.3053918
  60.2806396  55.1099548   4.6280756  49.3177567  21.1042061  44.8264198
  49.7236557  20.3025894  45.1564026  48.9129105  20.8445358  43.9988327
  67.0230789  61.7108536  52.6667290  66.3167343  61.3695183  53.2151833
  66.5845184  62.2929115  52.0461578  79.4060287  58.9872665  79.6554108
  79.5311813  58.9967422  80.6043472  80.2548676  59.2496605  79.2992477
  61.2164574  19.2601166  66.2111435  61.6730385  19.5526466  65.4223480
  60.3904190  19.7436676  66.2029800  57.5428238  60.1622314  20.5947590
  57.6800346  60.8508415  21.2453117  58.1398659  59.4618187  20.8578091
  31.4137783  16.8305569   8.0879440  31.0165062  17.6624222   7.8302450
  31.1172428  16.6919937   8.9874430  47.4860229  37.3849678  27.4766426
  46.7597160  37.8710175  27.8671112  48.1970139  38.0231209  27.4176350
  11.9299631  52.1349411  70.4081116  11.2232237  52.7750206  70.4920807
  12.6670551  52.6363487  70.0595245  59.8426895  21.3486710  86.7829514
  60.7850876  21.4939060  86.6991348  59.4712029  22.2271519  86.8635559
  30.2781010  65.7230301  62.4248466  31.0247192  65.1247635  62.4542580
  30.4514694  66.3568115  63.1209030  77.2232742  17.4441338  24.2185192
  78.0443192  17.5605125  23.7404270  76.6224747  17.0686283  23.5748787
  40.1659470  60.1986961  15.9681301  39.6612968  59.4608459  15.6258707
  39.5279236  60.7195511  16.4558449   3.3704240  65.0233459  23.0299339
   3.8660147  65.8039246  23.2775459   3.9561446  64.2937012  23.2318935
  24.2720203  17.2983150   1.9875109  24.1615753  17.7542210   2.8218873
  23.8929806  17.8911915   1.3386204  37.7828674  39.0861588  87.4936905
  38.3221893  38.2970047  87.4427414  36.9750328  38.7971878  87.9181061
  64.3318329   0.3803435  18.8674011  63.9036598  -0.2080479  19.4892483
  63.9916077   0.1146553  18.0130672  53.9107056   4.2553191  33.7186432
  52.9907455   4.5090489  33.7929802  54.3638115   4.8080654  34.3553505
  82.3332596  15.8569136  16.2508965  82.5515671  15.7105274  15.3304920
  83.0818176  15.5060177  16.7333431  49.3124504  12.3194695  51.5920143
  48.7898674  12.5036488  52.3725395  48.6906967  11.9385567  50.9718895
  62.1340981  66.1920547  53.2461739  61.4601479  65.5230255  53.3662796
  62.3867874  66.4398422  54.1355476  13.0317373  45.2666130   8.9579620
  13.3453074  45.2232971   8.0546188  13.5367441  45.9773674   9.3529711
   7.3925853  69.3160934   8.9289122   8.2883186  68.9786987   8.9365568
   7.0256867  69.0028000   8.1021929  71.1353607  19.5280800  83.0539856
  70.4670639  19.8263035  83.6709747  70.9363937  19.9938393  82.2417603
  55.1913147  16.5019779  87.6615677  55.2429924  15.6161919  87.3024750
  55.0355301  17.0604610  86.8999481  82.5681076  24.2401237  81.7848892
  81.7530823  24.3806305  81.3030014  82.9556808  25.1121712  81.8593979
  40.3269424  10.9430494   2.1577635  40.3523026  11.2417631   1.2487209
  40.8902092  10.1692457   2.1714046  70.6383667  40.1970558  41.0767479
  70.5547256  39.9576378  41.9997406  71.2100983  39.5249176  40.7058182
  12.4128942  28.0418053  65.5909348  13.1136341  27.7668819  64.9996567
  12.0686054  28.8437519  65.1977692  39.7833939  31.1699333  82.0839691
  40.2711220  31.8033333  82.6104279  40.4586983  30.6566334  81.6404419
  10.0168505  63.6015854  19.5091171   9.2928867  63.5994415  18.8829365
  10.6876316  63.0536766  19.1015892  55.0383606  70.1214142  75.4976425
  55.2007637  69.3714218  74.9254761  54.2755203  70.5543137  75.1143723
  22.3274384  53.5716858  78.1079178  22.1403522  54.4886055  78.3091278
  23.2825069  53.5117264  78.1297684  51.9929161  64.1763840  41.9819946
  52.2242584  63.9555817  42.8841934  52.7479095  63.8947639  41.4653625
  68.1516342  21.8093681  75.9215393  67.5286865  21.0912704  75.8096848
  68.6959610  21.5411224  76.6617966  51.6330681  56.3736496  38.2280388
  51.6617966  56.4593773  37.2751160  52.4623184  55.9533043  38.4558105
  11.6794596  46.9578934  78.8555222  11.3472013  46.1519966  79.2509537
  12.5818987  47.0235443  79.1678162  66.4373169  44.5665894  74.8155060
  66.8684006  44.6363907  75.6672821  66.1265411  45.4529381  74.6310043
  15.1220751  64.9169388  16.8466415  14.4394770  65.4368896  17.2708321
  15.4628096  64.3553314  17.5428677   9.5232058   9.8132286  24.2958508
   9.9491110   9.8347435  25.1528072   8.6042700   9.6282396  24.4896755
  75.4502411  59.3782349  77.6523438  75.2831345  59.9416428  78.4079056
  76.2482910  58.9016304  77.8808060  23.8469563  59.2365799  65.5967484
  24.0821323  59.3800468  64.6800461  24.5004997  59.7305641  66.0918198
  15.7558451  23.8893681  74.8154602  15.6012754  24.7222042  75.2612457
  15.2299891  23.2554474  75.3031616  41.5522423  68.9198227  52.9033394
  42.1207466  69.3852386  53.5168724  42.1330757  68.6607971  52.1879578
  40.5371780  69.9499359  85.2002945  39.5834808  69.9067917  85.1307831
  40.7430420  70.8790512  85.0973892  53.9097862  17.9123440   4.5000534
  53.0880051  18.0176296   4.9794521  53.7810326  17.1227322   3.9745359
  35.6029091  54.0822067  44.5559692  35.3924408  54.9149208  44.9784851
  35.0149193  53.4491959  44.9680328  54.5235443  59.7392082  76.3909073
  53.7224426  60.2630196  76.4002533  55.0375252  60.0744896  77.1255188
  80.3497849  48.8122215  37.6007996  79.9385834  48.6258888  38.4448547
  81.2294998  48.4425507  37.6761398  10.9492197  58.6166534   2.0423157
  10.7500277  59.4419785   2.4843500  10.1538153  58.0935478   2.1419327
  53.7274475   8.9720039   8.3858957  54.5681343   8.9983644   7.9289694
  53.9449501   9.1609240   9.2987127  47.2851028  49.9956512  82.8648453
  47.8065109  50.7811470  83.0302582  47.8512344  49.2716560  83.1323471
   1.2738695  56.7850914  34.4982796   0.8976362  57.5066986  33.9943314
   1.1922377  57.0621414  35.4108620  18.3415318   3.0465989  88.1560059
  18.2011986   2.5082502  87.3770905  18.9321651   2.5280325  88.7023392
  74.3006592   0.8269454  62.3353806  73.6318207   0.4593354  62.9130936
  74.7831192   0.0657783  62.0127563  81.6306381  64.9023056   6.7035303
  82.5101013  65.0059128   6.3401651  81.4133530  65.7658157   7.0547776
  28.7181664  53.2052193  40.6973000  28.0448303  53.2950516  41.3716774
  28.2332764  52.9808807  39.9030800   6.4695868  12.8413706   3.9870710
   5.7830224  12.2940149   4.3682046   7.1355081  12.2199717   3.6927156
  20.8132229  65.9213943  15.4063177  20.9948063  66.8572311  15.4927359
  20.3614254  65.8416519  14.5662270  64.4026184  11.4854450  35.5086975
  63.9743690  10.7347975  35.9202347  63.7292747  11.8657436  34.9445953
  21.4644604  63.8393593  58.7215919  20.9728222  63.1727486  58.2418442
  21.5640163  63.4764481  59.6017151  73.2671280   2.8080482   1.7366608
  73.8903961   2.1367645   2.0144186  72.4175415   2.4848840   2.0366516
  42.8888054  66.9582062  82.3977432  42.4180870  66.1601105  82.1575394
  43.5209694  67.0855103  81.6903610  80.9218521  38.2521057  14.8511200
  80.4412994  38.4886055  14.0577927  80.3168030  37.6946831  15.3404350
  66.5416107   1.5279366  62.3341103  66.7742920   2.4034793  62.0250549
  66.6880264   0.9601198  61.5775528  63.1376457   6.2027602  20.6372604
  63.0368576   5.2983112  20.3405361  62.4200554   6.3328085  21.2572460
  43.9983025  46.1169205  62.7604828  43.4318390  45.7176361  62.1002388
  44.7480659  45.5250931  62.8223572  83.5378647   5.6009769  67.2514191
  82.7019424   5.9014649  67.6080246  83.9723511   5.1719146  67.9885483
   5.6469193  48.8070030  39.6200485   6.5394783  48.6978798  39.9481697
   5.5103793  48.0556793  39.0428963   9.4468613  35.3301239  26.2578163
   9.6738892  34.4719925  25.8996239   8.6256723  35.5612411  25.8236904
  52.9842834  50.4835625  36.9089928  52.2757034  50.4523773  37.5517769
  52.7093124  49.8787994  36.2198715  71.2492065  67.6079788  84.3728256
  71.3378220  66.6980667  84.6564331  71.7374573  67.6512299  83.5506439
  10.3377342  64.0511093  50.6905212   9.5872850  63.9365730  51.2735634
  10.4797449  63.1844292  50.3098297   6.7558842  41.7127075   0.5458255
   5.8388748  41.6531410   0.8137382   7.1453028  42.3339920   1.1611239
  72.1866302  11.1927052  81.2173462  72.8639832  11.5727749  81.7767792
  71.5016556  10.9150019  81.8255615  72.7218933  54.9021111  68.1241913
  72.6947708  54.9094315  69.0809784  71.8408737  54.6354523  67.8616409
  12.5078983  49.6251488  76.7435913  13.2898436  49.2435455  76.3446274
  12.8052206  49.9444122  77.5955887  84.1181412  29.8884544  45.5186729
  83.4293060  29.7008591  44.8810616  84.3781128  30.7905579  45.3319664
  42.7099876  62.2592316  18.2092361  43.2949104  62.6819153  18.8380718
  41.8420677  62.6029243  18.4209461   8.7883568  50.0483513  43.8007088
   8.6699448  49.2824898  43.2388649   9.6195936  49.8907433  44.2484093
  35.8855019  22.2166290   3.7466097  35.0742912  22.7226009   3.7001410
  36.4855499  22.7713375   4.2450800  24.5487385  46.1841087  20.7261620
  23.9091129  46.0572662  21.4268913  25.3318386  46.5066719  21.1721878
  29.2896652  53.5921135  62.0254211  29.9687557  53.0974960  62.4841385
  29.6532364  54.4731979  61.9374428  30.2186985  30.4388638   8.4173336
  29.3041592  30.1948910   8.5599070  30.6318817  30.3302994   9.2739115
  38.1852798  52.6905632  20.3521252  37.2915649  53.0197220  20.4478436
  38.6333313  52.9794006  21.1471443  34.0826454  44.6524200   6.0883398
  33.3867531  44.0078659   5.9598265  34.8281288  44.3001976   5.6021028
  78.9576569  57.1438065  20.3412724  78.1161041  57.2817955  19.9065609
  79.0627441  57.9081345  20.9078369  68.9627838  62.8258286  57.5804138
  68.2834473  62.1625786  57.4586143  68.5855179  63.4427376  58.2075691
  35.9719162  34.5518036  75.5053864  35.1248169  34.1806450  75.2586060
  36.5545235  33.7952881  75.5723419   7.6788540  43.0878868   8.3289881
   7.4935436  43.3286018   7.4212718   7.9442201  43.9081459   8.7449045
   1.7806262  61.3132477   3.5373840   2.4028072  61.5310516   2.8433483
   1.4405273  62.1593590   3.8283510  20.3133774  25.6821785   3.5633025
  20.1124382  25.1522255   2.7919359  20.5572777  26.5374470   3.2093844
  15.2311697  12.5421133  31.4870434  15.3815756  12.4776258  32.4301491
  15.6109066  13.3856354  31.2410717  77.5953293  40.3595352  27.2917480
  77.6692276  41.0734100  27.9251137  78.2254257  40.5814056  26.6061878
  48.1845779  41.0858994  46.6996498  48.6033058  40.6211433  45.9751511
  47.5891762  40.4427834  47.0845261  50.8580666  16.5540657  52.6222153
  51.7321281  16.2354946  52.3969078  50.7659721  17.3695202  52.1294823
   1.8049116  21.3213596  52.8198700   2.7201707  21.3950386  53.0902481
   1.3168279  21.2596893  53.6409683   6.0883818  40.0910530   7.9160542
   6.7047567  39.3615875   7.9807935   6.5674357  40.7676582   7.4375720
  22.2693977  58.5515556  84.7312622  22.0236454  58.4593620  83.8107529
  22.1065884  57.6878090  85.1102905  51.8735580  44.2529984  55.3966675
  52.3426628  43.6172218  54.8563309  51.1388359  43.7605209  55.7625618
  50.0312576  27.6555328  28.1241093  50.8783035  27.3486805  28.4475098
  50.0420189  27.4476948  27.1898079  53.2500610  14.4485798  75.5278397
  53.3034019  13.6499672  76.0528183  54.0633736  14.9156847  75.7190704
  37.4205818  11.0588789  64.4658432  37.8197594  11.9242496  64.3762741
  37.2251167  10.9807596  65.3996124  22.1703987  47.2521973  47.0406876
  22.2053471  47.0254440  46.1113930  21.4302139  46.7503433  47.3820114
  72.0464630  46.9117661  23.4058342  71.9075165  46.0292664  23.0621433
  72.6889648  46.7976608  24.1061230  66.5817947  60.5660706  12.0366945
  66.7033844  61.4170685  11.6156883  65.8820190  60.1483002  11.5346870
  81.9814606  66.7597809  15.0471401  82.7395248  67.3138504  14.8611946
  81.5829849  67.1519470  15.8240929  68.5688705  31.3864994  78.1985321
  69.1518631  31.5577736  78.9381332  69.0690765  30.8012123  77.6297989
  66.5878525   8.4371586  56.5136795  67.5126038   8.4812841  56.2705307
  66.1248550   8.8096437  55.7632675  19.3614788  26.8276100  20.6023006
  19.7891750  26.0838070  20.1779594  18.5509167  26.4655418  20.9602509
   3.9807086  70.1864319  45.8022003   3.7935429  69.9836426  44.8856430
   4.6712198  70.8482742  45.7648926  53.2537308  23.2832603  58.5607338
  53.3581657  22.3451748  58.4016113  53.3558464  23.6853428  57.6981010
  56.9560890  15.6666059  50.6487083  56.7974701  15.0036831  49.9766922
  56.9094048  16.4994831  50.1792717   6.4604626  27.0816288  42.4592285
   6.4449277  26.9691200  41.5087891   7.3170595  27.4683533  42.6406631
  84.0494766  69.7347488  71.4479828  83.2916336  69.3517303  71.0061569
  84.2750473  69.1012268  72.1291580  17.6961021  46.2457428  13.6222610
  18.0826836  46.9780045  13.1420746  17.7886181  46.4880257  14.5436573
  64.1347656   6.1633816  54.2490997  64.1245728   7.1087594  54.3987274
  64.9893417   5.8788171  54.5730782  22.6570549  55.7391663  85.4603882
  23.1564426  55.3207741  86.1616669  22.3054142  55.0103760  84.9490738
   4.4450502  46.4343491  10.3868876   3.8004346  46.4235382  11.0944090
   4.1602607  45.7399750   9.7927761  69.1698761  40.7804832  68.3657074
  68.3003769  41.1803055  68.3473816  69.4824448  40.8454590  67.4633102
  83.0113373  43.6136551  15.8178520  82.5833435  44.3558006  16.2447872
  83.3913116  43.1098289  16.5375805  76.8294983   3.4777396  28.4510574
  77.0143890   2.9300840  29.2140255  77.3289108   3.0751796  27.7405930
  31.8274212  38.0534019  28.8101196  31.7641335  37.3665428  28.1464577
  32.7551117  38.0747566  29.0450020  78.7818604  46.1380463  28.5074158
  78.6259232  47.0413399  28.7830486  79.6909332  46.1326103  28.2077751
  21.7962189  36.6376686  84.8173752  21.8036728  35.6884232  84.9403000
  21.2178631  36.7775497  84.0675964  68.7834473  10.7753668  41.4837685
  67.8661346  10.5148449  41.4006729  68.8243561  11.2457199  42.3164330
  40.3033829  58.6278458  45.5814095  39.3921738  58.5884018  45.8718796
  40.5629120  59.5371704  45.7297554  60.5807457  25.3408337  85.5678864
  60.3350334  26.1301498  85.0853500  61.5077477  25.4638729  85.7722321
   2.4057894  41.7565155  81.3434448   1.9125465  41.7084084  80.5245285
   1.7677915  41.5322113  82.0208511  10.3204308  51.9943619  40.8605042
   9.7102623  51.2652702  40.7493629   9.8796406  52.7398453  40.4528427
  51.9928741  12.3889475  26.8213253  52.4363823  12.5524998  25.9889889
  52.0587158  13.2182331  27.2948036  59.1729469  33.9059639  68.0015182
  59.1884499  33.3394814  68.7729416  58.5617142  34.6060371  68.2306976
  12.1938248  56.7577477  84.1415634  11.7561588  55.9455605  84.3965836
  11.7398281  57.0347824  83.3457184  51.2014580  65.3604507  45.0411377
  50.3722343  64.9077454  45.1950111  50.9925156  66.0272217  44.3869209
   0.9924062  62.0019112  44.5239296   1.5656246  62.7606697  44.4146805
   0.5098447  61.9455681  43.6991920  39.5345955  64.6967239  43.3417854
  40.1676598  64.9923019  43.9960747  39.3825417  63.7759247  43.5544891
  74.9654007  14.2870808  89.1934891  75.8868179  14.0986509  89.0154114
  74.6909790  14.8476791  88.4677811  25.0477009   0.4500655  87.1833115
  24.9985428   0.9883493  86.3933334  25.9235859   0.6158500  87.5319824
  48.4085426  31.7606125  43.2095032  48.7536392  32.5825462  43.5581589
  49.1036835  31.4315434  42.6396599   9.5896254  32.4801331  77.3498993
   9.5671177  32.2201042  76.4289703  10.4789486  32.2715950  77.6359940
  73.6969833  30.4961643   2.9952354  73.0784225  31.2209549   3.0863163
  73.9994812  30.3259201   3.8872781  38.1037025  15.4398479  75.2799759
  39.0080414  15.7484055  75.3364868  38.1687546  14.5836468  74.8569870
  63.4817886  15.1339493  39.3505669  64.1486969  15.8161459  39.2726135
  63.8344307  14.5275698  40.0018578  32.7813797  70.8919220  24.5879536
  32.6685715  71.8397217  24.6599522  32.8477440  70.7294159  23.6469879
  11.6760597  34.1643143  53.0305252  11.6172771  33.3988190  53.6021843
  12.2363710  33.8811760  52.3079491  40.8061752  41.6690025  47.2565804
  40.2592964  42.4519844  47.1926270  40.6743050  41.2160645  46.4237022
  36.8216934  54.7248383  13.8075237  36.0829811  54.4116287  13.2855682
  36.4434052  55.3892441  14.3834534  45.7330360  10.0129995   7.4169350
  45.2904243   9.1703615   7.3155036  46.6483002   9.8298416   7.2048621
  43.9124870  21.7037640  60.5558891  43.3348579  21.4146538  59.8494911
  43.3268433  22.1174526  61.1900139  39.0978622  27.9504547   8.7402372
  38.7114754  27.3107681   8.1421261  38.5702477  28.7400036   8.6199589
  54.7068672   1.9296291  29.0250759  54.2382088   1.9588315  29.8591843
  55.6287460   2.0237529  29.2648945  29.3605824  59.9173775  76.4110031
  28.6696987  60.5270195  76.1516800  29.1020508  59.6193047  77.2830963
  72.3957443  59.4452553  80.9115143  73.2108231  59.9469872  80.9232788
  72.6704102  58.5388603  81.0502243  10.3916903  60.8671494  55.7447243
  10.3315287  60.0228653  55.2977333   9.5131521  61.0162392  56.0942612
  59.4795570  19.7988415  49.4540215  59.8481140  19.8716431  48.5736237
  59.6327477  18.8874264  49.7031898  82.7105179  59.8297043   2.8137276
  82.7472305  59.8962975   3.7679021  83.5281982  60.2271271   2.5142541
  51.1109810   3.3336902  19.1819115  51.2808151   2.4719160  19.5623493
  51.6646194   3.3643849  18.4016705  53.3502121  44.3002586  70.6310425
  54.1222572  43.7935753  70.8829346  52.7158470  44.1326065  71.3279648
  57.2007484  54.5967102  53.0728035  57.4129105  55.4918060  52.8081894
  58.0510750  54.1824036  53.2195206  70.1256256  18.6274529  42.9163666
  70.9551392  18.4310665  42.4809647  70.3564682  19.2584991  43.5980759
  34.0692902  32.9640923   5.0810833  33.1618996  33.1925125   4.8793530
  34.0270271  32.5565071   5.9461384  21.3868370  35.6935310  13.5940428
  21.5692120  36.1378479  12.7660618  21.6099033  34.7775230  13.4285116
  47.8731346  33.6468811  40.1441612  48.0217934  33.6536217  41.0897217
  47.4396553  32.8102303  39.9758148  72.1228409  22.5469589  32.2304688
  71.8468781  21.6353970  32.3260155  72.0033264  22.9259167  33.1012993
  65.5274658  71.9232101  51.8440247  66.2996445  71.3576508  51.8336105
  64.9806671  71.5691071  52.5453415   4.2952528  21.2987423  88.2113037
   4.4058118  21.0350170  89.1247864   4.1557536  20.4773312  87.7400742
  73.5544815  25.1549873  46.9418221  74.1940002  25.8409710  47.1333351
  73.9556961  24.3531666  47.2769966  26.1729660  47.9454422  57.4040527
  27.0207024  48.3046188  57.1422005  25.5929432  48.7058029  57.4447479
  63.3826523  64.2178802  43.2248802  62.8252640  63.9015198  43.9358406
  64.2459793  64.3211060  43.6251907  21.0025864  49.1140671  18.3393059
  20.8857498  49.5668983  19.1744862  21.8604774  48.6957130  18.4116459
  27.2363014  39.8666687  85.4774094  27.4387360  40.7996788  85.4085236
  26.6493340  39.8039322  86.2309113  43.8760681  41.1020470  34.2486877
  43.1165581  40.6535225  33.8769302  43.5516739  41.9731407  34.4771538
  60.1635284  54.3579140  81.4816666  60.3788528  54.5439911  80.5677567
  60.4838486  53.4676437  81.6267319  24.7093334  25.9889946  76.7959290
  23.8240814  26.0519600  76.4373245  24.8314896  25.0556812  76.9698181
  22.1576653  36.0446091  30.8228569  22.8725471  36.6652641  30.6815624
  21.4529800  36.3577995  30.2557926  20.7678127  11.7253618  16.7585316
  20.3747044  11.0832405  17.3496132  20.8226452  12.5272789  17.2782955
  69.7555771  51.6528053  20.8823376  68.8578339  51.5565720  21.2001953
  70.1913986  52.1803055  21.5516911  78.0989456  34.8562469  68.3485794
  77.2094727  35.1896515  68.4664993  78.6631470  35.5623055  68.6638412
  34.3356895  66.0369644  21.8024731  33.8884125  65.9082336  22.6388969
  35.0964546  65.4576721  21.8460407  16.0969639  43.5207710   7.7762809
  16.0035534  44.2727089   8.3611689  16.8233833  43.0187340   8.1457462
  76.6393814   5.4838309  87.8479462  75.8395767   4.9873304  88.0212173
  76.5045471   6.3190451  88.2956848  13.3408594  11.8267660   3.5636914
  13.9260216  12.1039333   4.2686706  13.5178118  10.8918905   3.4591637
  71.0491028  67.6794510  17.8959351  71.8906631  68.1067352  18.0553989
  71.0091400  67.5764389  16.9451313  47.4522972   5.8138480   2.4481733
  46.9460602   6.1741633   1.7200750  47.8475266   5.0172272   2.0940254
  37.7299156  45.2369919  34.0794792  38.2130814  45.9232826  33.6192741
  36.9931297  45.0349503  33.5028038  37.5032806  44.6604385   3.1614499
  37.8802299  44.5516167   4.0345473  36.6150818  44.3121071   3.2389188
  54.9037209  48.8653603  34.4791985  54.7658730  48.6262589  33.5626526
  54.0771332  48.6482391  34.9102936  56.4476280  22.9229450  84.5477829
  55.5361824  23.2153053  84.5427017  56.9566116  23.7233181  84.4190445
  62.6398773  65.4131088  74.8062134  62.2080917  65.9993591  75.4275894
  62.7301369  65.9341888  74.0083618  73.3749619   8.9284344  21.7191620
  73.1287079   8.6199741  20.8471279  73.4875641   9.8733749  21.6160164
  16.2041168   7.0707860  61.6371613  15.8728809   6.2228341  61.3413734
  17.1546078   6.9607320  61.6633453  18.1851978  57.5530357  60.6978378
  18.7563534  56.8545990  60.3781586  18.3874283  57.6195183  61.6310654
  83.2301102  37.1520691  22.8974571  84.0638962  37.1315727  22.4277592
  83.0411682  36.2337151  23.0902348  85.8690796  46.3845215  78.3158264
  86.6302109  46.9649162  78.3230972  85.3606949  46.6465988  79.0833435
  74.7250290  56.2627907  40.5579681  74.6307983  55.8255615  39.7116928
  73.8930969  56.7185555  40.6860390  52.2055283  46.8824844  21.4062557
  52.6380997  46.0530624  21.6091633  52.1890106  46.9162941  20.4497948
  29.2946396  40.8627586  44.5790482  29.7726936  40.1566696  44.1441498
  29.0036774  40.4805145  45.4069748  64.6910553  13.3034496  69.8204117
  65.2973175  14.0282497  69.6676331  65.2551575  12.5605898  70.0353088
  55.7825623  39.6826973   5.6985698  56.5894585  40.0482864   6.0611863
  55.5124626  39.0205956   6.3348870  12.5835905  26.5472164  10.5220566
  12.7962160  26.6864643   9.5992174  11.8337593  27.1196918  10.6841030
  12.7535734  41.4951019  71.3355865  12.8971395  40.5487366  71.3398132
  11.8103952  41.5948486  71.4648056  46.3247910  44.4040565  66.1746216
  45.4523392  44.4973335  65.7920456  46.9081192  44.3123779  65.4212570
  84.6351624  12.6500006  54.8478813  84.4867325  11.7305508  54.6269417
  83.7765198  13.0615177  54.7498207   8.4872522  53.1841698  35.1308823
   8.4539108  53.8764076  35.7911301   9.0579395  53.5333786  34.4463387
  76.9088898  37.3866425  48.3291855  77.3185349  36.6650085  47.8520393
  76.0285339  37.4495506  47.9587097  35.8763580  59.1994362  25.7645092
  35.3142357  59.1482964  26.5375786  35.2785225  59.0854492  25.0257053
  85.5427780  -0.0781367  32.2709999  86.4784775  -0.1407872  32.4627380
  85.3417664   0.8534181  32.3606300  78.6880951  42.6991806  77.6520996
  78.1358337  43.3819160  77.2711639  79.2528305  43.1644974  78.2691803
  20.6224232   9.4204769  67.0679169  20.8014660  10.3604546  67.0927811
  20.1589756   9.2432013  67.8864670  70.2564697  36.3839226  62.0392570
  69.3297195  36.5407639  61.8582191  70.6436310  37.2583237  62.0812492
  51.5366898  64.6963501  66.0196381  50.8558311  65.2509613  65.6387558
  51.8946800  65.2164993  66.7390213   1.2080621  26.8943520   1.5820593
   0.8144690  26.0220890   1.6038368   0.4640661  27.4908237   1.4988554
  38.4747047  61.1084633  41.3545914  37.7941780  61.5062675  40.8115768
  39.2966042  61.3847847  40.9491844  78.9761505  48.0551453  67.7740631
  79.7911758  48.5213127  67.5878983  78.6776352  48.4182549  68.6078949
  14.3274965  36.9194679  29.7423992  14.5682917  37.7022018  29.2468414
  14.9985933  36.2760010  29.5147705  41.5342941   4.6180882  20.8643742
  41.5702744   5.3133707  20.2074718  42.3963699   4.2041941  20.8225193
  64.7277527  47.5985222  52.1069336  64.3593903  47.6723633  52.9873276
  65.5532303  48.0810471  52.1514397  48.8105049  36.0828972  48.6138382
  48.4069328  35.3773842  48.1082573  48.7630920  36.8468552  48.0390739
  14.5987787  51.5403214  66.9806519  14.1481314  52.0155945  66.2826080
  13.9214830  50.9869041  67.3695297   5.1975894  28.4914112  58.6041183
   5.7996373  28.0452957  58.0085106   5.3660336  28.0927601  59.4578972
  68.9773712  35.8242111  27.0963974  69.4556580  34.9968872  27.1513176
  69.5070496  36.4410667  27.6015339  17.8010349  59.4234238  54.7471428
  17.9214458  58.7047501  55.3678207  17.0375118  59.8981705  55.0755920
  79.4057007  28.4514866  61.9741821  78.8442230  28.6519794  62.7230339
  80.0927200  27.8900928  62.3334503  60.7802238  30.6051998  82.7390442
  60.3696442  29.8362331  82.3436356  61.4424210  30.2460976  83.3296127
  37.2838364  37.0934258  84.4385223  36.4457092  37.5526962  84.3851471
  37.2787628  36.6856194  85.3044891  51.1539421  52.3403931  22.2758961
  50.5645447  53.0424423  22.0002747  52.0231476  52.6381989  22.0075188
   4.6707129  43.7126617  80.1874084   4.7765570  42.9319611  79.6437759
   5.2803750  44.3490753  79.8138809  64.6789856  17.0163136  74.7824783
  64.2044678  17.0555592  73.9521027  64.1746063  16.4037666  75.3178482
  76.9434738  63.5537720  85.3012848  77.5476303  63.7707939  86.0113068
  76.6873093  62.6476707  85.4733200  45.0678596  71.5971985  88.9791565
  45.1959915  72.0911560  88.1693268  44.2534447  71.1142273  88.8388138
  17.5986309  60.9614182  57.7075653  17.8132019  60.0299606  57.6568031
  16.9852428  61.1055183  56.9869957  72.8797302  39.8097534  89.0774307
  72.1928635  40.0401268  89.7030334  72.4552155  39.2071533  88.4667816
  15.2004910  66.0249634  87.1682281  15.6245890  66.2571945  87.9943314
  14.8580322  66.8537750  86.8335266  28.7869968  36.1201019   3.3119378
  29.1769791  35.9297409   2.4587617  28.1424923  36.8048782   3.1332650
  83.2713776  46.2835312  16.5911026  83.0321655  47.2034416  16.4780731
  83.6338120  46.0244598  15.7438965  30.7055817  62.5166473   0.5246048
  30.3106079  61.7769623   0.0629862  30.1131897  63.2490349   0.3545574
  85.9934540  11.0749416  61.5416832  85.8493271  10.9979763  62.4848366
  86.5793304  10.3485203  61.3288574  32.8146172  49.2426796   6.4916382
  33.0606232  48.4428024   6.0269723  31.8918705  49.3726234   6.2728148
  48.5028496  21.9721317   6.4566789  47.7096710  21.8117924   6.9679408
  48.2409592  22.6238251   5.8063378  86.6283417  38.8281860  40.8172607
  85.8250198  39.3477898  40.7869873  87.3306885  39.4651642  40.6860847
  15.0783453  23.3316669  14.1313534  14.8099174  24.2324162  13.9501667
  16.0296059  23.3797340  14.2263498  81.3685608  13.9738512  83.4850464
  81.6383514  13.8722486  82.5722885  82.0963593  14.4370317  83.8997803
  82.7854919  53.6572075  28.4276142  82.4441071  53.0896034  27.7365913
  82.4650192  54.5301514  28.2006721  59.6053429  61.9064560   0.6443585
  59.1266098  61.5498009  -0.1038692  59.0462494  61.7182884   1.3981758
  62.8573761  38.8693733   1.8040203  62.0662117  39.1881638   1.3696642
  63.1929131  39.6298065   2.2787704  58.5567741  59.3034973  61.6652069
  58.8817482  58.9215508  60.8498917  57.7170448  58.8692093  61.8151436
   6.2136312  49.0031738  21.0289612   5.6036792  49.7156067  20.8375835
   6.2472873  48.4928398  20.2198505  19.3646946  50.2483139  75.5818405
  19.9040298  50.8556747  76.0882568  18.5901890  50.7576218  75.3431473
  46.8229446  23.3972435  66.6457672  46.3955688  22.6476727  67.0601654
  46.7378502  24.1048622  67.2847214  74.0736847  47.2190628  32.2373734
  73.4595871  47.8494148  32.6138954  73.7002945  47.0018158  31.3831978
  72.5828781  50.5631409  23.3486595  73.1334381  50.9102898  22.6468010
  72.0910721  49.8521042  22.9378300  58.9385109  37.6547394  49.9999008
  58.9418564  36.7098083  49.8471603  59.3044167  38.0282555  49.1981392
  10.9186306  53.8852692  54.9551544  11.4755659  54.3577080  54.3363991
  10.8992624  52.9877663  54.6229706  82.6893997  13.1667824  10.0898743
  83.0600967  12.5022211  10.6705389  83.4469452  13.5422039   9.6410894
  18.7095280  22.1971588  19.4339027  18.0539207  22.2588062  20.1286068
  18.2004986  22.0518265  18.6364059  50.3086510   5.6435204  36.3075104
  50.7142792   6.3303657  36.8366051  49.7442970   5.1713977  36.9197464
  38.3357925  25.4060326  78.4560318  38.1377678  25.4346981  77.5199738
  38.2736588  24.4788761  78.6857071  61.7507744  57.4898720  36.4064064
  61.4459534  56.5825081  36.4040337  62.2076302  57.5912476  35.5713997
  50.3129311   4.6204591  13.9925604  51.0505714   5.0199065  13.5315189
  50.3538513   3.6945927  13.7531261  71.3879013  67.9695740   1.6634188
  72.1431732  68.4675140   1.3506002  71.1236801  68.4154739   2.4681516
   7.7317429   7.8166456  74.0260239   8.6842604   7.7227941  74.0144272
   7.4135532   7.0974960  73.4803009  45.0747223  18.7335510  14.0658045
  44.7973633  17.8178844  14.0364733  45.9916382  18.7149715  13.7916727
  45.8500366   1.6573031  11.9174719  46.2474251   1.0402609  12.5319414
  45.4337692   2.3152595  12.4742889  74.6994400  35.3471069  66.1438675
  74.9839325  35.5545273  67.0339661  75.1163101  34.5078659  65.9486237
  28.6015377  40.4859238  18.6261616  27.6970673  40.2985725  18.3750401
  28.5251961  41.1050186  19.3521957  49.3495636  48.6769485  56.9842911
  49.4370499  48.8713951  57.9174423  49.9788284  47.9731903  56.8262558
  12.1975431  20.9360619  88.2232208  13.1404085  20.7749653  88.2590637
  12.0992651  21.6418152  87.5840988  15.4333277  39.8456688  69.4363556
  15.4163065  39.1533928  70.0971832  15.2072697  39.4020309  68.6188507
  20.2147026   9.0567856  69.7160416  19.8330956   8.7156887  70.5249100
  20.0958195  10.0046644  69.7762375  32.0771255  62.4228134  40.4624825
  32.5115013  63.2271004  40.7465096  32.5681076  62.1457748  39.6889114
  39.1888084  66.7719879  48.5820503  39.5412216  65.8923035  48.4472084
  38.9182091  67.0579376  47.7095604  56.2626114  57.4409866   1.3733504
  55.6922264  56.7220192   1.6453422  55.8016396  57.8480873   0.6398628
  74.8312988   0.4368871  39.1633835  75.1026993   0.3320535  40.0752945
  73.8905029   0.2606040  39.1717110  50.0243149  65.1944427   5.8225412
  50.1227074  65.3208923   6.7662368  49.1290817  65.4766846   5.6351233
  44.3124886  45.7170219  53.9802017  43.5198135  45.6738853  54.5150261
  43.9963760  45.9172020  53.0991631  69.3963470  41.0880089  78.9803391
  69.9657135  41.2976723  79.7206650  68.5093460  41.1549530  79.3338776
  65.1644516  38.9699402  37.1190834  65.1181946  39.3998604  37.9730492
  65.3610001  39.6774635  36.5050697  22.6861973  28.2308884   0.3796053
  22.2049332  28.4896698   1.1655114  23.4654503  27.7852173   0.7118304
  66.5066757   9.8291712  15.3245544  66.4301376   9.6634550  14.3849211
  65.6533661  10.1827717  15.5756884  28.3052044  45.1211128  13.3070669
  29.2532940  45.0566177  13.1921864  28.1910954  45.3598366  14.2269697
  72.2941132  35.8308907  70.4021606  71.4913177  36.3394661  70.5166168
  72.9671478  36.4849091  70.2137222  73.7631378  28.4738407  45.2799377
  74.3939285  29.0907631  44.9088020  72.9128571  28.7844658  44.9688530
  42.6507111  44.0396461  70.5737381  43.4249039  44.3225670  71.0603714
  42.0627289  44.7945366  70.5991821  42.5431557  38.3104401  86.5857162
  43.2003403  37.8157883  87.0752640  43.0462685  38.7936783  85.9302826
  12.0128441  34.1446762  34.8538094  11.1030550  33.8917542  35.0104828
  12.2367868  34.7055893  35.5964127  82.4309235   3.7220707  58.8638153
  82.7860794   4.6003313  59.0007668  82.4515305   3.6007230  57.9145622
  54.2528229  42.2982216  12.2866440  53.3787918  42.2784767  11.8968859
  54.1219330  41.9916039  13.1839104  15.7116356  41.3493385  36.4330025
  15.0687094  40.6967201  36.1555748  16.3197803  41.4145203  35.6967010
  69.8199844  26.5091915  66.6269226  69.3111038  27.1160011  67.1645660
  69.1855469  26.1476898  66.0080185   4.0242395  56.3499985  39.3464432
   3.4102423  56.6218910  40.0285835   4.7996202  56.8919945  39.4922447
  54.2638702  54.3284340  56.8118935  54.7583237  54.8224754  56.1579285
  53.9644089  54.9898224  57.4356918  22.5077744   2.0869994  81.1931305
  22.0778904   2.8239951  81.6270294  23.3610382   2.0211945  81.6219025
  13.5161829   0.2365996  75.9399261  13.3122425  -0.1942856  76.7699738
  12.8168154  -0.0405082  75.3480453  41.9810600  42.7913589  58.8282700
  41.0426598  42.7385521  59.0095253  42.2878914  43.5221977  59.3648911
  50.3770752  68.1045685  86.8554535  51.0922165  67.4880219  86.6983643
  50.4478683  68.7400208  86.1431198  73.2109070   7.9035115  76.9273148
  72.4250717   7.8969893  76.3808289  72.9247513   8.2927361  77.7536697
  46.2916870  25.2381229  31.0545635  46.1705093  24.9574146  31.9616184
  46.5894279  24.4512367  30.5980644  85.3191681  55.6325188   6.2882738
  85.5408020  54.7218971   6.4828997  84.5237045  55.5774879   5.7587056
  81.9383926  24.9851971  85.8678436  81.1073837  24.7863388  86.2992401
  81.7822800  25.8158817  85.4186020  55.1545944  58.2709618  79.9857330
  55.9933815  58.4828186  79.5761185  55.2850800  57.4007912  80.3625717
  86.5572281  38.3861313  10.3749962  87.1874008  37.9808846   9.7792711
  86.5195923  39.3014183  10.0973930   2.5988874  68.0341263  35.7592621
   2.3908734  68.9682617  35.7403870   3.2080917  67.9096527  35.0315208
  61.2609978   9.7785759  32.0455933  61.6972084   9.9801216  31.2177448
  61.7249985  10.3063498  32.6955070  45.6409149  53.0606194  39.9972038
  45.3904381  53.8793144  39.5691490  45.5553627  53.2436066  40.9328461
  72.3043289  15.7704382  36.6753082  72.3565521  15.3674078  37.5419502
  73.1942139  16.0759163  36.4992027  81.2095261  46.9489212  87.1979065
  81.4703064  46.0279808  87.2075272  80.2543945  46.9280243  87.2571335
   1.9680423  55.0201378  60.3770447   2.7562630  55.2918434  59.9068184
   2.2582548  54.2973099  60.9334030  39.0596390  34.4790726  29.2482452
  38.4281311  34.4497147  28.5295181  39.2032127  35.4127121  29.4029446
  29.3092346  61.3632355  48.7154465  30.2301598  61.6075020  48.8074379
  29.0056400  61.8563004  47.9532471  42.1492920  40.0985451  61.7366600
  41.5699120  40.0999527  60.9747238  42.7570686  39.3771553  61.5740623
  67.2631836  51.8854027  28.7260571  66.3399353  51.7425499  28.5176659
  67.2799225  52.7325668  29.1713276  52.8298874  51.4664040   7.0397334
  53.2924042  50.9480896   6.3812022  52.3021126  50.8280983   7.5195842
  64.7133331  18.4898510  77.8348694  64.0483932  17.8173809  77.6869736
  64.8105850  18.5253315  78.7864532  44.3650627  27.6580257  26.6105995
  45.2501106  27.6827469  26.9743443  44.4848137  27.3588181  25.7092857
  63.8780594  67.7444382  11.4011526  64.5692520  67.1994705  11.7773218
  63.0786972  67.2305756  11.5160418  68.8384857  47.2689209  46.6617813
  69.5651093  47.3986206  46.0523376  69.2292557  46.8120995  47.4066582
  83.5539627  36.7264252   9.3053961  83.4135895  36.7610626  10.2516146
  82.8400803  36.1797066   8.9772139  60.5904732  49.5066833  16.4066486
  61.3803177  49.1144905  16.7788792  60.6317749  49.2903290  15.4751358
  57.2833824  29.3005199  71.3023834  56.8492012  28.7962761  70.6143036
  57.8619843  28.6705990  71.7321014  66.9592056  60.8574295  57.3722916
  66.7219772  60.4021034  58.1801491  66.1587982  60.8467445  56.8474426
  14.3845596  64.3851318  31.2472038  14.1042747  64.5272522  30.3430614
  15.3290272  64.5400238  31.2323322  13.8239717  45.5482292  71.4075165
  14.4325666  46.1178932  71.8779755  14.1736507  44.6664391  71.5355911
  70.7588043  34.4378929  68.6766663  71.6459885  34.7969322  68.6616669
  70.4100952  34.6966553  69.5297012  64.8218155   4.7289724  17.3531971
  65.1157837   3.8246648  17.4629307  65.4097137   5.0933113  16.6914864
  83.5281754  61.3050575  57.6362305  82.6725388  61.5810661  57.9647636
  83.8288727  62.0410538  57.1032028  13.6778221   0.0485265   6.3796530
  13.4082861  -0.3818963   7.1910210  13.0155706   0.7244909   6.2356849
  42.1906433  48.3702164  10.4781189  42.9927521  48.6354256  10.9281406
  41.4853210  48.6441154  11.0644064  53.0733337  67.8709641  44.9693756
  53.9955673  67.6786194  45.1388474  52.6111031  67.5154343  45.7284355
  60.6857910  60.8469276  27.8990555  61.0475349  60.4281883  28.6800976
  61.4038506  60.8343849  27.2662277  19.6636848  41.6545067  66.4864883
  19.5501537  41.1554680  67.2953796  20.5531616  41.4471779  66.1999969
  38.5436516  60.2703323  33.2920685  38.1152954  59.4558144  33.5553169
  37.8897209  60.9493484  33.4580460  70.9416351  49.8370247  60.0285454
  71.8406982  50.0428619  60.2845688  70.7480469  49.0129738  60.4754181
  53.2197266  58.1282501  82.0997314  54.1622543  57.9917793  82.1958847
  53.1455002  58.9149666  81.5595474  21.4395008  58.0722427  14.7001266
  21.8683605  58.2211800  13.8574343  22.1596413  57.9162369  15.3111019
  76.8474503  12.8486691  23.7667847  76.4490128  13.2021723  22.9714775
  76.6561890  13.5008879  24.4407730  18.8403301  48.8866348  12.2128315
  19.5969486  48.4593048  11.8113995  19.2178135  49.4918633  12.8511400
  68.3910065   6.6843114  60.9250488  68.1325836   7.5628495  60.6464462
  69.1719971   6.4888878  60.4072685   8.2054634  45.2648392  59.0192642
   7.6582971  45.4850540  58.2653732   8.5352669  44.3869400  58.8275604
  42.0653839  45.7540741  81.1274033  41.3431778  46.3776474  81.2036133
  42.7139053  46.2037277  80.5856781  44.8135414  63.4785080  58.9445038
  45.1056595  62.8448982  58.2891922  44.1782837  62.9982300  59.4755516
  43.4715843  50.9381256   8.1513376  42.5534172  51.2074318   8.1771975
  43.4393921  49.9861031   8.0572662  35.7357903  46.7219124  16.9434204
  35.2290268  46.1135254  16.4055634  35.8233109  47.5055695  16.4007835
  50.3469772  49.9822884  21.1322956  50.8760376  50.7339096  21.3994865
  50.6387062  49.7886009  20.2414474  77.6482925  17.1187305   6.2222977
  77.6780548  17.1915379   7.1762605  77.6127167  18.0242157   5.9139757
   1.3331046  23.5243225  17.6094131   1.1788745  24.3050728  18.1412716
   1.4243221  22.8151703  18.2458210  80.1759033  53.1641388  23.0750008
  80.5411301  52.9970856  22.2061310  80.5595245  54.0003090  23.3393517
  44.9987526  58.9722481  82.7554321  44.8001556  58.1235046  82.3599319
  45.7609596  59.2896767  82.2711716  57.1752396  21.0488930  26.3662148
  58.1049614  20.8373413  26.4504719  56.7292290  20.3787460  26.8841000
  63.8632545  69.3897171  82.1424408  64.2321243  70.0562820  81.5628967
  64.2893906  69.5431290  82.9857025  20.3917465   1.6700599  73.4506454
  21.1864319   1.4149910  73.9193115  20.5492153   1.3981696  72.5464859
  29.9112682   3.2885067  85.5660477  30.3754349   3.9936962  86.0171432
  29.8309689   2.5964072  86.2223892  74.2679138  60.7458725  85.2851334
  73.8250351  60.0361633  84.8199310  73.7737122  60.8438187  86.0990143
  68.4816208  15.2921658  43.5576248  69.0132599  15.8997288  44.0718803
  68.9326630  14.4517689  43.6384010  84.6841278  19.5654755   8.5579576
  85.6312943  19.7020817   8.5791559  84.4815216  19.4357815   7.6314802
  80.0590591  51.8028946  68.8061676  79.6675873  52.1845818  68.0204849
  80.8539200  52.3161011  68.9512405  44.6137352  15.8643045  13.6279116
  44.9735184  15.2241888  14.2419491  45.3613014  16.1279659  13.0913858
  45.5263901  33.8279190  36.0166092  45.3310394  32.9336510  36.2965279
  44.8945465  34.3701286  36.4888535  53.2761917  20.9353886  88.0721817
  52.4812393  21.0754013  88.5866547  53.5958710  20.0782223  88.3537979
  19.4056244  46.9838409  17.2048206  19.9557095  46.2115936  17.0734158
  19.9439220  47.5744972  17.7316933  81.5886765  59.5415497  25.3073673
  81.3247910  59.5605125  24.3874569  82.4465256  59.1169357  25.3017540
  59.0906525   0.4492072  83.1854782  58.1907730   0.4350980  83.5114365
  59.6288757   0.2917088  83.9611969   3.6708372  28.8110180  31.7045956
   4.2136025  29.3290100  31.1101875   2.8244252  29.2580223  31.7069550
  68.9392548   5.7076831  68.8687439  68.1704636   5.2999449  69.2674255
  68.5881958   6.2189140  68.1396103  51.2787666  23.8620281  80.0194702
  50.6017570  23.3985081  79.5264816  51.9891434  23.9881134  79.3904190
  83.3371048  56.8670883   4.2986836  82.7037201  57.0891418   3.6162322
  83.2872543  55.9139061   4.3707490   2.0000918  69.2715607  86.3626556
   2.4529641  70.0527725  86.6802139   1.9369462  69.3994522  85.4161377
  74.5895386   7.3881063  25.6621284  73.8280792   6.8837180  25.3757534
  75.0898666   6.7789941  26.2051601  52.1832428  56.4651222  75.3408051
  52.6085281  55.7068977  75.7413788  51.5151100  56.0897408  74.7672882
  84.8315811  17.5119228  62.4840660  84.0061111  17.0476246  62.6228523
  84.9085464  18.0946789  63.2395172   8.9211388  67.6445923  15.8533850
   8.6362629  66.7865906  15.5388832   8.8074961  68.2253113  15.1010027
  59.3556404   5.0995445  32.0668831  59.3168907   4.2530732  32.5120964
  59.8647995   4.9301701  31.2742290  52.8209419   5.4693432  16.7175083
  53.0656929   5.7533884  17.5982170  52.7573242   4.5164533  16.7821980
   7.3873787   5.6174431  43.5038986   6.7722983   4.9568219  43.1853294
   7.6289659   6.1159759  42.7233009  70.1655884  68.2952423   7.0104904
  69.6238556  69.0542755   7.2264223  70.9801636  68.4374008   7.4926567
  13.8424673   2.8918471  10.2187347  13.9588499   1.9535552  10.3680515
  14.4003754   3.0855091   9.4654322  44.8642540  41.1818047  78.7613525
  44.1377068  40.6325760  78.4668884  44.8230362  41.9552727  78.1989594
  54.1258278  46.8445435  79.4570465  53.7378578  46.5753059  80.2896423
  54.9897385  47.1821938  79.6934357  65.0587006  59.0656509  10.1512327
  65.2424698  58.1568031  10.3888321  65.1908569  59.0969200   9.2037153
  72.0973053  11.1521187   6.1770968  71.5399094  11.0248690   6.9447904
  72.9740372  11.2858953   6.5371976  84.7290421   4.3103166  69.2169266
  84.3137283   3.4581194  69.3492432  85.6472397   4.1046033  69.0413513
  44.7853775  55.0649223  46.3210907  44.6812630  56.0163078  46.3372688
  45.6330910  54.9238853  45.8995209  77.9987106  36.3530998  83.3881073
  78.8840027  36.2006912  83.0575714  77.5228119  36.7145767  82.6403809
  65.5752106  21.0937424  28.6449280  65.4921646  21.1423645  29.5972786
  66.2028351  20.3867435  28.4950218  58.8729858  57.2855148   7.1549888
  58.8160706  57.9315071   6.4509401  58.6416702  57.7723503   7.9460111
  39.4617004  32.4881363  52.9722710  38.7948532  32.1208076  53.5524597
  39.8888779  33.1653175  53.4968414  75.7983780  70.1170883  82.2477417
  76.3297653  70.4024734  82.9909821  76.0221024  69.1933746  82.1340027
  44.8778076  44.3650360  73.2542953  45.2875633  45.2290688  73.2120972
  45.3242416  43.8549728  72.5784531  40.6957932  18.5373554  66.8497086
  40.5311928  18.7152805  65.9237061  40.4033165  17.6347027  66.9758377
  36.1373596  23.0847721  88.6501846  35.4297714  23.7025433  88.8343353
  36.8299675  23.3232994  89.2663193  56.9417114  23.0023937  55.2900734
  56.8409386  22.6398869  56.1702232  57.0085220  22.2353840  54.7213326
   6.4036474  25.3493233  82.5287781   7.3456945  25.4604950  82.4006348
   6.0466452  25.2907867  81.6425781  28.7635517  41.8231583  68.9218216
  29.0199986  41.4699631  68.0699234  29.0838547  41.1798286  69.5540848
   7.3512249  35.5765266  40.4461899   7.5208631  35.6716118  39.5089531
   6.5461168  36.0722847  40.5953789  37.0040245  70.0477142  60.4048767
  36.0475922  70.0310669  60.4394569  37.2786942  69.4127960  61.0664406
  41.4696465  60.1729698  78.7860107  41.4551239  60.0959969  77.8320236
  40.5507317  60.1065826  79.0456772  60.8606796  45.5317917  22.7596760
  61.7911644  45.4038277  22.9442101  60.8361320  45.8371353  21.8528156
  37.1484337   0.5356370  56.1090240  36.2437744   0.5315474  56.4217682
  37.6569824   0.8622223  56.8512840   3.2925625  25.4505138  83.9107819
   3.4658120  24.5844116  84.2796783   3.9956973  26.0019932  84.2538605
  43.4221878  15.7887688  68.5979843  43.7247467  14.9364939  68.9115372
  42.5609741  15.9001751  69.0006332  74.3747330  29.5735226  55.6193542
  74.0385361  30.2843456  56.1651878  74.8384857  29.0010662  56.2304688
  28.1999302  47.3301773  69.9757996  27.8111420  47.5638542  69.1329041
  27.6736832  47.8019753  70.6213226  26.0829468  27.5516014  17.3102093
  26.2480659  26.8136387  17.8970470  26.6234474  28.2604809  17.6588936
  66.6170959  12.2544727  89.1932144  67.1636963  11.4872589  89.3630371
  66.8834686  12.5503979  88.3227539  19.0713425   0.3485514  79.0160141
  19.2968006   0.1737969  78.1023102  18.1152306   0.3937227  79.0223694
   1.0701405  26.2113152  50.3653755   1.2839952  25.6604061  49.6123848
   1.0940678  25.6144524  51.1133156  48.0704689  61.7848091  50.8958549
  48.1349869  62.5373192  51.4839020  47.2573662  61.9282913  50.4115906
  82.1358337  59.1530800  38.5130692  82.7651138  59.2687798  39.2250023
  81.5680237  59.9217148  38.5680199  52.3345909  62.4499435  59.5936012
  52.6097870  62.1373863  58.7317390  52.0380020  61.6627808  60.0503769
  47.7413254  51.2796707  25.7497520  47.0145416  51.8752441  25.9322662
  48.4056244  51.8317795  25.3372993   1.8956580  32.1617317  24.2939167
   1.3263056  31.5982418  23.7699394   1.3026402  32.8017311  24.6875687
  52.4077339  15.7801914  38.0725670  51.5049286  15.5985765  38.3336945
  52.8607330  15.9714565  38.8938103  21.4310360  18.7853947  46.3033714
  21.7479839  18.4821587  47.1541481  21.1838226  17.9847717  45.8406372
  83.6556931  35.0351753  37.7737923  83.3110123  34.2946320  38.2728195
  84.5709305  35.1021729  38.0459595   9.2773457  29.4783287   8.4910793
   9.6490154  30.0605888   9.1536999   8.7680035  28.8405933   8.9911766
  42.7047768  49.2104645  28.5424328  42.5059586  48.3817902  28.1065350
  43.4592209  49.0139771  29.0978069  13.4820766  48.1125793  61.2360840
  12.6110630  48.4604988  61.0449829  13.4226809  47.1832619  61.0145721
   7.8975120   5.6075516  31.9494934   8.6877594   5.7793021  31.4373989
   8.0582981   4.7581277  32.3604164  48.9025497  67.2889709  55.9454079
  49.4940834  67.1329880  56.6816063  49.3925514  66.9941406  55.1778107
  62.3370895  51.5317612  25.6435890  61.7095795  51.9628067  25.0633621
  62.9308281  52.2313042  25.9162655  79.0455170  15.2671013  13.5565548
  79.7887497  15.5002537  13.0002460  78.8328018  14.3676767  13.3075209
  81.9100571  34.5832634  66.6947937  81.1489258  34.1518135  67.0830841
  82.6039200  33.9249916  66.7330322  50.7412758  61.9713974  34.1768951
  49.7975769  61.8561935  34.2882004  50.8233337  62.5794983  33.4422455
   5.1783261  37.2405434  52.1854134   4.5221238  36.5715714  51.9901962
   5.3835473  37.6299820  51.3354378   0.8819095   2.4030888  34.7471886
   1.7027608   2.2633700  34.2750511   0.1998594   2.1986918  34.1074524
  50.3698921  12.7325287  19.6546478  50.9977264  12.2593536  20.2006893
  49.5194473  12.5494337  20.0539627  28.2799244  15.2314339  87.2659607
  27.5102367  15.5502901  86.7946472  27.9421253  14.9573431  88.1186066
  18.4172535  47.5487251   9.1479931  18.4782009  48.0104675   9.9842424
  19.3060284  47.5765877   8.7936802  73.4361496  14.2878742   6.8690758
  74.1812057  14.8777103   6.7541280  73.5560455  13.9182158   7.7438388
  78.4157028   2.3898973  58.3809738  77.6691437   2.0042636  57.9225349
  79.1662979   2.2006583  57.8179207  64.5651550  36.9812355  57.9091377
  64.6638947  36.1704369  57.4100494  64.3937149  37.6507645  57.2468948
  72.0493851  52.3848228  73.0730743  72.4764786  51.5292740  73.1162415
  71.2208557  52.2625732  73.5365677  69.4047928  18.9074554  30.5757141
  68.9565201  18.1063557  30.8468647  69.7035522  19.3035316  31.3943100
  50.8546219   2.5263500  57.4109039  51.2357216   2.0625453  58.1564751
  50.6811829   3.4080920  57.7405701  52.2923279  31.8241386  70.2971725
  51.9017601  31.5531807  69.4663467  52.7286453  31.0375652  70.6245270
  23.0408115  55.6827888  29.6885738  23.4982967  55.0217285  30.2081318
  22.7401009  56.3260078  30.3305035  65.1281433  69.9652863  68.7419739
  64.2743912  70.2272110  68.3973999  65.7033539  69.9584198  67.9769135
  50.6775284  36.7046051  37.8585320  50.1003036  36.5076027  38.5962563
  50.2616577  36.2790718  37.1087303  75.0291672   0.7331519   2.8431439
  75.0178909   0.5337009   1.9070222  74.8938522  -0.1128803   3.2699351
  14.4360046  31.1626110  16.9657612  14.6641617  31.0044422  17.8818169
  15.2564983  31.0361118  16.4892941  84.6333466  46.4249344  41.7537003
  84.6963577  46.6596985  42.6795235  84.4736710  45.4811516  41.7562599
  83.4579391  54.8608780  65.8861084  84.2786560  55.0413895  66.3444519
  82.7980194  54.8321877  66.5788727  20.6226444  69.3828812  12.1843843
  19.7629242  69.2200623  12.5724602  21.2052917  69.5021210  12.9344091
  85.1095963  43.6832352  65.2814255  84.6706848  44.5003395  65.5179214
  84.5099945  42.9962883  65.5726624  78.7604141  21.7577572   8.4000835
  79.1672211  21.4264183   9.2006779  78.0699158  22.3450089   8.7076292
  39.1716118  53.4212036  14.3057184  38.9133110  52.5026016  14.3811283
  38.3577766  53.8830910  14.1043196  81.6272888  25.2390862  28.9005985
  81.3267670  26.1182175  29.1309204  80.8633804  24.8213768  28.5028610
   1.8474575  60.5030518  84.9455109   1.6585364  61.4409409  84.9154510
   1.5840735  60.2337608  85.8254776  67.5049057  40.3812256  51.9032135
  67.7939377  41.2077866  51.5165749  66.5618591  40.3577118  51.7409210
  28.4369469  56.0320358  19.9559460  27.8042660  56.7464485  19.8813725
  27.9284382  55.2417908  19.7738476  18.6731033  17.6034851  72.9091263
  19.0883255  16.7477779  72.8014832  19.3580132  18.1564560  73.2850952
  33.4711533  38.6905785  13.1933537  32.9218864  39.3743401  13.5767727
  33.4372902  38.8563766  12.2512312  40.3754883  53.6665192  18.6195183
  39.5658836  53.9386978  19.0515957  40.8390350  53.1529236  19.2810154
  50.4075890  34.2886429  26.9811573  50.3782578  33.8260994  26.1436462
  51.3246231  34.5438805  27.0818176  43.5427094  49.6735268  35.5862923
  44.0005798  50.3984070  35.1606903  44.0734062  48.9030991  35.3837204
  55.7292023  14.1226673  56.9967575  56.2023659  13.3267937  57.2395210
  56.3667717  14.6395435  56.5042381  40.8413696   1.4954582  80.3298111
  41.5902557   1.9402120  79.9328384  40.3462715   1.1504411  79.5867996
  11.4219913  14.3307972  25.3253727  11.4273939  15.2813959  25.2132816
  10.5287781  14.1274281  25.6029377  53.2278862  34.9124870  79.4671555
  52.9080009  34.4328957  80.2312927  53.5120964  34.2307968  78.8582611
  27.0653934  47.3686485  64.9543839  27.8636112  47.2987137  64.4307480
  26.7974796  46.4621124  65.1048813  25.0833778  37.3783226  72.7207336
  24.2436047  37.5134048  73.1597824  25.6156425  36.9069824  73.3616486
  28.4009552  18.7893639  12.0261860  29.3502750  18.7768250  11.9042511
  28.0694199  18.1552200  11.3904371  18.9511833  19.9905949  83.8920975
  18.4167137  19.7879829  84.6599045  19.6077766  19.2945480  83.8668823
  78.6432953   3.2807570  26.4064198  78.9282913   4.0147653  25.8621387
  79.4560928   2.8961866  26.7346039  21.3356247   0.7072268  70.9809189
  21.8656063   1.5006481  70.9045258  21.4626293   0.2532351  70.1478577
  47.4337730  41.0436859  72.3822403  47.8600616  40.7606773  71.5732803
  46.8242264  40.3360901  72.5919800  19.3391304  45.6653404  41.1369667
  18.7265282  46.1728897  40.6046638  19.3711071  46.1295280  41.9734688
   6.3178334  17.6642399  69.9897079   6.1200318  18.5289898  70.3493118
   7.0146117  17.8232880  69.3529739  76.2408600  52.9652634  30.0102978
  76.7055893  53.2044373  30.8122025  75.8088531  52.1376457  30.2216072
  15.3291483  54.6032562  24.1306763  15.1785355  54.9582214  23.2545776
  16.1314869  54.0882111  24.0457497  83.7222214  25.0669079  23.5617809
  84.4440155  25.4862137  23.0933533  84.1140366  24.2889042  23.9585419
  44.4004707  27.4465427   5.4875283  43.5284500  27.4171677   5.8811564
  44.7048454  28.3401031   5.6460810  40.9578781  43.4366951  27.1917305
  41.8357239  43.8156586  27.1469631  40.7234993  43.2668648  26.2793388
  28.7172527  21.0159988   5.0824699  28.9930458  20.9190502   4.1710033
  28.9261303  21.9243088   5.3005872   5.1578679  67.9705429  10.1392879
   4.3434110  68.2754517   9.7393856   5.8222842  68.5853500   9.8281689
  11.4881124  69.3891373  27.1572113  12.2115173  70.0039368  27.2794571
  10.9768314  69.7607727  26.4383831  69.7284851  20.7502670  85.4755936
  69.8560104  19.9722347  86.0183945  68.8005676  20.9627609  85.5758133
  59.0588531  57.7221718  59.6940613  58.5235291  57.0373192  59.2932663
  59.9333382  57.3377266  59.7549858  45.4497452  39.0815887  28.1851482
  45.8296967  39.8877144  28.5344791  44.9654312  39.3619804  27.4085846
  22.5382843  38.0983849  87.9869919  21.6317196  37.8164024  88.1088867
  22.6509380  38.8178062  88.6082611  58.8097420  45.1199188  46.6492500
  59.7031670  45.3785629  46.8753700  58.4086800  45.9185867  46.3064499
  81.9484329  27.6220551  35.4283600  82.7440109  27.0915451  35.3854370
  81.6043701  27.4670601  36.3080368  25.3390255  34.2718773  64.1533585
  26.0559845  33.6763916  64.3715363  24.7801914  33.7674408  63.5621834
  78.0760193  59.2235069  24.9402542  77.3509903  59.4660568  25.5162125
  78.4711075  60.0581017  24.6880817  58.2793732  17.0809040  30.0814743
  58.0967216  16.1539593  30.2352409  58.1888466  17.4889221  30.9426117
  63.1859970  43.8288841  55.2288513  62.3449593  43.6904144  54.7932930
  63.4112549  44.7379761  55.0312462   5.1271038  13.0780554  10.0772476
   4.8013835  12.6767025  10.8828869   4.6547980  12.6273842   9.3772097
  16.3076134   6.5763745   9.3642044  15.8787947   5.9397130   8.7923584
  16.5575066   7.2925582   8.7803669  59.6849861  28.0860157  85.4557114
  59.7037811  27.9104824  86.3964920  58.7851448  28.3619919  85.2814865
  53.9549026  62.0513191   4.8149500  53.8293877  62.2553368   5.7416935
  53.9404373  62.9029121   4.3781323  16.7129135  68.6878128   7.3151164
  16.6423683  68.2301407   8.1528435  17.2877941  69.4314423   7.4961262
  51.2593575  33.3444405   7.2308817  51.0897484  32.5879936   7.7923532
  51.0915604  33.0266342   6.3437080  79.2023392  29.9910107  58.8941994
  79.6528168  29.1488037  58.9573097  79.4776764  30.4691162  59.6763954
  19.0869541  38.5767708  15.7172804  20.0164375  38.3988380  15.8609152
  18.7388229  37.7592850  15.3612585  11.2254601   2.4434996  76.0646820
  11.2146950   2.4549043  77.0217514  11.9417744   3.0319245  75.8261795
  19.2602043  53.8580246  47.9160728  18.4922924  53.5676994  48.4082642
  19.1573277  53.4568291  47.0531197  51.8605843   7.9248657  62.6604691
  51.2769966   8.5582666  62.2427788  51.4130592   7.6858420  63.4721489
  33.2668877  66.4215775  14.9542313  32.7746696  66.0246887  14.2355976
  32.7397003  66.2430115  15.7329617  17.9782505  52.7031975  12.5135670
  17.5850143  52.9264450  11.6699095  18.7544670  53.2603569  12.5709486
  53.0719414  55.8391495   1.0952976  53.3020592  56.7025337   1.4385828
  52.1319313  55.7596741   1.2574722  25.6686802   9.2523479  30.3494091
  26.3652821   9.4129105  30.9859619  25.7243252   9.9902306  29.7422314
  35.9108658  52.8096886  49.4560165  35.0139656  52.5875015  49.7058868
  36.4357224  52.0718117  49.7663383  72.1599121  60.7708969  32.3393745
  72.6518936  61.3871346  31.7967567  72.7595291  60.5467720  33.0510292
  50.3083420  19.5628090  80.8266830  50.9028549  19.3461838  80.1084518
  50.7283363  20.2990055  81.2714920  46.4704781  67.9165649  69.7483749
  46.3296280  67.1674423  69.1694031  46.0769958  68.6553955  69.2841110
  53.1898842  15.1946907  18.0302238  52.3375969  15.6050062  18.1767807
  53.7184219  15.8799152  17.6211414  54.8561020  13.4620218   9.2793198
  54.7990456  13.1488886   8.3765888  53.9841270  13.8087931   9.4681101
  49.1146202   0.5458513   9.2336941  49.6245155   0.8167911   8.4702616
  48.7453194   1.3598113   9.5762148  74.4509430  25.3375950  35.7135544
  75.2170792  24.9198952  36.1069946  74.7136459  26.2493324  35.5872498
  82.5762405  42.0295105  65.3428268  81.9841156  41.4803734  65.8566971
  82.0391541  42.7749901  65.0744400  10.4750843  34.9686661  14.1487656
   9.9220171  35.4747047  14.7439747  10.9964418  34.4087753  14.7240419
  52.3107567  54.2691383  77.5791397  51.3557968  54.2918472  77.6404953
  52.5720291  53.5631218  78.1703339  52.5881386  47.9826393  35.1778870
  51.7388840  47.8772316  35.6067085  52.8742790  47.0886993  34.9902039
  58.6961441  65.9678116  35.7303581  58.9290276  66.5762177  36.4316750
  57.7397156  65.9346848  35.7497978  62.1837845   3.9807112  87.0437317
  62.4816208   4.0482311  87.9509125  62.8920059   4.3684711  86.5296402
   6.4389524  11.6344061  84.5060730   6.0449982  12.3288898  85.0340195
   6.0551133  10.8268318  84.8477249  81.3876724  18.5692501  54.9791946
  81.8001938  18.3159027  55.8049507  82.0350723  18.3472023  54.3100166
  24.3029213  40.2760124  44.1631126  23.3594685  40.4373055  44.1737518
  24.6953297  41.1433296  44.2631569  44.6214447   6.9761901  14.6742735
  44.2878151   6.1735244  15.0750885  44.4768982   6.8533888  13.7360525
  82.9260101  48.9125366   7.7106009  82.4732895  48.0705986   7.7597609
  83.7885132  48.7431908   8.0896187   6.7395606  23.4696007  17.1404896
   7.4214468  23.8122520  17.7182903   6.3525834  24.2476101  16.7390156
  85.2045746   0.0497791  73.7527924  85.0879669   0.8302760  73.2110748
  85.9453125  -0.4086408  73.3560791  17.2210712  51.6553001  86.8134003
  16.3774776  51.9526672  86.4725800  17.8698425  52.1403847  86.3034744
  25.2033310  44.5233383  61.2913399  24.7269669  44.5381165  60.4612274
  25.8337784  45.2399025  61.2184906  68.8600464   4.8708344  88.5300369
  69.0674820   4.3804331  89.3254623  69.6945496   4.9388871  88.0661392
  19.2310410  59.9859276  77.0466537  18.7285347  59.3492126  77.5549011
  18.7536049  60.0634575  76.2206497  49.0003548  69.1824493  44.4401779
  49.2200661  69.7651825  45.1670799  48.9782829  69.7543869  43.6729546
  31.9712296  11.6603689  84.7408218  32.1108818  11.4916019  83.8090286
  32.8459435  11.8403749  85.0853577   6.3022971  26.3463459  26.4133167
   6.4896483  26.2715092  27.3490162   5.3528857  26.4592342  26.3674278
  14.6456871  25.7588634  52.7822876  15.4847775  26.0296631  52.4096947
  14.3406649  25.0604839  52.2031021  17.5527153  23.9058094  14.2770844
  18.2514706  23.6511383  14.8796759  17.9191895  23.7513905  13.4064054
   4.6939497  63.3247337  57.2341537   4.3002892  62.9124718  56.4651909
   3.9768741  63.3889732  57.8649521  75.4780045  54.5646172  87.9818497
  74.8023300  55.1139412  87.5844345  76.2818527  54.8012962  87.5191956
  33.3678474  37.2122688  76.8971863  32.7518234  37.8065186  77.3256836
  33.1966629  36.3600273  77.2979507  79.0427246  64.2127838  86.9845428
  79.7045746  64.8943863  86.8679352  78.9909897  64.0887985  87.9322739
  53.2687149  15.3021460  12.9239845  53.5407410  16.2121773  13.0426311
  52.4149399  15.2494249  13.3535414  23.3106155  44.1880264  43.9583740
  23.3863182  43.4160614  44.5192375  24.1812611  44.2913208  43.5742645
  43.8553314  30.3359394  74.2490692  43.5562782  31.1027031  73.7603226
  44.8092461  30.4146538  74.2579575  41.6110573  25.6485138  58.9049873
  42.0843735  26.1383095  58.2324524  40.9305534  25.1775818  58.4239807
  64.7969818  49.0550232  79.2838211  63.9913597  49.3972473  78.8964081
  64.5309830  48.2392883  79.7081451  70.9814301  11.3750277  15.9319773
  70.8904419  10.4984922  15.5582952  70.0822754  11.6619520  16.0914135
  84.1777802  41.1713600  72.2512894  84.3138351  41.9276237  71.6805115
  83.6205673  41.5006905  72.9564819  52.2158241  44.6822853  31.2817593
  51.3409462  44.7595825  31.6623459  52.4099922  43.7456093  31.3159485
   1.2833502   2.9392855   5.0985675   1.4127196   2.5560038   5.9660873
   1.1390792   3.8704050   5.2671914  18.5690823  36.4152222  77.4952774
  18.2324963  35.5466995  77.7157516  18.6862144  36.3927002  76.5455322
   8.1784992  12.9000168  11.4588718   7.7209911  13.0625763  10.6339512
   9.0436115  13.2901258  11.3338671   1.5835172  62.1306801  30.5449753
   2.3942571  62.1243515  31.0537910   1.8414048  62.4695053  29.6876984
  84.4803085  25.6628380  53.0829887  84.5446930  24.8587132  53.5982246
  83.7985077  26.1732635  53.5198479  25.3063259  21.8341846  40.4534569
  25.5085793  22.1640759  41.3289566  26.1440449  21.8535728  39.9907646
  34.7963791   8.9280100  17.2739601  34.9157791   8.8742189  16.3257618
  34.4465561   8.0717449  17.5202694  43.6156960  60.9555397  48.3998566
  43.7779083  61.6379852  49.0511551  44.3521652  60.3518715  48.4969635
  59.8286552  32.6840019  44.4407234  60.1478729  32.6557350  45.3426819
  60.6220665  32.6724548  43.9053802  69.1416092  60.4872055  51.2403221
  68.7604904  60.9115639  50.4716225  68.6939316  60.8913307  51.9836235
  85.9832458  41.4069481  21.9522133  85.4683151  42.2124825  21.9053307
  85.9188385  41.0300941  21.0746803  77.4539108  18.0194836  77.8462982
  78.1982040  17.4502602  77.6507263  77.4437790  18.0808296  78.8014755
  81.3112106  16.3899498  11.9111509  81.5725021  17.1911373  12.3650856
  81.8072357  15.6959791  12.3454266  20.0630322  48.6960869  69.7851028
  20.9951363  48.7515755  69.5745468  19.8612080  47.7617874  69.7342758
   2.6452446  53.2869377  87.7405777   1.8779815  53.8435707  87.6075439
   2.3059874  52.5161972  88.1956558  29.0080509   1.7864342  32.4532585
  28.0937061   1.8067056  32.1707764  29.0419216   1.0861796  33.1049690
  13.4937801  44.2968903  74.3304138  12.7406969  43.8324280  74.6956100
  13.1110792  45.0176697  73.8301620  84.2986450  69.7802505  81.6722260
  84.3649673  70.4992218  81.0438004  83.3594437  69.6878433  81.8322067
  51.5135727  28.4281311  83.3297577  51.3034859  29.3548717  83.4448395
  50.6842690  27.9741611  83.4794083  62.2429581  45.5901833  34.8099403
  61.7383041  44.9047241  35.2477760  61.7499046  46.3936653  34.9759102
  76.2410049  51.5243187  54.0560493  76.5956421  50.7944870  54.5637970
  76.9720306  51.8138885  53.5101662  53.3823853   2.1620197  31.6466637
  53.9812317   2.6698945  32.1940918  52.6217957   2.0044835  32.2060509
  53.7835922  51.1149979  51.3238449  52.9110374  51.4463615  51.5361710
  54.3355560  51.4133873  52.0467110  69.3120041  -0.2742561  76.2091141
  68.8885498  -0.0771129  75.3736191  69.9431229   0.4350145  76.3310013
  84.2451019   7.8616195  24.4822540  84.3772507   8.1643152  23.5838432
  84.9629211   8.2575560  24.9764233  47.4109688   7.1341057  65.3580399
  46.9076920   6.3457985  65.5617905  48.1951942   6.8098154  64.9152527
  79.1559143  19.5511303  60.1269035  78.9445877  18.6287079  59.9829826
  78.9729080  19.6967754  61.0550880  59.9842606  37.1557236  45.3727303
  59.8779182  37.7330627  44.6166840  59.1199074  37.1374245  45.7835693
  43.9981079  70.7694168  66.4780273  43.4178696  71.5245667  66.5744781
  43.4823799  70.1327591  65.9831314  40.0662727  62.2170372  65.2007141
  40.8265228  61.6383018  65.2582779  39.4783173  61.9094353  65.8905869
  39.1220741  44.1466446  46.8198624  38.7319794  43.3643532  47.2098351
  38.5108032  44.8513718  47.0342026  45.0783653  59.0824432  87.3752136
  45.9834824  59.2283211  87.6503754  44.5515289  59.5270119  88.0393143
  69.5850525  25.2821560  60.4538727  68.6494980  25.1745300  60.2824211
  69.9267349  25.7007866  59.6637917  66.5100250  16.4686184  10.4144907
  66.2253265  16.1037312  11.2523642  66.1368179  17.3499069  10.3978481
  76.1346512  40.6886139  52.4941216  77.0061798  41.0691032  52.3850746
  75.5415344  41.3347893  52.1108437  19.6063251  58.3711815  64.0042801
  20.3693447  58.4693871  63.4347343  19.9651623  58.3935127  64.8913956
  45.0166588  57.6084099  36.8058395  45.6926765  57.9802971  36.2393303
  44.4424019  57.1276970  36.2097015  33.0313416  61.9363518  59.9096832
  32.1233749  62.2004967  60.0581970  33.5161934  62.7604370  59.8645096
  76.2389984  24.9923859  65.9589005  76.2639847  25.9190693  65.7204361
  75.6635132  24.5926876  65.3067703  61.5643806  46.8656158  20.4501858
  61.9055443  46.3676720  19.7072926  62.2858505  47.4409904  20.7044563
  55.6644402  41.1745949  46.7169876  56.4647102  41.0084114  47.2151680
  54.9584465  41.0629082  47.3536415  84.2482910   1.4960335  69.6277008
  84.7837296   0.7175962  69.7812424  83.5161514   1.1822598  69.0969086
  64.3709030  37.5161819   5.6791353  64.8695984  36.7444077   5.4109960
  64.5835953  38.1789589   5.0220828  69.0330887   8.5413284  43.9912376
  69.1944046   8.1988277  43.1120872  68.2107925   8.1320419  44.2605820
   9.1181116   6.3736467  15.7035551   8.6044083   6.9426727  16.2767487
   8.5330830   6.1805482  14.9709673  50.4711075  62.8278961  67.4882355
  51.2446480  62.3572540  67.7986603  50.8110352  63.4486427  66.8437576
  31.3563099  39.8144264  58.5603600  32.2815514  39.5699501  58.5405617
  31.2434330  40.3864708  57.8012466  58.8026657  21.7106266  51.3796005
  59.1617966  21.0668983  50.7689667  59.4184608  22.4426575  51.3455048
  62.2201309  34.0408630  40.1212578  63.1382141  34.0351601  39.8504868
  61.9615898  33.1193008  40.1107597  80.5824356  26.6570015   8.5704594
  81.0208435  25.8103523   8.4855080  80.6662521  27.0579910   7.7053494
   1.7585347  23.5741501  73.3541336   1.8344647  22.6211052  73.3075256
   1.4119827  23.8289089  72.4990082  65.6731033  54.3411484  56.0713615
  66.5041275  54.8078918  55.9830856  65.1122437  54.9414520  56.5625801
  54.4868507   0.9253951  76.7661591  55.2089958   1.5232582  76.9592819
  54.8992157   0.1904967  76.3121643  85.8702774  62.6215515   6.4022102
  86.3031693  62.0348015   7.0223422  86.5362320  62.8025627   5.7389059
  52.7413292   9.7962170   3.7498231  52.2511711  10.5223036   3.3641117
  52.1298561   9.3961134   4.3680868  13.0603752   8.1819906  10.0279303
  13.7158775   7.5858507  10.3900986  13.2387791   9.0209179  10.4529066
  82.8965683  30.2292118  47.9728813  83.3678665  30.1683521  47.1419678
  82.1140060  30.7407055  47.7674599   1.9475443  62.2216568  38.2023010
   1.0721461  61.9296188  38.4565125   2.2574251  61.5494766  37.5953560
  80.0476151  62.3565559   6.9603705  80.4993286  61.5156326   6.8894219
  80.6820450  62.9971123   6.6387868  60.8242264  68.3522949  25.5806160
  60.7015915  68.6667175  26.4763451  61.4804764  68.9410400  25.2078552
  50.7942886  52.1818924  54.6199799  51.7412148  52.1034622  54.7357864
  50.4412041  52.1551552  55.5092773  35.8592300  58.2266159  39.8033905
  35.6916428  58.8084068  40.5447845  36.6476784  58.5822029  39.3933449
  73.4517517  56.5033417  16.0561695  74.2744675  56.8863297  16.3606148
  73.6423416  56.2012558  15.1681089  35.4394226  43.8299065  37.9927979
  34.5209618  44.0303268  38.1730537  35.7563972  43.4164085  38.7957802
  31.2304173  64.3681488  27.7762623  30.4135113  63.9070129  27.9666576
  31.0077896  65.2951355  27.8620834  66.5427551  36.2283020  45.4452591
  66.7339401  37.1481171  45.2618942  65.5953293  36.1532669  45.3313332
   2.7983341  42.5131683  31.5999241   3.7287588  42.6070442  31.8042030
   2.6391850  43.1547852  30.9076576   7.6829505  43.4442902  34.2427673
   8.3728027  42.8839455  33.8873062   6.8860703  42.9191437  34.1690369
  65.9602051   2.4777703  16.7051392  66.3916931   1.6829070  17.0185833
  66.6201630   2.9109855  16.1638260  85.5571213  47.1911545   4.3148618
  86.5092087  47.1464920   4.4029775  85.2285385  46.5374680   4.9320812
  36.6164055  50.0207901  66.0067062  36.9876900  49.3044128  66.5216675
  37.2956314  50.6952324  66.0100250  76.8113937  44.2567368  27.6174431
  77.5719757  44.8220253  27.7523575  76.8717117  43.6036263  28.3146095
  61.0799675  55.0877991  23.9430752  60.2907486  55.5687523  24.1921673
  61.8000984  55.6089020  24.2981796  49.0284767  71.6375275  12.0950441
  49.6651344  70.9672775  12.3433523  49.2069130  71.8063354  11.1698980
  29.7922440  15.9615555  77.5196228  30.1681747  16.2078648  76.6744919
  29.2769890  15.1767578  77.3329773  45.1672935  22.1847363  13.8657846
  46.0368347  22.1203289  14.2607317  44.5720062  21.8651085  14.5437975
  54.4105453   1.6399031  72.5152817  55.0322342   1.5515692  73.2377319
  54.2888603   2.5843537  72.4181366   6.9045110  36.1753845  69.6958389
   6.7976346  36.2077942  68.7451706   6.4871240  36.9769707  70.0112457
  21.8965092  40.4265747  20.2910366  22.4608574  41.1429138  20.0001812
  22.4945297  39.8021851  20.7018223  75.8658218  18.8619747   1.3230351
  75.1457062  19.3835907   1.6774035  75.8036346  18.9805031   0.3752399
  77.5390472   9.1636591  62.4212799  78.2271576   8.5897474  62.7579765
  77.5078430   9.8905973  63.0432281  46.8362732  60.2485123  85.2848892
  47.6544685  59.8255615  85.5454712  46.9830971  60.5155411  84.3774872
  17.0344086   4.9741883  70.6974258  16.6804104   4.1171980  70.9350891
  17.9785995   4.8882127  70.8291245   2.5567491  10.4596233  19.3290558
   2.6665337  10.3384285  18.3859272   1.6917567  10.0959606  19.5181828
   4.8737726  65.5693207  11.7334290   5.0857382  66.4035187  11.3146076
   5.6181874  65.3944016  12.3091736  32.6075287   5.6722217  74.0831375
  32.1453552   5.9283061  73.2849808  32.7896767   4.7398715  73.9657593
  68.2263260  39.8964043  34.3022118  68.1580811  40.0926781  35.2365837
  69.0379868  40.3224258  34.0266380  57.4612617  16.8241539  64.6606445
  58.3100700  16.9242535  64.2296753  57.3733482  17.6088409  65.2017288
  44.6038818  36.0325813  88.0804520  44.7424622  36.9018784  88.4564056
  44.8362694  36.1311226  87.1571274  51.1381187  61.1615677  41.5914345
  52.0784264  61.3397408  41.6089668  50.7443848  61.9083672  42.0425377
  15.9663095  30.7240391  63.6556244  16.6648350  30.0880718  63.8100281
  16.1840134  31.4619236  64.2251511  15.6575451  59.6388931  39.8449707
  16.0646420  59.1871643  39.1057510  15.9116592  60.5551834  39.7351189
  80.0314102  52.8209305  83.6397934  79.2008972  52.3487320  83.5805130
  80.6420593  52.1855278  84.0134277  68.9722824  58.5287781  45.7763634
  68.7602615  58.0944595  44.9501419  69.6573257  57.9842834  46.1642799
   3.2794342  16.8140526  64.9965210   3.1626563  16.4791508  64.1074600
   4.0540380  17.3737221  64.9418259  66.5955505  34.1165848  46.9064178
  66.1009979  34.3092461  47.7029915  66.6146240  34.9464340  46.4297409
  78.4160995  71.1064911  71.4548569  78.4109497  72.0396423  71.6679916
  77.7947235  70.7168884  72.0699539  85.2970276  56.2257996  52.4551544
  85.1615448  55.2783737  52.4390373  85.4002991  56.4372330  53.3829803
  83.2565002  10.8260956  11.3063831  83.2153702  11.1950588  12.1886559
  82.8245468   9.9752741  11.3822041  18.4471397  55.6903915  66.1085739
  18.3604317  54.7390289  66.0483704  18.7951145  55.9535713  65.2565842
  14.2425699  56.8218613  70.5838928  14.0636702  56.6428299  69.6607590
  14.9973431  57.4104195  70.5718231   0.3144166  46.5696487  86.7192917
   1.2551110  46.6280098  86.5521927   0.1116441  47.3568344  87.2247162
  82.6442032  67.5186157  78.9003296  83.5540695  67.2769547  79.0734253
  82.2562485  66.7320251  78.5169220  61.8883781  27.6861572  53.8470459
  62.6325035  27.6642342  53.2453537  61.4708138  28.5312939  53.6808701
  78.5733948  19.8614941   6.0099230  78.0439224  20.4228859   5.4435925
  78.9513931  20.4597950   6.6544251  81.3527603  35.7683678  58.0529671
  80.8944778  34.9695740  57.7919312  81.4841309  36.2473907  57.2347298
  31.1500893  55.4476738  67.1970825  31.8394318  55.2750473  67.8383636
  30.8187885  54.5808525  66.9623642  22.4409924  44.5997086  64.9707642
  21.6715832  44.5623741  65.5389633  22.3554344  43.8351936  64.4011765
  69.5322571  67.6030807  35.6963348  69.4475784  68.3712234  35.1315231
  70.1517792  67.8717499  36.3747444  45.7590904  65.2885513  68.2538986
  45.3554955  64.9608078  69.0575943  46.5805511  64.8023453  68.1828842
  42.6979370  51.9174309  43.0714188  42.6820946  52.8435402  42.8299675
  42.3750648  51.8992386  43.9723358  76.0583038   0.3398740  45.9800072
  76.5588379   0.0179599  46.7297173  76.5794449   0.0873648  45.2178497
  58.6531105  23.7702541  47.2380905  58.4860878  24.6554070  46.9143028
  58.7131271  23.8701134  48.1881752  65.2331772  58.7650719  59.1500854
  65.6932831  58.2800179  59.8351097  65.5950775  58.4252205  58.3316956
  52.9658279  58.1082993  47.0721588  53.2252693  57.2439537  46.7530594
  52.1754532  58.3197212  46.5753288  43.4376106  31.9383621   0.4323858
  43.9262772  31.1153984   0.4195195  43.4455376  32.2072868   1.3509982
   2.6932249  57.2446251  68.8630676   3.5738249  56.8969688  69.0041656
   2.4928555  57.7230453  69.6675568  86.4215393  20.7567024  67.8152008
  86.4334564  21.4846516  68.4366302  85.4971237  20.6471786  67.5922928
  75.3933334  44.9181900   7.7157974  74.8315811  44.1614151   7.5485806
  74.7879105  45.6571198   7.7765017  42.7174759  49.9901085  81.3440933
  42.6042824  49.4424744  82.1209564  43.5296478  50.4701920  81.5057449
  83.3319550  37.0386620  17.7948895  83.3652420  36.3179550  18.4239445
  82.4228668  37.0535736  17.4956264  81.2340393  20.9629040  56.3972740
  81.7456741  21.6524734  55.9742470  81.2586060  20.2327766  55.7787704
  13.6052685  21.4638844   6.9096169  13.4424553  21.3101826   7.8402615
  13.5022840  20.6034164   6.5031424  57.2167473  62.5274773  52.2856674
  57.1128578  62.1660576  53.1659050  57.0011292  61.8006401  51.7013321
  22.6705437  31.8655453  70.7725296  21.9982414  31.2040329  70.9357529
  23.0581360  31.6115417  69.9349823  74.7240295  23.5941181  64.3766708
  74.5160599  22.7513008  63.9733810  74.6073456  24.2318783  63.6724815
  71.3280258  27.1282635   7.6613832  72.2338867  26.8360729   7.5600324
  71.1115112  27.5329914   6.8214145  77.7345123  34.8234711  30.5424881
  77.8156891  34.7470627  29.5918026  77.4967041  33.9433250  30.8340759
   0.3698973  10.1439447  75.1845779   0.6663812   9.2928839  75.5071030
  -0.3650255   9.9383335  74.6067810  85.3785629   9.6842442  80.0395279
  85.3984528  10.0978527  79.1765366  84.4504852   9.5169678  80.2036209
   1.0367719   6.1709828   9.9157286   0.3104616   6.3879604  10.5002165
   1.5927490   5.5867310  10.4312582  35.7408943  32.1462517  68.3673325
  35.5606537  31.3537712  67.8616486  35.6109467  32.8620529  67.7452621
  83.1727448  67.7900009   1.4802754  83.8079453  68.4995346   1.5767840
  82.6178818  68.0629959   0.7496332  59.9075546  35.2965698  15.5699549
  59.1308212  35.6573524  15.1424580  59.6009483  35.0268173  16.4356670
  81.5782242   0.9762814  32.2455025  81.8498383   0.1462753  32.6373520
  81.0050125   1.3742405  32.9007034  12.4785366  45.8298302  20.6001091
  11.5315456  45.9155426  20.4901409  12.6525497  44.8989449  20.4608250
  79.3578186  37.1443367  52.3292999  80.2557373  37.4732094  52.2866173
  79.3735733  36.4955368  53.0328941  45.4334526  21.3782444  85.3089523
  46.1733131  21.8229046  84.8952942  44.7787094  21.3059959  84.6144562
  59.6179237  61.8900337  61.9250832  59.3553581  60.9695816  61.9177780
  58.7944031  62.3735008  61.9907150  79.3046341  23.0069885  21.9583359
  80.2561188  22.9027100  21.9644413  78.9660034  22.1129436  21.9109650
  28.5685844  58.3086281   4.5213299  27.6411667  58.0750275   4.5608053
  28.7995968  58.2167053   3.5969837  63.9172630  56.1566505  77.0742569
  63.0590820  56.3714256  76.7087021  63.7512856  55.4137383  77.6545715
   6.4549112  51.5793343  49.2396622   7.4017129  51.6830750  49.3347168
   6.3384218  51.2486649  48.3489761  49.1523170  61.9947586  77.0236816
  48.3969269  61.5989189  77.4583435  48.8825455  62.0851860  76.1097488
  43.0042191  11.0802536  10.7616444  43.1019020  11.6621227  11.5153799
  43.7161942  11.3298244  10.1725435  40.1292496   6.0517526  78.4171448
  39.8302193   5.6178870  79.2162476  39.8766098   6.9677105  78.5330124
  55.3482742   9.9373436  51.6201591  56.1504097  10.0993233  51.1235962
  55.6374550   9.8820467  52.5309563   9.0835400  68.2075424  26.8762779
   9.1529951  68.7021332  26.0597076   9.9275312  68.3388138  27.3083401
  54.0663300  17.9179478  23.0366707  54.1545677  18.8573818  22.8757095
  54.2820969  17.8123970  23.9632416  79.7459106   6.1322484  84.7819595
  78.7985992   6.2289267  84.8793716  80.1155396   6.7096858  85.4499130
  76.4317932  67.0345078  62.0643044  76.3102188  66.5025253  61.2778969
  77.3106384  66.8113098  62.3709564  10.1386957  55.7224083  64.7032928
   9.6622353  56.2352104  65.3561707  10.9414330  56.2198868  64.5472183
  30.4368763  48.2898750  11.5024452  29.9846992  48.4660492  10.6773815
  31.2346859  47.8281479  11.2444830  64.4590607  45.7608566  47.9276619
  64.9683838  46.4809189  47.5557365  64.9973221  45.4341202  48.6486015
  64.1313782  11.3850832  16.4009590  64.6220474  12.1986008  16.2840576
  63.2131310  11.6549397  16.3858948   9.4504299  51.3731155  68.8151016
  10.2690630  51.7067032  69.1822357   9.5419750  50.4210014  68.8516312
  18.4746361  22.0773449  88.7471466  19.2173252  21.5856285  88.3966370
  18.8325729  22.5473824  89.5002594   6.5327096  67.1884384  36.2364006
   6.8183160  67.6382599  37.0315895   7.3442922  66.9867325  35.7706985
  80.7138596  19.1670437  27.6937275  79.8295746  19.1022396  27.3330708
  81.0459366  18.2694588  27.6764736  22.9073887  55.4774437  73.5513916
  23.3100033  54.6140671  73.6447372  22.1742115  55.4676056  74.1666870
   1.5540859  38.5867004  65.7425842   2.2188232  38.0483971  65.3129501
   1.6738234  39.4594002  65.3680267   3.0873795  49.6131172  68.5473099
   4.0018954  49.8187981  68.3534317   2.9393330  49.9788055  69.4194260
  78.8795624  67.0302505  46.4567833  79.5268173  66.3472748  46.2811813
  78.0350418  66.5999069  46.3232613  80.0830002  53.7779846  11.2940092
  80.3086014  54.5721817  10.8096666  79.6568146  53.2158203  10.6470394
  28.5058384  63.8319054  28.9967155  27.5880814  63.9482460  29.2425156
  28.9847355  63.8928032  29.8232632  20.9791298  39.8681450  64.5013580
  20.6902981  39.0834961  64.9673309  21.2840786  39.5446587  63.6536598
   8.1779871  36.3731651  22.5121574   7.4174576  36.7192383  22.0451870
   8.4339247  35.5982246  22.0119667  77.0028229  44.1069107  75.8840866
  76.0768661  44.1251259  76.1259460  77.0012589  43.9290848  74.9435501
  72.8087769  26.0792770  51.2393188  72.9077835  25.1608467  51.4901466
  71.8793259  26.2651463  51.3727493  81.9980774   1.7586999  38.7118912
  82.3011246   1.5733653  39.6007385  81.1175308   1.3850571  38.6762657
   3.4261074   4.1995497  71.3998032   3.5021510   5.1430445  71.5421677
   4.2250752   3.8347464  71.7803345  56.0480499  55.6509132  10.5764799
  55.3606339  56.2876511  10.7720737  56.0504456  55.5868225   9.6214304
  73.8467484  13.7245436  72.3822479  74.1735687  13.0488319  71.7882462
  72.8940887  13.6439304  72.3357697  84.1551437  41.8680611  84.4452744
  83.7190628  41.7653885  83.5993881  83.8174667  42.6947021  84.7900543
  46.5047112  26.0133686  59.9158173  47.0536194  25.7527981  59.1761971
  47.1133385  26.4147015  60.5360870  26.0635109  45.1297951  18.2586193
  25.7636967  44.7913284  19.1022930  26.4471893  45.9820709  18.4651432
   4.2287292  28.1077976  39.8655014   4.9722919  27.5329895  39.6840019
   3.6790340  27.6056213  40.4670677   1.1372340  19.7421608   5.6305428
   0.8800005  20.2471390   4.8591413   1.7561619  19.0929451   5.2963605
  28.7284374  35.5688667  12.8151731  29.6703815  35.7039299  12.9187670
  28.4540424  36.2532501  12.2047997  54.9520950  53.0516052  27.0962791
  55.5387611  53.1539574  27.8456669  54.3666382  52.3367958  27.3463097
  76.2367020  18.4601707  51.9914627  76.1852264  18.2744408  52.9290581
  76.4859619  19.3830986  51.9434509  16.3407135  61.0771904  79.3081970
  16.0162983  61.7138863  78.6713333  15.8438253  61.2612953  80.1053467
  80.7480621  30.0655975  22.7615776  80.7749786  29.7958889  21.8435555
  79.8516693  30.3739147  22.8944454  78.7598572  22.6009064  38.5442123
  78.6639404  21.8185883  38.0010605  79.7022095  22.6731930  38.6957741
  42.6289825  56.2944679  57.8894844  42.3186531  56.0733948  58.7675819
  43.3054085  55.6432533  57.7034988   7.0816140  68.2624741  43.7656097
   6.7062826  68.0831528  42.9035187   7.4802790  67.4335175  44.0304108
  -0.0584912  59.0308571   3.9040890   0.6378959  58.8713684   4.5411448
   0.2996161  59.6994247   3.3201323  25.6064873  59.8169632  25.4061928
  25.8716621  58.8972664  25.4149704  24.6599865  59.7946854  25.5471592
  30.9708958  62.3305130  55.7501945  31.7151260  62.7571564  56.1748466
  30.8209629  62.8444672  54.9567184  11.5252972  57.8522530  44.5185280
  11.5166197  57.4269524  43.6610451  11.8044300  58.7498474  44.3378716
  70.3683014  61.4534378  81.5642471  70.8187790  60.8352280  80.9888153
  69.4454498  61.3775406  81.3217468  24.4232883  48.2875862  76.6014252
  24.4185467  47.3949280  76.2559280  23.9528522  48.2251740  77.4327011
  57.1140671  45.1488724   7.7006497  56.2881165  45.1637268   8.1841936
  57.0847931  45.9329834   7.1524343  65.1323700  64.0219345  55.4298592
  64.2200470  64.0465622  55.7184792  65.5275574  64.8025284  55.8180962
  79.8673248  50.0365868  19.0340424  79.8094101  50.9042206  18.6339340
  80.1030579  50.2084923  19.9456940  74.1166763   8.9453974  52.4042702
  73.8882217   9.7196159  51.8898506  73.4498520   8.9081240  53.0899734
  43.0809212  39.7469635  16.1805820  43.3588600  40.3751907  15.5140162
  42.7904053  38.9826088  15.6829929  51.8323402  71.2513657  13.5474310
  51.4790230  71.6278915  14.3534250  51.9464684  70.3221970  13.7470818
  50.3526154  30.8110390  83.6837311  50.6080818  31.6441994  84.0797272
  49.4129753  30.8997784  83.5242615  77.4362640  52.8785667  63.1205597
  78.2248306  52.8531685  63.6625481  76.9806290  52.0612755  63.3221970
  52.6411743  57.5304413  71.1694107  53.5279617  57.2826958  71.4310532
  52.2873077  56.7461853  70.7499390  23.5328140  52.9823799  71.3699417
  23.9402313  52.8907089  72.2312393  23.5321712  53.9251556  71.2044067
  73.5937576  69.9611130  14.1344786  74.3274689  69.9478989  14.7490759
  73.7186966  70.7646713  13.6295843  13.0565729  50.8454857  59.4174805
  12.2939091  50.3978806  59.7838478  13.6631222  50.9266396  60.1535110
  73.3339081  58.2247734   5.7462773  72.8317184  58.6704254   6.4285007
  74.2084351  58.6098518   5.8024306  14.6278019  56.0409775   0.3394021
  15.2131824  56.7926826   0.2472151  15.1736517  55.2845764   0.1246067
  64.6456299  13.3915386  76.7258148  64.1085434  12.7064934  76.3277206
  64.0675201  14.1530914  76.7711792  49.1321144  56.4171257  69.9664917
  49.6864586  55.9158859  70.5645676  48.3451157  56.6114845  70.4755020
  62.3845329  18.0465965  80.3261566  62.0806770  18.9519463  80.3913269
  62.0762596  17.6319065  81.1319046  79.7829208  51.4955902  47.0110779
  79.3657837  51.5179939  47.8723106  79.5273972  50.6496887  46.6431198
  50.8231125   6.4911089  10.1499214  51.6034203   6.2417111  10.6450491
  50.8395805   7.4481421  10.1429977  12.8525076  46.6031761  87.5796585
  13.3848724  46.6217651  88.3749466  11.9713192  46.3893089  87.8862534
  44.0785904  28.9119949  17.0856056  44.4792595  29.2342052  16.2782173
  44.5783081  28.1252251  17.3035641  25.8973160  52.5220375  27.8001595
  25.0033550  52.4422836  27.4674339  26.1270199  51.6372566  28.0841122
   6.0880232  38.6457024  13.4613123   6.9528570  38.4840965  13.0842476
   5.7938633  37.7862358  13.7630024  16.2547798  13.1744728  47.5354118
  16.9459667  12.9345894  46.9182014  15.4731007  13.2754183  46.9922562
   8.3959646  33.8063431  20.7466354   7.5890450  33.2982712  20.8301487
   9.0774107  33.2329865  21.0975266  34.1915894  63.7623215  15.0614309
  33.8255959  64.5654297  14.6908998  33.4551010  63.3491516  15.5121050
  79.5180969  63.6992340  17.1807671  78.9017792  64.4223175  17.0644436
  80.1291199  63.7852554  16.4489956  86.4883347  53.4931755  84.0560532
  86.2237930  52.8427353  83.4055328  85.9192352  54.2444229  83.8887558
  86.2310028  42.8499565  32.8873482  85.5800400  43.4449387  32.5152206
  86.5123901  42.3103790  32.1484909  47.2912292   6.0795417  16.3922615
  47.1709442   5.8012905  15.4843292  48.1096458   5.6639237  16.6637154
  60.1576576  26.1929474  27.6092167  59.2137604  26.3353863  27.6799698
  60.4377670  26.7859344  26.9119816  58.4191208  30.5492649  67.9225616
  59.2171288  30.9683380  67.6003876  58.7195168  29.7257462  68.3070221
  25.0419159  53.9794807  38.4192963  24.2522602  53.5962486  38.8011475
  25.4524994  53.2575378  37.9434280  58.6613197  53.4252281  63.5025406
  58.6785507  53.3520050  62.5483017  59.5835915  53.4499550  63.7575531
  29.0310345   0.2623979  42.1324081  28.1233597   0.1159600  42.3987083
  29.2869453   1.0657760  42.5855370  71.0374451  36.5223198  52.3846664
  71.7687531  36.9877243  51.9786835  70.3323364  37.1686935  52.4202271
  15.3269730  55.7241020   5.8399315  15.7946215  56.5161781   5.5750647
  15.4566135  55.1150284   5.1129827  36.5345459  28.2624207  45.7287025
  37.0893593  29.0256863  45.8894539  36.4852409  28.1987724  44.7748947
  20.6878357  20.1875992  30.7226524  19.7597141  20.3375740  30.5428524
  21.1250610  20.9744186  30.3971043   4.2351909  13.4763899  55.9332123
   4.6711702  12.7554607  55.4788857   4.9355016  13.9113836  56.4196053
   1.5553805  23.4623451  70.2758789   2.4344995  23.2471275  69.9643250
   1.4562310  24.3955383  70.0873260  29.0231838   0.6000391  24.3325844
  29.5364437   0.3678282  23.5587158  28.5629997  -0.2062964  24.5655785
  55.1554337   8.1557293  84.8829193  55.8485947   7.8972507  85.4903336
  55.4936028   8.9418507  84.4541016  56.5477943  42.9685440  29.4739399
  57.3330956  43.5015335  29.3496246  55.9250565  43.5558510  29.9023151
  31.8748646  36.7737961  56.8193817  31.8833084  36.8752480  55.8676109
  32.2579498  35.9099007  56.9715729  54.8220406  68.4997711  57.5949249
  54.3892250  67.7640762  58.0281181  54.1469193  69.1760864  57.5397568
  37.6816750  54.0660706  35.1786041  38.4448280  54.5826607  34.9198303
  37.9884949  53.5383530  35.9159050  36.9299583  69.4093170  68.6480255
  37.1310272  68.5245361  68.3431396  36.4871025  69.8230972  67.9071503
  77.9930573  23.8244915  84.7536469  77.7822266  23.4085045  83.9177475
  78.3135757  23.1091862  85.3030472  68.0773315  31.3809776  29.5834732
  69.0323105  31.4457550  29.5913544  67.7768631  32.2328911  29.9000072
  58.5319366  41.9456139  32.4634666  58.5191269  42.7107620  31.8884735
  58.3977928  41.2020874  31.8757534  42.3866386  12.3549509   4.3608928
  41.8514442  12.0599031   3.6241796  41.8534393  13.0228834   4.7919340
  43.6915054  54.8199043   1.8810041  44.2743607  54.7435036   1.1255769
  43.7431946  55.7424164   2.1310718  74.8987198  19.9051838  20.2189980
  74.7934647  18.9823265  19.9877281  75.6372528  20.2025433  19.6875973
  29.8182716  22.8904266  20.3954487  30.6568775  22.8023949  19.9424343
  29.3546448  23.5732136  19.9105949  78.0411453  29.9993134  54.7470589
  78.3280487  30.6726036  54.1301346  77.5199509  29.3957710  54.2176056
  27.0314388  42.4193993  55.5415955  26.5338078  42.9105186  54.8878403
  27.6893787  43.0390091  55.8569298  50.5435181  60.5551758   0.6579841
  50.5971107  60.5030594   1.6122606  49.6435013  60.8302994   0.4833102
  69.9955673   3.0548527  43.5166931  69.0703430   3.1745095  43.7308731
  70.4507904   3.7083778  44.0476494  48.1554146  33.4014626  84.7360764
  47.4531517  33.3880348  85.3863678  48.9594040  33.3275261  85.2502441
  71.2825012  61.1591072  55.3814507  70.3258896  61.1919861  55.3748665
  71.4941711  60.4710464  56.0123215   1.9930676  66.1052933  68.0251694
   2.8521502  65.8572769  68.3667755   2.1810687  66.7745514  67.3671570
  82.1991882  15.8494453   6.9838223  81.8969650  16.6392536   6.5353866
  82.4231262  16.1457596   7.8660250  71.9892807  65.5239029  71.2579803
  72.6127090  66.1974487  71.5298309  72.0861740  64.8304291  71.9106216
  24.7505455  36.7784004  69.8636398  24.5055180  35.8561096  69.9382782
  25.0697346  37.0126991  70.7351074  73.0107117  50.5926590  68.8979416
  72.9274826  50.9645081  68.0198593  72.1109772  50.4033279  69.1641388
  14.3427057  32.6146469   5.1554546  14.6048069  31.8903503   5.7237258
  14.4113817  32.2604218   4.2688651  62.8800430  24.7788258  62.0960083
  61.9769783  25.0781403  61.9905853  62.8039894  23.9497814  62.5683784
  32.8014183  52.2968483  84.0880127  32.1571083  51.6482544  83.8044128
  32.6996117  53.0213394  83.4707794  24.6749706  11.6720686   2.2796226
  24.8476009  10.7309494   2.3065293  25.4915886  12.0739412   2.5760455
  17.4728184  39.9280090  76.5922089  16.8451366  40.4736786  76.1184082
  17.0894108  39.0511398  76.5741425  57.6948586  42.8267441   5.3586912
  57.7184639  41.9196777   5.6635032  57.8976746  43.3462067   6.1366735
  20.2403831  41.3503075  83.5260239  19.3606415  40.9851532  83.4314270
  20.7413406  40.6590652  83.9589920  43.1248322  58.3403282  56.2501297
  43.0280418  57.9727440  55.3716393  42.9780960  57.5989113  56.8374939
  30.3465805   3.1172893   8.0910616  30.9296665   3.1077883   7.3320150
  29.8542709   2.2990468   8.0251579  19.3054714  54.7838669  87.3141937
  20.0147209  54.2303619  86.9873505  19.1365719  55.4016876  86.6028519
  29.5280018  65.1390839  44.1861076  29.7463207  64.2154083  44.3102036
  30.1180744  65.6062241  44.7775688  22.1350918  62.7430229  83.6137695
  22.1317787  63.6949272  83.7142487  21.7061234  62.5895462  82.7719498
  67.8553467  70.5259857   0.1108646  67.9245071  70.5363007   1.0655072
  68.5754013  71.0816498  -0.1874570  33.0686493   0.7385119  41.7383003
  34.0192032   0.8414068  41.7840462  32.8328819   1.0731323  40.8730392
  39.4509926  39.1977158  15.9389191  38.5194054  39.0893784  16.1303272
  39.4889107  39.3096008  14.9890366   8.9544172  14.7501154   8.9248934
   8.6759872  14.3897152   8.0829792   8.2554226  15.3569479   9.1685991
  75.5569687  49.1524544  77.6444778  75.8587570  48.2504807  77.5367966
  75.4572525  49.4799843  76.7506027  62.8780327  22.1370373  63.3770828
  63.4038353  21.6429253  62.7481041  62.9785385  21.6596432  64.2006302
  36.1720581  44.5819740  72.7934952  35.6832161  45.1380272  73.4001846
  36.2590790  45.1112022  72.0006638  69.3260269  23.5419464  45.5924492
  69.0658035  24.0950127  46.3290863  68.5106125  23.1364937  45.2975883
  25.0371170  29.4516106  14.0746222  24.9656391  30.2133732  13.4994335
  24.4309120  28.8118267  13.7012281  77.1052322  47.7150459  49.5307236
  78.0102386  48.0143585  49.4435730  76.5813980  48.5133553  49.4633865
  37.9448967  67.1325302  14.3550615  37.7309265  67.8653641  13.7776442
  38.2266464  66.4353180  13.7628288  46.2879257  31.8273411  51.6406021
  45.3922958  31.5074291  51.5322762  46.7256279  31.1458549  52.1507263
  19.2474766   5.9975944  13.1997280  18.6529999   6.6402645  13.5867729
  20.1163120   6.2629027  13.5013361  45.2415581  20.8635693  31.4106445
  45.8961868  21.4055328  30.9702244  45.6391487  19.9938278  31.4518967
  66.2740250  45.0683136  88.4817810  66.9943466  45.5681915  88.0977325
  65.5102844  45.3064423  87.9562149  23.1772766  45.7148666  49.8031693
  22.9314938  46.6264267  49.9608994  22.5650997  45.2062798  50.3349686
  49.8563499  21.2410736  20.7358227  48.9364662  21.0465775  20.9153061
  50.3086433  20.4090195  20.8749256  52.6463089  46.3244171  81.8415375
  52.4328499  46.6137466  82.7286453  52.2618942  45.4502754  81.7757034
   6.5720949  55.4820518  62.7988853   5.6589880  55.2004852  62.8553543
   6.5225887  56.4226494  62.6284180  53.3811226  21.5397415  34.9162102
  54.1272507  21.5277615  35.5156937  52.6384735  21.7956562  35.4632111
  79.9896393  29.1441174  83.4931641  79.5889664  29.5793037  82.7406235
  79.2668991  28.6773262  83.9126740  81.3764496  61.8508301  46.2600136
  81.8549652  62.5081520  46.7651711  80.9849777  61.2793541  46.9206161
  71.3216248  44.5407486  80.9366989  72.1046753  44.5973091  81.4842987
  70.6865540  45.1132202  81.3670349  13.2617569  50.9590073  13.7213144
  12.4594069  51.0958443  14.2250423  13.9676266  51.0989075  14.3525105
  84.3172150  70.8727646  58.0205650  84.5280533  71.7891541  57.8416443
  83.3642731  70.8592453  58.1097527  62.8020363   2.6890121  31.5908661
  62.5778275   3.3122926  30.8998642  62.0678253   2.7359405  32.2032051
  55.5847092   9.0839348  66.9287338  55.4564705   8.7839775  67.8286285
  55.3193665  10.0035162  66.9426727  73.4542160  16.2578754  84.1982269
  73.5964432  16.8327866  83.4462433  73.3142319  16.8549881  84.9331360
  52.4934158  18.2260056  83.3215027  51.6581841  18.6307583  83.5555725
  52.4274292  17.3309536  83.6543045  32.5857430  43.4141846  73.7971191
  33.4604187  43.0507736  73.9353256  32.3677597  43.1775513  72.8956146
  79.1160889  61.1818352  29.0722084  79.4326935  60.8887100  28.2177677
  79.8872528  61.1470985  29.6381874  39.7117271   6.0097475  73.7504120
  39.8131218   5.2820663  74.3639526  39.8249283   6.7937055  74.2878342
  52.0803757  18.4952869   6.4969912  51.3282166  19.0553284   6.6889362
  52.5667191  18.4568501   7.3205338  44.0577316  12.4675722  13.2327509
  44.2354126  12.9831972  14.0193853  43.6589012  11.6612654  13.5599108
  53.7347527  28.7855148  42.1748123  53.8654022  29.2293072  41.3368301
  54.3638954  28.0641956  42.1644783  36.7997360  54.2269859  76.0098572
  36.4068336  53.8930283  75.2034225  36.0785828  54.6608810  76.4658127
  58.3143349  26.3558655   9.8830910  58.3554573  25.5549259  10.4056206
  58.5041008  27.0578957  10.5054846  72.2525024   4.4381628  80.2360001
  71.5065765   3.9273870  80.5505371  72.2900543   4.2541728  79.2974014
  78.9021149  26.8919106  88.9933624  79.2885971  26.0351124  88.8123627
  79.6418457  27.4988060  88.9666519  68.7205963  58.0114441  28.1060581
  68.5653534  58.3430405  27.2216511  69.6729507  57.9413147  28.1718216
  10.9720383  58.9557686  65.7445374  10.4509840  58.6514931  65.0014648
  10.7321863  58.3688202  66.4616089  41.9998932  21.6844044  10.6634197
  41.9625435  21.3063488  11.5420036  41.8598213  22.6214371  10.7997284
   1.5293211  19.8473492  18.6274509   1.1112136  19.0556278  18.2889328
   2.4420381  19.5951195  18.7673054  69.1189728  23.1829796  35.9860382
  68.8398819  23.6584988  35.2035942  69.5092621  23.8531342  36.5471115
  65.2761383  29.5970840  57.3320084  65.3143234  29.2153130  58.2089500
  64.8771820  28.9154663  56.7912102  15.7016306  44.5479355   4.0776701
  16.2495728  43.8730316   3.6770482  16.2527370  45.3305321   4.0853066
  71.6077347  40.4351158  64.1378479  71.5347061  40.2482147  63.2019157
  72.2890320  39.8389359  64.4487000  10.3122005  41.5213432  47.6189842
   9.5765619  42.1286392  47.6981010  10.7453585  41.5574303  48.4718056
   9.8290138  32.3730087   1.7978475   8.9309931  32.4075394   1.4683044
  10.0212908  31.4382286   1.8716319  66.6922226  35.7157516  23.3647499
  65.8994141  35.4437981  22.9024506  66.8902512  36.5828514  23.0109825
  43.5996590  41.8288803  66.9662476  42.6514664  41.9033737  67.0740204
  43.8282852  42.5353203  66.3621674  26.9287338  23.5062160   0.7635348
  26.1383209  22.9736881   0.8523709  27.2861290  23.2637577  -0.0906986
  37.1192017  39.3931541   1.9605001  37.4903679  38.9700851   1.1862383
  36.8395805  38.6677551   2.5189264  57.6461105  23.3199997  25.2377434
  57.4134750  22.4440098  25.5455685  58.4641342  23.1953850  24.7565594
  69.5256119  54.6812248  77.7692947  69.7201691  55.5817413  77.5095978
  69.3619385  54.7335587  78.7109451  18.9723492  69.9052505  27.3000851
  18.4167004  70.6770325  27.1912460  19.5446739  70.1239624  28.0355053
   5.6639814  43.1457214  31.1543694   5.6179819  43.2380676  30.2027454
   6.4549131  43.6238594  31.4034519  52.5499916  29.8909664  22.8185616
  53.0543404  29.1307240  23.1082077  53.2112579  30.5449295  22.5920849
  85.9865723  43.7171478  40.7136040  86.6839294  44.1149254  40.1923561
  85.3634186  43.3858833  40.0669441  48.2054787  13.7803392  84.7869949
  48.0565796  14.3754148  85.5218048  48.8437881  14.2342415  84.2367554
  32.2034225  15.9262533  73.0303574  32.9209099  15.9277964  73.6639557
  32.3335915  15.1250458  72.5230637  75.7871628  59.1938629  28.7647686
  76.6694260  58.8299751  28.6910477  75.2841644  58.5136375  29.2125587
  25.5607872  44.0585899  36.8080368  26.5071659  44.0356369  36.9497185
  25.2351303  44.6740265  37.4648628  86.7967148   4.9182992  14.5004244
  87.3729630   5.6826038  14.4968147  86.0896378   5.1542764  15.1009102
  35.5093498  67.6893997  24.3362007  35.4687309  68.2021561  25.1434574
  34.6609802  67.2485809  24.2895107  59.9583778   8.9094543  48.5322990
  60.0968056   8.9315615  47.5854187  60.6605873   8.3498993  48.8640137
  59.1514282  16.7136383  80.6794052  58.4556847  17.3421745  80.8720627
  59.8927612  17.0071430  81.2090454  37.7175484  59.1382942  29.9508629
  37.6590424  58.2584763  29.5783920  36.9919701  59.1835098  30.5735378
   6.7196331  46.0500832  20.4319897   5.8313632  46.2949791  20.6912823
   6.7046666  45.0935326  20.3999901  71.0263672  33.3047638  21.0161228
  70.9841003  33.0812225  21.9458942  71.3414688  32.5066147  20.5919762
  84.7591858  26.6260395   8.1286077  84.3078156  26.8912010   7.3272414
  84.0564194  26.3688011   8.7254114  50.7090874  12.1618834  69.0698318
  50.0062180  12.4938116  69.6284256  50.2574043  11.6762781  68.3796158
   6.3402705  51.3538857  44.1166382   6.3118429  52.2991333  43.9685440
   7.1967936  51.0850639  43.7844696  86.4326172  20.0385532  41.4033661
  86.4464569  19.7996140  40.4765701  87.1076813  19.4896049  41.8023415
  43.4356384  30.1061172  11.4042358  42.8084183  29.6307316  11.9490585
  43.4658012  30.9841251  11.7842655  65.3342514  44.7349358   1.7279803
  65.4618149  44.9103966   0.7956861  65.9010925  45.3667717   2.1703649
  58.5369492  69.8355637  51.3677673  58.4106483  68.9485397  51.0309219
  57.6976967  70.0611496  51.7690163  46.1640511  65.8161087  21.2701359
  45.3364754  66.2918854  21.3407574  46.5159988  66.0729370  20.4178429
  65.7061234  58.3392677  50.4650650  66.1875687  58.2699509  49.6406631
  66.3542557  58.1341362  51.1389122  61.8913841  37.4968605  54.1061211
  62.0529671  37.3056183  53.1822433  61.9018021  36.6403770  54.5333862
  19.8542099  50.1530457  30.2866096  20.6576347  49.6829872  30.5097427
  19.7908325  50.8449745  30.9449806  82.3415985  18.1756325  35.7978172
  82.6080856  17.5932102  36.5091515  82.8394547  17.8706532  35.0392952
  64.4190445  23.3895397  78.5509109  65.3625641  23.4406738  78.7038269
  64.2887802  22.5342102  78.1414261   2.1646519   9.3707848  58.8418236
   2.2775426   9.8807688  59.6439476   1.8335229  10.0009727  58.2019424
  38.4758072  52.2944145   4.2751627  38.6904030  52.6763268   3.4240897
  38.2283783  53.0429420   4.8180451   2.0669951   6.7244139  36.0387840
   1.4244854   6.0325875  36.1962280   1.6825587   7.5040398  36.4395638
  57.8740234  36.1332092  46.8433571  57.6349792  35.6288757  46.0657120
  58.4162827  35.5360832  47.3587456  41.1776352  68.5161133   3.8052831
  40.7566261  68.3263855   2.9668422  41.8608360  69.1516571   3.5918438
  21.0649643  26.7319717  77.0314865  20.8682632  26.1826820  76.2726517
  21.2267971  27.6004524  76.6629944  85.6163025   4.3154001  12.0577784
  85.0459366   5.0642214  11.8840342  86.1652222   4.5971365  12.7895851
  76.3567810  56.1464272  21.6094723  76.1129837  56.6202126  22.4046574
  77.2903976  56.3269272  21.4998550  41.0443115  35.2257843  26.9759750
  41.6878967  35.6921806  26.4425850  41.4461479  35.1713371  27.8430367
  40.2545128  56.9294319  24.9724274  40.0582809  57.4117088  25.7756290
  40.1253929  56.0105019  25.2072144  34.3165665  59.8673401  71.8303986
  33.3868141  59.7952003  71.6145401  34.3328781  59.9983788  72.7784424
  33.0037308  33.6475182  21.8007050  33.0183754  33.5147400  22.7485390
  33.9265518  33.6997604  21.5518913  59.5820503  42.6070023  12.0986557
  58.6744957  42.8256035  11.8870306  60.0894051  42.9544678  11.3651094
  41.4378090  45.3521309  47.3547287  40.5938416  44.9140167  47.2451553
  41.3209190  46.2051773  46.9365463  23.8363152   6.5994692  71.2095108
  24.1613255   5.7669268  70.8667679  24.3408070   6.7420864  72.0103683
  67.9410629  40.6290398   9.6899462  67.6681442  39.7255898   9.5301743
  68.7767715  40.5490303  10.1497469  77.1055527  35.7668495  58.1235161
  77.3612213  36.6418304  58.4155312  76.7470932  35.3483582  58.9062042
  22.9153824  20.4379902  69.1030655  22.8326817  19.5225163  69.3700867
  22.2469940  20.5517178  68.4273758  32.3532829  49.6942101   9.3435049
  32.8952255  48.9082565   9.2741957  32.0714912  49.8707581   8.4459209
  28.2054939  46.4765091  75.7533951  27.6664658  45.7277794  76.0085220
  27.6327305  47.0060081  75.1985931  56.4340401  52.9758034  11.4161015
  55.7411880  52.8289719  12.0600195  56.3204689  53.8869438  11.1456232
  48.6700211  42.9875908  53.6549988  48.5333252  43.0710144  54.5987091
  48.0752106  43.6306152  53.2690620  74.2939072  51.3207932  21.2889805
  74.2377319  51.4951172  20.3494663  74.6478195  52.1283112  21.6616707
   2.1113908  47.8510971  -0.2158078   2.3532884  47.1428680   0.3809561
   2.2443349  48.6500511   0.2943181  58.9822655   8.5362959  75.5457993
  58.2268639   8.4436951  76.1263428  58.7604828   8.0091667  74.7782211
  27.3414173  25.4661274  72.5907898  26.9016285  25.7931786  71.8060226
  26.8486805  24.6818027  72.8321915   7.5153527  49.4647827   9.0419407
   6.8777628  50.0051460   9.5085468   7.5808759  48.6659660   9.5652237
  20.2733727   4.7541857  66.3638916  20.7847176   5.5334563  66.1459656
  20.9221554   4.1190562  66.6670837  70.6084290  50.2842941  14.0611715
  70.9325027  49.3991585  13.8946075  70.2894592  50.5865440  13.2107992
  32.6951637  36.8450432  10.9984255  33.0246620  37.6757584  10.6555338
  33.2277489  36.1786232  10.5642929  56.9304085  53.4661865  80.8829727
  56.6244545  52.5607147  80.9353333  57.6742897  53.5027962  81.4842453
   1.8434711  47.8303642  66.8318481   2.1186311  48.4841843  67.4745255
   2.5245783  47.8537636  66.1596985  23.8458996  59.2064705  56.7967377
  24.6282902  58.9311676  57.2745476  23.2007656  58.5234337  56.9797478
  19.6086540  50.4489632  71.7154541  19.7528343  49.8064308  71.0207672
  18.8921719  50.0837364  72.2345810  85.6788406   3.2540460  81.9339676
  85.2380371   3.4495387  81.1071014  86.2384872   4.0142179  82.0926056
   2.3656199  41.2524681  33.9796982   3.2847600  41.0457191  34.1490173
   2.3769047  41.7341843  33.1526260  82.0074844  61.7104836  74.9948578
  82.3423843  60.8284225  75.1562347  81.2289658  61.5759430  74.4544449
  38.5116386  30.6492500  22.9874001  37.8715820  30.0404434  23.3560619
  38.3459969  31.4752064  23.4419250  46.1161652  33.9948311  73.9075012
  45.2785568  34.1621780  74.3395157  46.2401772  33.0487633  73.9837418
  34.5835266  31.3305588  25.1434078  34.0913887  30.5870190  25.4915199
  35.3301811  30.9343834  24.6942005  86.2021332  52.0820580  35.9042664
  85.5857925  51.6156311  35.3396339  85.8670197  51.9439507  36.7901878
  59.1261482   3.5300510  61.7599258  59.2137756   4.1061077  62.5193405
  59.5535927   4.0058527  61.0477905  86.6702347  53.2473106  45.0289307
  86.9425964  54.1026726  45.3612061  85.7504730  53.3645172  44.7911682
  82.2976151  69.4295578  51.1283684  82.5527878  70.3290634  50.9234200
  81.3947830  69.5013809  51.4381447   8.6661606  43.5099983  72.9934158
   9.1669140  44.0055275  73.6414337   8.4520311  44.1506348  72.3152084
  74.3652039   9.8321714  82.5837936  75.0709457   9.2410069  82.8458557
  73.9670944   9.4077921  81.8237610  22.1432285  35.4855194  76.8169785
  22.6907215  36.2705345  76.8322983  21.4061241  35.7185707  76.2525330
  46.0118637  67.4519882  48.6921425  45.2532082  67.2537231  48.1431770
  46.4429131  68.1833344  48.2499275  39.1173897  32.6020508   3.0208814
  38.7827606  31.7052479   3.0212073  39.9998589  32.5285416   3.3843026
   1.8017025  70.8005447  68.9907455   0.9635499  70.8316116  69.4520111
   1.8921131  71.6694336  68.5994873   9.7977867  61.5582809  24.5877190
  10.6975145  61.5173569  24.9118271   9.2736149  61.7648392  25.3615456
   3.8504863   5.5656099   8.5914869   3.6153519   6.4902716   8.6685858
   4.8024912   5.5680590   8.4919271  85.3136978  46.3368454  11.1120138
  85.6359329  46.2631607  10.2137003  86.0029373  46.8126907  11.5754318
   4.0880060  68.6415863  26.1255436   3.8422732  69.2327194  26.8371716
   5.0245733  68.7942505  25.9999733  27.4717045  23.9283581  69.4494400
  26.9781036  24.4416351  68.8097992  28.3668633  24.2609844  69.3839951
  48.7114410  25.5304108  84.8282776  49.6091881  25.2024765  84.7759323
  48.7908707  26.4716721  84.6735153  27.5274792  27.1303291   5.2533460
  28.4687805  26.9612236   5.2931819  27.1902065  26.4668808   4.6514206
  67.9569092  33.8657913  31.1356449  67.3593597  34.2840157  31.7555332
  67.5830231  34.0580139  30.2757072  55.9407730  59.7002983  35.6583328
  55.1058960  60.1656342  35.7100182  56.5886803  60.3364029  35.9613495
   2.5093946  60.7064056  48.5067940   1.7349104  61.0723305  48.0795860
   2.2110786  59.8725586  48.8700294  73.5144882  50.3409500  79.0418243
  74.2226028  49.9707298  78.5148163  72.8757629  50.6518135  78.4002457
  73.0956879  48.9978333  58.1809349  72.6656952  48.1807289  58.4332809
  73.8786087  48.7196312  57.7056732  39.0136032  12.7594643   3.5714581
  39.4670906  12.0866508   3.0636184  38.0845566  12.5567160   3.4618979
  64.3326263  13.5894585   5.0821185  65.1116333  13.6592598   4.5302963
  64.6597748  13.7057428   5.9741282  31.9046421  44.8759193  84.6987152
  30.9867229  44.9643097  84.4421158  32.0299416  43.9347038  84.8197327
  71.1069565  49.2031860  20.6048756  70.7745361  50.1008034  20.6089306
  70.4921417  48.7176094  21.1548309  67.7666168  49.0064354  70.5796051
  66.8660965  49.3148727  70.6804428  67.8443909  48.2858009  71.2047958
  11.6368465  29.8207626  31.0714569  11.8143711  29.7214451  32.0067940
  11.6120281  30.7673588  30.9315681  71.7617111  32.0248032  66.8745117
  72.6702271  32.1840401  67.1303940  71.5982819  32.6509209  66.1691742
  15.6956558  32.9224854  46.5841217  15.4820852  33.4637604  45.8240929
  16.1827240  33.5068550  47.1650734  46.7451134  55.1843414  14.2569647
  46.2924232  54.6404877  14.9015799  46.0503159  55.4982224  13.6781988
  57.2236977  11.3687296   9.4287682  56.7537003  12.0882339   9.0072842
  57.6477890  11.7711143  10.1867027  54.3927193   1.5744431  48.5360641
  53.7382965   1.0564082  49.0046844  55.2082520   1.0852928  48.6449966
  78.6446304  12.1281910  81.0361023  79.1904221  12.7529554  80.5586014
  79.2629929  11.4827223  81.3784943  81.4694519   5.0644460  23.0923157
  81.9366074   5.6715174  22.5183315  81.0132141   5.6283855  23.7168598
  12.1678810  37.8529091   2.8946803  12.8850594  37.4754333   2.3853683
  11.6810493  37.0958481   3.2203898   8.4574509  55.1740227  24.2792664
   9.3976736  55.2624283  24.4354591   8.1307087  54.7022400  25.0453568
  81.2553787  49.4602547  67.1385727  82.1587982  49.4146805  66.8255463
  81.3317108  49.7415466  68.0503159   4.5421252  62.7853775   9.6984692
   4.3702841  62.3192177  10.5166359   3.9390070  63.5284843   9.7149773
  40.6273079   1.5410718  20.5607185  39.7113762   1.3638141  20.3465176
  40.6095161   2.3881414  21.0061264  61.5806046  38.8855133  41.5545197
  62.1867485  39.5993958  41.3565369  61.3719559  38.5049248  40.7013779
  21.5711613   8.9026575  88.1028137  21.3617973   9.5305128  87.4113007
  20.8746929   8.2480831  88.0508957  30.1804600  56.0952606  61.7580070
  30.5361233  56.5433807  62.5254173  29.6502571  56.7592392  61.3172684
  48.6461067  62.9278145  55.0268822  48.4207191  63.2432823  54.1517220
  47.8525620  63.0675697  55.5435905  46.9684410  45.2730942  11.4271631
  47.0632668  44.3827782  11.7656603  47.2420425  45.8353004  12.1519384
  84.7244339  11.3542051  21.1542606  83.9916534  11.1651163  21.7403507
  84.8418579  12.3021841  21.2157478  56.4821815  56.1135178  38.5029640
  56.3992043  55.1953316  38.2455215  56.9007950  56.5357094  37.7528000
  84.2177963  34.7440071  69.4734344  83.3716125  35.1841774  69.3930664
  84.7538605  35.1268883  68.7789764  33.9635391  11.2491007  12.0887756
  34.2395134  11.5603809  11.2267008  34.1101074  11.9947033  12.6708622
  19.4541283  34.1893501  66.3906021  20.0567665  33.7765579  67.0092010
  19.6670799  35.1215248  66.4345779  36.5033073  64.1637802  31.8636227
  37.3050194  63.8044319  31.4836769  35.8111191  63.5745544  31.5637569
  45.6120720  32.2454948  67.5497208  46.1798210  31.7331352  66.9740601
  44.7303963  32.1027222  67.2054901  22.8655090  61.6320724  78.3167725
  22.4548378  62.2127495  78.9573975  23.0963039  62.2061920  77.5864639
  12.4017553   1.0582322  25.6682491  12.7154961   1.9625021  25.6779518
  11.5091190   1.1180582  25.3278751  13.0742569  29.0872002  79.6700668
  12.4911213  29.5817890  80.2458878  12.7100163  29.2141323  78.7940292
   8.0182800  23.1631508  74.6919861   7.7868667  22.2461357  74.5444717
   7.6323285  23.6298065  73.9506989  51.2285156  70.1103897  25.7491188
  51.6218071  70.9363480  25.4674358  50.7838860  69.7785263  24.9691181
   4.2255597  61.7594147  44.5097237   4.7686801  62.4002762  44.0508690
   4.1103287  61.0481567  43.8795891  62.0672188  66.3005371  36.5781670
  61.5621834  65.8927002  35.8747177  61.4451408  66.8843689  37.0122070
  19.2824059  70.6526642   1.8513762  18.3485184  70.8404388   1.7574129
  19.5129204  71.0077820   2.7098570  50.8401756   7.6836658  77.2801819
  50.9029655   6.8125067  76.8885498  51.0981407   7.5550923  78.1929550
  52.2550583  18.5878201  70.2568436  53.0500717  18.0640888  70.3562927
  51.9669800  18.7585506  71.1535568  66.0037994  38.9966545  44.4161835
  66.6820984  39.1204453  43.7522430  65.2966309  38.5456657  43.9549370
  16.7349892   0.4237697   2.2826099  16.6313877   0.8816981   3.1167564
  16.0264263  -0.2197201   2.2730243  80.7899857  46.2255554  49.3378181
  81.6288681  45.7840652  49.2051773  80.4342575  45.8298683  50.1335068
  72.3784714  21.3403511  42.6087151  72.2868805  21.9742889  43.3200264
  71.5751724  21.4366226  42.0971718  46.7410088  17.0907059  81.9910431
  46.2524529  17.9136906  82.0066452  46.1959572  16.4791832  82.4862061
  13.8925142  60.9882469  37.5929871  13.5717964  61.6831932  37.0181618
  14.4659061  61.4369469  38.2143707  52.2200546  45.2547874  48.5211601
  51.9638481  46.1769142  48.5377731  51.5749168  44.8169174  49.0764084
   3.6217251  37.4645233  64.4885788   3.5497320  37.4503365  63.5341949
   4.2346601  36.7583160  64.6930618   0.2239919  23.7127514  67.7946320
  -0.5463421  24.1585369  68.1468964   0.9462095  24.3203239  67.9542847
  84.4839859  18.4945126   5.8093967  85.1182098  17.9880619   5.3019471
  83.8338852  17.8508739   6.0910430  69.6526260  69.7789383  62.7639046
  70.1472321  68.9958954  63.0056496  68.8829422  69.4436111  62.3041534
  24.9819508  64.0241394  44.7199745  25.6838856  64.5985336  44.4140358
  24.2535839  64.6157532  44.9089355  28.4017277   6.7877131  31.2754021
  29.2086010   6.5834146  30.8026943  27.7043610   6.4359188  30.7220898
  34.7470436  71.1996765  35.8680687  35.5810776  71.6347046  35.6909561
  34.2046623  71.4021835  35.1058044  23.7216244  68.4730453   1.0992339
  23.8031406  68.8730011   0.2334287  23.3084297  69.1484451   1.6371297
  66.5170746  43.1434669  39.3174400  67.0406036  43.2477036  40.1119766
  65.7367783  43.6755371  39.4732361  32.5542107  54.5211449  33.1898155
  32.2923508  53.7724266  32.6540146  32.9600906  55.1282349  32.5709953
  30.9596462  45.0528069  13.6296434  31.8294468  44.7266121  13.3988304
  31.0998402  45.9737549  13.8497114  82.0197830  41.0571175  52.5820427
  82.7317200  40.4480782  52.7781143  82.1784973  41.3279648  51.6777840
  39.0924149  27.3869743  58.1411858  38.8054543  27.9295368  58.8757019
  39.5519142  26.6536560  58.5502548  40.6903114  46.9314842  74.5033112
  40.1694984  46.8572159  73.7036438  40.1413193  47.4398041  75.1003418
  59.5636482  36.7217941  75.1193314  60.2655449  36.3944397  74.5568237
  58.7911072  36.2233009  74.8530197  51.7016563  43.4997063  73.2114944
  50.8406372  43.0889587  73.2900391  51.7419968  44.1135406  73.9448471
  27.2722054  68.0597992   9.9247551  27.5274773  68.6476974  10.6356993
  26.3577328  68.2805862   9.7480555   0.7903438  60.8959503  13.0353947
   0.6383309  61.1267738  12.1189642   0.6339855  59.9523888  13.0738420
  33.4912987  18.7124100  75.8207245  34.0082092  19.4983482  75.9977417
  34.0717316  17.9870300  76.0512695  45.4271927  57.2785721   7.8205304
  44.9144020  57.8241310   8.4168892  45.9192162  56.6923752   8.3954363
  82.8913727  30.9825191  37.2762375  83.7278595  30.8210545  36.8398361
  82.8045883  30.2629471  37.9014702  18.2925549  47.3917313  28.5115147
  17.8417969  48.2303772  28.4128933  19.2167549  47.5988083  28.3729343
  70.1750641  31.3458710   3.5642650  70.4409637  30.6714993   2.9391642
  69.2502594  31.5000076   3.3713524  73.9248199  45.6189003  78.3282700
  74.0579453  44.7104416  78.0576859  72.9763794  45.7030983  78.4262314
  76.7315521  19.5990658  48.2335167  77.0849228  19.8199940  47.3718033
  77.2003632  20.1733284  48.8390503  50.7822037  30.8802795  42.0679893
  50.9003220  30.2226982  41.3825226  51.3872566  31.5834904  41.8321075
  49.5699883   1.9900602  13.7564850  49.9176064   1.3728809  13.1126804
  48.7080536   2.2305295  13.4166679  34.4470711  24.9731598  81.7702866
  34.4785042  25.0739155  80.8189240  35.0939941  25.5975189  82.0987625
  46.0414238  12.1911936   2.2739151  45.3994331  12.6084223   1.6994578
  45.8776436  12.5754862   3.1351511  86.1197281  66.0140839  75.9382782
  86.1229172  66.9536591  76.1210861  86.0964813  65.9560013  74.9831238
  43.4015121   1.4053555   8.1836271  42.9480743   1.8690455   7.4796271
  43.1822433   0.4841648   8.0437679  34.4543724  34.6498375  82.9483109
  34.9014397  34.8635139  83.7672729  35.1234703  34.2206154  82.4151077
  27.0888920  45.3527832  23.7871494  27.1332359  44.4152031  23.5995140
  27.1852474  45.7729073  22.9324894  79.3205948   6.3336487  78.0877075
  80.0963364   5.8725715  77.7685471  78.6370163   5.6640444  78.1119003
  54.4871750  11.3924475  82.0009232  53.5626717  11.1598120  82.0869598
  54.4791527  12.3134546  81.7403259  63.4247360  54.3119431  81.3446884
  63.7425995  53.9700012  82.1803131  62.5070915  54.5295486  81.5084381
   3.7475889  21.8392715  33.8027611   3.5108759  21.0588493  33.3016243
   3.1396313  22.5129833  33.4982414   9.3114109  40.5159264   8.0325508
   9.2675066  41.4627686   8.1659536  10.2370291  40.3405952   7.8630762
  25.5698910  55.7498398  71.0636826  25.8461857  55.8317566  71.9764709
  24.7172775  56.1837234  71.0316544  45.0792198  19.2571526  82.5504532
  44.2403145  19.3195724  82.0937576  45.4733429  20.1232777  82.4468689
   8.1058769  63.8792839  21.4570999   8.8964720  63.5176277  21.0566063
   8.3502750  64.0377426  22.3689079   6.7948742  55.8101768  49.6668892
   7.1995878  55.6590958  48.8127174   6.0743718  55.1811752  49.7051659
  70.6815109   8.2261410  50.9552193  70.9815063   7.7800894  51.7472229
  70.5193176   7.5201139  50.3295555   7.5583653   3.6042943   5.5241699
   7.3827991   4.2946348   6.1635742   7.5291605   4.0492601   4.6771846
  30.2611847  69.4641495  85.9508514  29.6213570  68.7933197  86.1892624
  30.9900303  69.3257141  86.5557022  48.0041656   7.8290467  85.3561935
  48.5059624   8.5427265  84.9623795  48.5238419   7.0448771  85.1794357
  85.7556229  60.4360199  36.6282921  86.0056152  59.5139885  36.6882744
  86.4683609  60.8460350  36.1382675  54.9075508  69.7134018   3.8374481
  54.8625107  69.2545700   2.9985931  55.8190460  69.9973755   3.9064851
  54.2488060  30.2408791  61.3808937  54.3472710  29.8621597  60.5073318
  54.9340591  30.9072762  61.4316673  58.0691032  46.1176186  56.8256378
  58.3306236  46.3292618  55.9295082  57.3856544  45.4549713  56.7255211
  67.3237839  12.0624762  72.4775238  67.0250320  12.2948561  73.3567200
  68.0252609  12.6862478  72.2902603  65.6069641  65.3686752  16.6013451
  66.2419586  64.7633514  16.2184734  66.1360550  66.0977707  16.9249363
  41.7023697  43.4656067   3.5466113  42.4229317  42.8974991   3.8191481
  41.6798706  44.1576653   4.2075033  62.2378769  28.0191841  63.6734467
  61.5493927  27.6621227  63.1124382  62.1583786  28.9680595  63.5757408
  40.7026482  51.1853638  84.4214478  41.2840767  51.2130165  85.1813202
  41.0586777  50.4865074  83.8727493  73.8270721  55.7113686   4.3727484
  73.4750137  56.4890633   4.8057404  74.3714905  56.0568962   3.6653242
  57.5563545  36.8169060  14.6690102  57.4257851  37.6721306  15.0786085
  56.9710197  36.2301254  15.1478720  53.0515137  70.9948959   5.1644320
  53.7577553  70.5230026   4.7230992  53.4208107  71.2399521   6.0128441
  67.2482300   3.9395139  60.0568352  67.4259338   4.8799214  60.0398712
  66.5209427   3.8221304  59.4456825   6.5536270  65.4654846  50.6603661
   7.0940943  65.0425415  49.9930954   7.1564875  65.6362991  51.3839760
   5.1389031  61.3898239   7.4446311   4.7859874  61.7076416   8.2756987
   4.7694626  61.9787445   6.7866673  80.8680649  70.9196854   3.4818280
  80.4080276  71.6001816   3.9732800  81.5753860  71.3841248   3.0343528
  37.3979721  53.9467316  70.9153366  36.9266548  54.7171860  71.2323456
  38.0377426  54.2958527  70.2948151  18.5203133  13.2218542  58.6472244
  18.7969131  13.2228470  59.5635872  18.1577988  12.3470592  58.5074081
  43.9724655  32.8784103   2.9950418  44.1398430  32.1759682   3.6233668
  44.7777328  33.3958778   2.9941607  37.7760315  66.9244690  40.2954216
  37.1282158  66.7679901  39.6083412  38.4993324  66.3352051  40.0813293
  60.5371857  51.9506950  57.9218369  60.2962456  52.1313934  58.8304253
  59.8645248  51.3444138  57.6117134  61.4514847  10.0391283  63.6567154
  60.8889847   9.5025730  64.2152252  60.9466896  10.8382235  63.5055161
  80.2267380  25.2664909  64.6042480  79.4791946  25.5970287  64.1060944
  80.3376389  24.3656292  64.3003082  26.9750519  41.8583641  43.5963554
  27.7526913  41.4235764  43.9463081  26.6653728  41.2744827  42.9039574
  42.2418671  67.2859802  88.0913696  42.2087555  68.1499939  88.5019913
  41.3284988  67.0016251  88.0577240  11.1455116  19.0554066  56.1585503
  11.1688557  19.3173466  57.0789185  10.2281990  18.8361874  55.9951134
   5.7820082   6.0241513  33.5084572   6.5891180   5.9069109  33.0073967
   5.6922913   5.2144136  34.0109558  46.3007812  53.7445107  51.8203354
  47.1590385  53.3773689  52.0320702  46.3936005  54.0694580  50.9247780
  36.8874092  11.3041658  23.2043095  37.2968292  10.4509544  23.3479671
  37.2367516  11.5988960  22.3632832  20.9860191  48.7144089  65.9216614
  21.7128983  48.1836090  65.5958862  21.2837658  49.0305176  66.7746811
  26.6544285   0.3995117  81.7753677  27.3503799   0.5729754  82.4092407
  25.9138966   0.9217096  82.0838318  43.3708572  18.1529121  46.2929344
  43.3221664  19.0075130  45.8645439  44.2891884  17.8957462  46.2107010
  66.6930084  67.8393784  77.1820450  66.0601578  67.6691895  77.8797302
  67.1459885  68.6359558  77.4586487   7.6407418  46.8697319  86.4006805
   8.3811588  47.2128258  86.9009857   7.0651636  46.4821777  87.0600357
  14.0683966   1.1722153  18.5615253  13.9223785   0.3851929  18.0366383
  14.5100145   0.8559445  19.3496742  79.6343002  22.2948952  48.2780113
  79.0317841  21.8723907  48.8901329  79.2342148  23.1453552  48.0966797
  12.6044397   0.8063993   1.7244277  13.1568785   0.7939228   0.9428345
  11.7189884   0.6539260   1.3943393   2.7940660  17.4560375  24.4454536
   3.3437634  17.1092854  25.1481838   3.1859126  17.1118031  23.6428394
  62.3798294  13.1938820  71.6254501  62.9815865  13.5153961  72.2968292
  62.8711472  13.2694044  70.8074417  22.2490635  48.2718964  13.4050884
  22.2296753  48.2496796  12.4483423  22.5163288  47.3887672  13.6598072
  31.0136166  18.3094273  11.4870033  31.2878017  18.3010483  12.4040556
  31.1411076  17.4082317  11.1906548  16.8211689  35.3219948  73.6750717
  16.8202267  34.8658409  72.8335495  16.0547943  35.8943062  73.6381378
  70.6872864  12.2461500   2.4289489  71.2220001  12.6537457   3.1102574
  70.9999847  12.6371498   1.6131212  45.1779976  33.9538612  29.9675884
  45.3550301  34.8204880  29.6017380  44.2363815  33.8308907  29.8472996
  20.9737644  64.7887573  19.5441494  21.9091835  64.5882416  19.5760078
  20.7459259  64.7219086  18.6168671  31.7911835  10.0907774  14.4852753
  31.9909210  10.9360991  14.8874798  32.6475258   9.7079239  14.2946520
  65.5571136   7.1801791   3.4039319  65.6383743   7.9722538   2.8726635
  64.7524490   6.7650390   3.0934470  86.3623276  39.9138832   5.4268155
  87.0544510  39.2529259   5.4086900  85.7647247  39.6161575   6.1127210
  53.4963264  20.6155014  14.2291889  52.8272438  20.2004852  13.6848345
  53.8784981  21.2893028  13.6669016  47.2279663  68.5755539  19.1794090
  47.2121964  69.0787811  18.3653145  46.8597679  67.7244797  18.9420700
  81.8459015  66.9491043  63.4330597  82.4391022  67.3247681  62.7825089
  81.1136932  67.5643387  63.4730759  26.6057243  27.0721092  11.3404827
  27.4246731  27.3403416  10.9238214  26.4067745  26.2204723  10.9514265
  32.4423141  54.5225639  76.5603638  33.1846924  55.0039177  76.9256134
  32.5268021  53.6407738  76.9230423  24.7760811  39.1365967  10.6334257
  24.2742176  39.2317772  11.4429359  25.6562424  39.4364777  10.8606224
  24.4016762  53.7695808  23.7464752  24.9448128  52.9996490  23.9151154
  24.8587799  54.4862099  24.1866245  18.6571846  71.1789474  67.3151321
  18.5375614  72.1235046  67.4138031  19.2026711  70.9274597  68.0604095
  85.0124664   2.6627371  32.7927551  84.3153534   2.7775426  32.1469307
  85.4383240   3.5186727  32.8402252  54.2324524  27.2132339  59.2089615
  54.4421883  28.1444759  59.2798805  54.7649918  26.9028759  58.4766273
  47.7544212  62.4882622  87.1654282  47.5873184  63.3607025  86.8088379
  47.4116058  61.8888702  86.5025330  21.2498989  42.9590492  40.8368034
  20.4345169  43.3294449  40.4988785  21.4552555  42.2433548  40.2352676
  51.2146912  15.4854918  14.6333952  51.4293442  16.1701279  15.2669792
  51.1611404  14.6846943  15.1550150  10.5552158   6.1687403   5.2074614
  10.3534708   6.8267136   5.8727450  10.8391924   6.6761618   4.4471245
  12.1764774  37.9948120  17.8899479  12.7553902  37.4529419  17.3537846
  12.3236361  38.8866806  17.5750732  33.8334732  29.3821259  84.3041763
  34.4871407  29.6401176  83.6542587  33.1945763  30.0948639  84.2972717
  23.8830776  50.3957138  40.4201813  23.3059235  49.8172798  40.9187164
  23.3083363  51.0925636  40.1034698  37.3900185  14.1069164  17.5295467
  37.4002457  13.3972616  16.8872700  38.0971451  13.8902063  18.1371994
  59.2939072   4.2475886  19.2326431  58.7069817   3.5423965  19.5055084
  59.9694557   4.2726550  19.9103107  19.9529610  31.3019676  77.0014191
  20.4420986  31.4734478  77.8061371  20.2202301  32.0013428  76.4050369
  53.9589844  53.7978859  85.4918213  54.2388725  54.7001228  85.3373260
  53.0049438  53.8274307  85.4199142  39.5121880  37.3446465  30.3907871
  38.5561943  37.3457603  30.3428078  39.7816887  38.0609779  29.8159199
  15.8809776  55.2756424  62.2714996  16.8253098  55.3531456  62.4073753
  15.5758333  54.7451973  63.0075340  34.6810875  24.7848091   4.4339972
  35.5680084  24.8978958   4.7757812  34.1187515  24.8308716   5.2072287
  78.8007278  40.8631897  31.1287880  78.8032074  40.0467110  30.6291981
  79.6265945  40.8504868  31.6125412  65.0828323  50.0450172  59.4989281
  64.1838379  50.0595703  59.1705589  65.0145721  50.3657494  60.3982048
  52.7639732  16.2284679  48.1506615  53.3614616  15.8321772  48.7848473
  52.7797623  17.1627827  48.3581161   0.9033279  53.8090973   4.3820624
   0.6802119  54.7392273   4.3458571   0.8981693  53.5977173   5.3156166
  31.8103657  46.7060890  32.6698685  31.8075390  46.8626556  33.6141739
  31.2762470  45.9199944  32.5558243  69.4854279  41.1646080  65.5454178
  69.0692825  41.7994156  64.9622498  70.1435928  40.7338524  64.9999847
  50.8411942  57.0551224  12.1985960  51.3734322  56.2804184  12.0175343
  50.4437065  57.2748985  11.3560190  50.6697731  31.1970119  33.7327652
  50.2941132  30.4271488  33.3056564  50.0912361  31.3643551  34.4767532
  62.8930130  40.0044060  54.3926468  62.4092522  39.2827530  53.9908714
  63.5761070  39.5766792  54.9090424   8.9507923  37.3309364  36.7222786
   9.7258444  36.8120918  36.9375191   8.9374475  37.3559494  35.7654991
   4.2024832   2.2421532  56.2637978   3.4661992   2.6015823  56.7587013
   3.7950132   1.7031738  55.5857849  72.4297409  35.6184959  48.4093704
  71.6329651  35.0940628  48.3296165  72.7920837  35.3755684  49.2613792
  43.5894165  27.3030586  62.4289474  44.1917305  26.5622311  62.4969482
  42.7185020  26.9090023  62.4785728  23.6877308  23.0214195  48.0313606
  23.5956383  22.2822781  47.4301796  24.2319851  22.6848087  48.7431984
   8.7561932   7.2619658   7.7466474   9.4964991   7.8674026   7.7869763
   8.3552237   7.4303861   6.8939524  38.1723251  40.0997849   4.4580650
  38.4198914  40.8892746   3.9767663  37.6336403  39.6029205   3.8422930
  72.0428162  12.1295252  65.0635071  71.6496887  11.5018559  64.4571152
  72.9283676  11.7975006  65.2111435   7.1007562  56.7181816  28.7324333
   7.8514915  56.9524422  28.1867676   7.3573551  56.9781151  29.6172066
  21.6467495  26.5061054   7.4121957  21.2737350  26.7115784   8.2694426
  20.9444256  26.0501385   6.9484448  36.1151886  33.1257172  21.6256638
  35.9549255  32.2433853  21.9603863  37.0450974  33.1305771  21.3987865
   2.6693044   0.7332825  65.8672180   2.8339381   1.0893897  66.7403259
   1.7846189   1.0280824  65.6512146   2.7600696  41.4208946  26.5201378
   3.3806286  41.7788315  25.8852997   3.2881057  41.2468987  27.2993259
   2.4950445  67.5248337   5.8451838   2.1772382  68.4108887   6.0187793
   2.6636248  67.5111389   4.9030457  30.2667809  65.8380585   4.3660746
  31.0542450  66.0226288   4.8779969  29.5685673  65.7689133   5.0171881
   1.4793870  12.4001303  85.6536713   2.0491059  12.9337921  85.0997238
   2.0754580  11.8018274  86.1041870   8.8273563  61.9266586  48.9242592
   7.8824968  62.0018311  49.0577583   9.0633631  61.0990601  49.3433189
  26.2206612  57.7717628  38.5801811  26.8918018  58.3036919  38.1525650
  26.6676960  56.9548912  38.8017960  48.7175598  15.5273705  51.2991447
  49.0261726  14.6261539  51.3929367  49.2302437  16.0237236  51.9371223
  45.9575768  13.9803782  46.6665192  45.6745453  13.1910219  47.1280823
  45.9810257  13.7234201  45.7447510  82.8485107  18.5000324  17.1844234
  82.2889786  18.4610023  17.9600735  82.9214478  17.5903358  16.8956928
  15.2800713  57.1460037  83.9605942  14.8822565  57.9419670  83.6078644
  14.6529541  56.8335571  84.6127701  39.3579597  27.4568253  63.2803879
  39.6103897  28.3697567  63.4184647  38.9210968  27.2035103  64.0935364
  50.0484123   6.3824911  72.2403946  49.2849197   6.9095521  72.4760208
  49.6891594   5.6525931  71.7360001  57.0690041  29.7080193  10.1168404
  56.2212868  29.5258121   9.7113667  56.9028854  29.6459103  11.0574675
  66.5320358  37.8901176  70.5878220  66.0630951  38.6412125  70.2242508
  65.8564682  37.2236252  70.7128601   6.9252844  35.2379112  89.0394287
   7.6271224  34.6400223  88.7821655   6.7109694  35.7147942  88.2376328
  37.2666283  46.6968575  21.2550220  36.6133461  47.2466049  20.8223171
  37.5713081  46.1023216  20.5695057  24.4796104  18.7824078   4.2459497
  23.6260548  19.1866760   4.0902548  24.4836349  18.5844765   5.1824532
  84.7917709  47.8128433  80.3521881  84.7349319  47.4093513  81.2183304
  83.9238739  47.6828270  79.9699707  84.8976364  24.9778233  60.0737762
  85.2788620  24.1297646  59.8464050  85.3465271  25.6026363  59.5042686
  15.3977842  60.2328682  47.3178558  15.1112986  59.4031944  46.9360237
  16.3398361  60.2608948  47.1505661  72.5072327  41.4548836  15.0595751
  72.6970444  42.1159286  14.3938255  71.8325577  40.9031754  14.6637745
  19.9611378  32.2686234  16.5661144  19.9060822  32.8147163  17.3503227
  19.8197880  31.3771172  16.8846588  78.7197723   2.4958234  37.6006355
  78.9338379   3.4281938  37.6336937  79.1410141   2.1257145  38.3764000
  66.8191376  65.5148087  75.9231567  66.0860291  64.9251404  76.0994797
  66.7091217  66.2283173  76.5516663  76.0651627  21.8731728  42.0598030
  76.9473953  21.5019703  42.0494652  75.4955292  21.1437416  41.8155098
   5.2190256  35.2005081  33.6199875   5.5944242  36.0331154  33.9064751
   5.0407701  35.3262177  32.6879730  46.8456192  43.3554459  49.4567642
  46.5699997  44.2413406  49.6922569  47.1758575  43.4372292  48.5620689
  74.1327438  35.9986153  56.5678406  73.3301239  36.4645386  56.3334465
  74.0674896  35.8702011  57.5141411  51.6873055  13.4724140  65.3488770
  51.6517448  12.6728716  65.8739471  52.0606461  14.1288242  65.9370728
  46.3625565  52.5451241  17.4033108  45.7733002  52.7872124  16.6888847
  46.5804787  53.3758507  17.8259640  81.2016907  25.9566727  78.0724564
  81.5581894  25.9207001  77.1848450  80.2596359  26.0716133  77.9477158
  34.3301315  23.0142899  19.5534267  34.8647766  22.2203369  19.5482178
  34.9625816  23.7284222  19.6324863  77.1508408  20.7111473  19.2100010
  77.0171280  21.3764362  18.5349140  78.0770340  20.7858906  19.4398117
  66.4020538  32.6126785  79.2553101  65.6668015  32.0208778  79.4147034
  67.1212845  32.0366898  78.9961319  10.4218159  26.2898273  66.8545074
  11.1494465  26.6353474  66.3373947   9.8420887  27.0404682  66.9836807
   4.9384828  38.8695946  10.9255104   5.8145118  38.5954552  10.6541185
   4.9347448  38.7533531  11.8756189  46.7537956  39.2602959  11.5287256
  47.3065834  40.0205574  11.7094574  46.2537918  39.1307182  12.3346014
  78.1508026  33.4540329  72.8174133  78.3458710  32.6051636  73.2144012
  78.0099564  33.2585106  71.8910446  70.0431290  40.1228065  28.4506607
  69.4153671  40.7477150  28.0878391  70.7901764  40.6597824  28.7148628
  77.5565491  17.7631912  29.3488407  78.2250290  17.2093887  28.9455223
  77.9443436  18.6382656  29.3584538  50.5726547  40.4974937  84.6471100
  51.5089684  40.3912926  84.4789810  50.1458397  40.0481529  83.9176254
  28.3796921  12.9996033  13.7003107  27.8074360  12.5278120  13.0951929
  28.6712837  12.3334713  14.3227863  30.5338078  45.2890015   4.7307105
  29.6015549  45.4437828   4.5784512  30.9478893  46.1352119   4.5613027
  46.8626862  25.7207012  10.9014101  47.4928360  25.3870869  11.5400362
  46.3887405  24.9439545  10.6043034  50.3585052  21.2358341   0.8098701
  50.0126381  20.6621609   1.4936161  49.7118225  21.1863022   0.1058945
  57.4543457  25.3771896  83.9829636  56.7455063  25.8390656  83.5352478
  58.2541466  25.7322311  83.5950165  12.3874817   9.4596415   5.9543242
  13.3131685   9.3801069   5.7240849  12.2666540  10.3902931   6.1427937
   4.5557814  26.2833061  75.5407181   3.7490067  26.2446804  76.0543900
   4.6492243  25.4036713  75.1750183  67.1425858  28.9050007  77.5481644
  67.5865402  29.7475624  77.6442184  66.2657166  29.0546379  77.9016342
   1.1043355  59.4882088  33.3251228   0.1764665  59.4610596  33.0915527
   1.1721177  60.2067337  33.9538956  85.4454041   2.2139404  63.3153687
  85.6009293   1.8544143  64.1887436  85.0780106   3.0830925  63.4760818
  66.2027130  15.1335430  52.7658920  65.7011566  15.9362001  52.6230240
  66.4952240  14.8751287  51.8918800  55.2797928  52.1551170   8.0482483
  54.9990463  51.3445740   8.4730167  54.4695053  52.5495415   7.7256088
  38.4451828  27.7477150  85.6863251  38.0272255  27.2324829  86.3763046
  37.7425957  27.9250774  85.0609055  27.9009857  22.5305195  12.8107738
  28.3607407  23.2764549  13.1960497  27.9836369  21.8351650  13.4633713
  56.7923660  65.2856369  88.2260132  56.0352898  64.8947906  88.6622543
  56.8576889  64.8169861  87.3939514  81.8547440  44.4298401  87.2502975
  81.0853271  44.2201576  87.7796860  82.4170914  43.6592865  87.3293304
  81.3755951  18.2243557  81.1204453  80.8291168  18.6315670  80.4483032
  82.2727661  18.3694210  80.8199844  40.3332825  57.6877670  57.4147949
  39.9454193  57.6094589  58.2863808  41.1451416  57.1834717  57.4677315
  21.1391087  30.9423313  82.8847198  20.9482422  30.6077938  83.7610092
  21.6922359  30.2700062  82.4869003  68.4867783  70.6405411  30.3559208
  68.9402847  70.4075089  29.5458221  67.5744400  70.7623062  30.0931568
  79.6279221  49.0286331   0.5232190  80.1078568  49.7589607   0.9137476
  79.1588364  48.6307907   1.2566470  61.6421890  65.7751083  67.2585526
  61.7582436  64.8341141  67.3900757  61.3701935  66.1049042  68.1149902
  62.7692032  30.5047646  25.3528690  63.5929680  30.9662762  25.1958580
  62.3568077  30.9877491  26.0690308  30.4303436  55.8049583  54.6542587
  30.9985085  55.8279572  55.4242516  30.9010296  55.2577782  54.0255470
   8.6522808  60.0243874  66.7779083   9.5054121  59.7720642  66.4247284
   8.1025305  60.1555328  66.0053787  60.8858452  50.7295990  38.9994698
  61.4064560  50.7828865  39.8009415  60.6551552  49.8036194  38.9248352
  42.4195328  36.7813873  35.2317619  42.5765572  36.0274734  34.6632652
  41.4759140  36.7681885  35.3918991  69.3064194  70.5766373  34.8352585
  68.3859024  70.3674240  34.6767921  69.6203461  70.9236832  34.0002518
  50.0388794  33.1307068  51.5836411  50.9552193  33.1697884  51.3097267
  49.5629120  32.8786011  50.7923584   9.9853764  60.3830147  74.6869736
   9.7353163  61.1616516  74.1895599  10.9349546  60.3257599  74.5808792
  31.6100025  33.8470383  70.6831512  32.4612122  33.7496071  71.1099777
  31.4176922  34.7827988  70.7431488  51.1239967  26.8492870  61.9169197
  51.5153656  26.1233540  62.4028015  51.0078621  26.5087910  61.0298996
  42.0065231  21.7483387  80.0121460  41.9981613  22.4810658  80.6279984
  42.7231750  21.9494591  79.4103241  28.4195290   3.3204765   5.4125667
  29.0149746   3.8337500   4.8664665  28.4820881   2.4309759   5.0645623
   5.3494363  59.5560036  81.4789734   6.2807422  59.7387695  81.6034622
   5.3046756  58.6065254  81.3661804  65.2411423  21.4638557  31.3386497
  65.9795456  21.8128471  31.8378468  64.7237625  20.9803658  31.9826946
   4.4842548  58.3598709  72.8986130   4.1155648  58.4655113  73.7756195
   3.7220883  58.3311920  72.3202438  18.6671295  13.1195774  45.9026337
  19.2123775  13.1966095  45.1196899  19.2866764  13.1618099  46.6310654
  51.2961235  39.3170967   9.5845680  51.8134537  38.5149765   9.6567316
  50.7882996  39.3483391  10.3953524  67.4829178  38.7323799  49.1757050
  67.8096771  39.6319580  49.1609726  66.9870377  38.6443176  48.3617134
  56.8687286  52.2432594  77.5539322  56.3593559  51.4817009  77.2767944
  56.2644424  52.9804001  77.4662094  22.5743866   2.7237070  87.6505127
  23.2000027   3.4435410  87.7322083  22.5840855   2.5024700  86.7192841
  79.8798676  46.6129837   9.6976547  79.0179520  46.9828987   9.5066061
  79.7563019  45.6667366   9.6229715  56.8620567  32.2205582  50.7244873
  57.7453651  31.9450893  50.4793015  56.2914009  31.7888298  50.0887260
  44.4720917  63.1375618  69.9797287  44.6472855  62.4811134  69.3054733
  43.5366096  63.0495491  70.1623688   8.2982950  37.7484703   7.6068625
   8.8186617  37.0432854   7.2219453   8.5605974  38.5314178   7.1226845
   4.8153234  53.0596428  68.3138275   5.6033659  53.1584129  68.8481140
   4.0971513  53.0460548  68.9465027  41.5544357  70.0310364  57.0909157
  40.9099998  69.4262238  56.7232971  42.1014786  69.4843674  57.6549492
  13.5327311  35.5353928  32.2294960  12.5971470  35.6238861  32.4113846
  13.6895571  36.1225929  31.4900169  61.3242188  34.3373718  64.2611465
  61.7912254  34.2737885  63.4280281  61.8105354  34.9947166  64.7587662
  43.3545456   1.7488179   3.9543803  43.8118477   2.5001576   3.5767634
  42.4335976   2.0095356   3.9649603  -0.0284511  13.2779865  75.5494690
  -0.1866309  12.4113531  75.9238434   0.8147072  13.5463514  75.9145660
  41.5049515  63.7007332  86.4972687  41.0985718  64.5265427  86.7601776
  41.3358765  63.6392250  85.5571289  42.7573471  14.7948780  18.3571491
  43.6677589  14.9885206  18.1338100  42.7963600  14.4613628  19.2535191
  36.0118790  51.0032997  82.4251404  36.1777077  51.9202003  82.6442947
  35.6026306  51.0339699  81.5603790  71.2015762  53.8961143  16.1962280
  71.9366455  53.8548546  16.8079472  71.2777252  54.7585983  15.7881136
  15.9940109  59.1773415  86.3941879  15.3699465  58.4612350  86.2760162
  15.8672752  59.4583969  87.3003769  70.5514832  25.7663097  86.1034317
  71.1474228  26.0989475  85.4322891  70.6391830  24.8145695  86.0511932
  58.9431839  36.6553841  57.0751534  59.8311958  36.6633987  57.4323730
  59.0603561  36.8142090  56.1385231  10.7037630   2.3683672  28.1674671
  10.4960585   1.6745559  28.7933407  11.0291872   1.9051228  27.3956280
  61.7200432  47.2749138  83.5283356  61.4406509  46.4145546  83.8413086
  60.9036140  47.7408333  83.3477859  50.1655006   8.9488907  70.0113602
  49.2138786   8.8559475  70.0561905  50.3919678   9.4687605  70.7825165
  65.7012100  21.2202148  50.3584976  65.7826538  20.6126003  51.0936203
  66.4988251  21.0853424  49.8467865   1.7540352  46.8941994  28.7942238
   2.1571529  46.5970383  27.9784889   2.3058898  47.6209450  29.0832424
  86.3939362  36.0062218  38.1762428  86.6524200  35.3106537  37.5715904
  86.7665253  36.8028221  37.7983055  54.7963638  63.8250999  42.5353699
  54.8883209  64.4152679  43.2833481  55.0379105  64.3585968  41.7782249
  61.5577812  67.0138626  47.8738365  62.2194443  67.0007477  47.1822701
  61.8410721  66.3376312  48.4892120  44.7216835  49.2005081  83.9956512
  44.8785400  48.3459740  84.3973999  45.5614815  49.4381523  83.6025925
  55.1100922  63.2549171  75.6815948  55.6489983  62.8448601  75.0050812
  55.5164452  62.9878197  76.5060730  76.7806854  10.1533060  50.0090485
  76.8274155   9.8573885  50.9181595  77.6854172  10.1171026  49.6985817
  61.0409164  45.6412544  50.8378448  61.9255867  46.0065880  50.8268623
  61.0905342  44.8763390  50.2645493  38.7701912  70.5033493  58.6504517
  38.1810036  70.3744888  59.3937416  39.0564613  71.4135513  58.7267265
  22.8519020  46.7151680  10.0552092  22.8934708  46.9108124   9.1191397
  23.1324978  45.8024445  10.1218233  49.4394493  13.6988926  43.4334450
  49.2019501  13.3549328  44.2945595  48.8668861  13.2337399  42.8234940
  37.1917763  20.2355595   2.0255651  36.5249863  19.7335796   1.5569090
  36.7052269  20.9420242   2.4503076  50.7947311  23.6312923  19.6019096
  50.1698723  22.9722233  19.9042587  51.0370560  23.3453465  18.7211456
  42.3361511  48.1585312  63.1593895  42.0691719  48.0566025  62.2458458
  42.8453445  47.3706017  63.3494492  60.1926918  39.5875931  59.6066856
  60.1809044  38.6821518  59.9169579  60.6160698  39.5415268  58.7494431
  85.4297791   8.7658634  73.6166611  86.2300415   8.4320383  73.2112274
  85.1675034   9.4994059  73.0604630  32.4325943  63.9967995   1.7578613
  32.3539047  63.7428627   2.6774018  31.7987709  63.4434319   1.3014830
  56.6835709   8.2452860  41.7559357  56.7111702   8.4506617  42.6904335
  56.2967873   9.0217905  41.3513756  34.5240135  45.4568672  19.8656712
  34.5592422  44.5338211  20.1166172  35.3383560  45.6056709  19.3851128
  64.6415329  39.4942322  85.3360291  65.5690384  39.7257080  85.3848343
  64.6376953  38.5447273  85.2149582  63.3127251  24.9187927   2.8738055
  62.5698624  24.7801247   2.2863011  63.8098297  25.6289520   2.4678583
  83.8239822  39.3061447  37.5784988  83.3853912  38.5094490  37.8770714
  84.0030441  39.7961044  38.3810616  43.1514244  32.1704102  13.0276785
  42.5471115  32.2121277  13.7688246  43.6432991  32.9902954  13.0732536
  70.6368027  28.7848186   9.7739983  71.0291519  28.0722923   9.2694254
  69.7904663  28.4394283  10.0579987  72.7996902  54.1441765  76.9781494
  72.2375259  54.8672180  76.6999359  73.3657150  54.5254478  77.6493301
  38.5230904  63.0327415  75.2290802  38.5221825  62.8041229  74.2995834
  39.3205490  63.5486221  75.3480682  43.0658226  52.7132683  79.4185181
  42.8323364  51.8061142  79.2215652  43.9824753  52.7876854  79.1531143
  29.8244610  35.7736206   6.8137507  29.7973137  35.7391815   7.7699456
  30.3947811  35.0465813   6.5639925  57.4739265  39.6594505  40.5425224
  58.1966515  40.1208534  40.9679756  56.8474655  39.4941444  41.2471161
  62.7828789  17.8736763  54.7831802  63.6333809  18.2555714  54.5662994
  62.8126640  16.9937382  54.4076080  47.7762871  40.7113953  67.1975937
  47.7955132  39.8189735  66.8519821  48.1354675  40.6337357  68.0814514
  18.7982159  66.0555344  20.5439892  19.6879997  65.7098694  20.4730206
  18.5430717  65.8761978  21.4489613  32.9763260  42.3905563  24.7036171
  32.5115204  42.4069099  23.8670082  33.8458672  42.7358093  24.5012970
  40.8301468  22.9286823  75.9363556  41.4601135  22.8347816  75.2218170
  40.8808517  23.8528423  76.1804581  21.6089592  42.9064522   9.4904308
  20.7911987  42.5101852   9.1896439  21.9255123  42.3140717  10.1724215
   8.5898161  33.9778595  70.5144653   8.7602262  34.1284943  71.4442444
   8.3829489  34.8447876  70.1653519  22.3147335  49.7574043  68.1817169
  23.0501156  50.2587357  68.5340118  22.7134552  48.9598770  67.8335724
  15.9384336  33.1933174  81.7996826  15.0176249  33.3749199  81.6116333
  16.3040676  32.9152336  80.9599152  29.0502281   9.5947094  13.8407221
  30.0040264   9.5223846  13.8763580  28.8047657   9.1325788  13.0392141
  51.1359100   1.7874061   1.1448067  50.2389259   1.4583725   1.2030381
  51.1823921   2.4750164   1.8090833  49.3016281   9.7678232  60.7647858
  50.0474129  10.1688681  61.2111092  48.5696907  10.3581429  60.9437256
  76.5100174  45.4282990  18.7705345  77.2343826  45.6887741  19.3394699
  76.6859055  45.8716698  17.9406433  61.8701553  31.5830460  70.9272232
  61.0954247  31.4706535  70.3764114  61.5201492  31.7964478  71.7921982
  54.2435265  31.1485672  18.1916046  54.0146942  30.2313175  18.0415287
  53.8262062  31.6205311  17.4709606  38.0808525  32.1945114  62.9165840
  38.7015495  32.7571487  62.4535446  37.2673035  32.2747498  62.4186554
  25.5328941  71.2968369  75.9835663  24.8106575  71.8635254  75.7125168
  25.1869354  70.4087906  75.8945541  71.2442245  51.0196304  16.4948139
  71.2291260  51.9663658  16.3544693  71.2775803  50.6473732  15.6135960
  46.2252502  54.3041344  70.9756470  46.4605980  54.9151611  70.2774429
  45.8644981  54.8585167  71.6675644  51.6070404  42.9806900  46.3106689
  51.1459808  43.7372055  46.6730766  51.8109741  43.2332916  45.4102058
   0.0416141  41.0721321  27.2271385   0.2007090  40.4724007  27.9560032
   0.8883116  41.4909172  27.0723667  59.3567581   8.7430773  71.2235718
  58.4801941   8.4976244  71.5195770  59.7070084   9.2818422  71.9330063
  20.0831108  51.9571114  21.0047607  20.9471245  52.2966995  21.2379780
  20.2484245  51.0595131  20.7162762  22.7404156  57.6318245  31.6877308
  21.9446602  58.1460838  31.5515537  23.1146812  57.9795036  32.4972229
  22.9671783  61.0288658  58.3436394  22.2628860  61.4717102  57.8702545
  23.3359451  60.4168167  57.7067413  69.5539169  13.5775423  55.7364960
  70.2890320  14.0900068  55.4000168  69.4878616  13.8296728  56.6575279
  61.9392624   1.5114834  22.4444637  61.4814835   1.1121773  23.1842117
  62.8663063   1.4489750  22.6744900  47.0660286  13.4021969  16.8269310
  46.6784058  12.5342741  16.7142849  47.1660423  13.4987631  17.7739811
  25.3587341  16.2638683  88.5739059  25.0873585  16.7718792  89.3384399
  24.6998425  16.4620590  87.9084625  54.3948708  39.0823212  88.0537262
  53.8913193  39.8820076  87.9015045  54.1796417  38.8310814  88.9519424
   9.8598394  35.2501297  29.1227570   9.7239876  35.2647820  28.1753597
  10.4263363  36.0021935  29.2951431  82.6479187  43.2235603  34.3237801
  82.7396088  43.7428780  33.5249443  82.9643097  42.3533020  34.0813370
  49.5237846   6.6552024   0.5058314  48.6675072   6.5910945   0.0828548
  49.4197502   7.3530450   1.1526885   4.9224944  36.1124611  27.3937931
   5.5629511  35.4010925  27.3932858   4.2105412  35.7933655  27.9483490
  70.0477753  16.8380623  45.5089722  69.6868362  16.5137978  46.3340836
  69.8463058  17.7738190  45.5107384  67.3100662  48.4235954  17.2412663
  67.1574478  47.9019852  18.0292149  67.9936066  49.0443382  17.4936275
  79.3616333  42.5238075  17.7166176  79.6727448  41.6546173  17.4637394
  78.7470093  42.7688179  17.0249233  55.0683060  56.0065041   7.9454293
  55.5411987  55.7089081   7.1682272  55.1666336  56.9585915   7.9356785
  84.7206879  32.1821709  80.1041183  84.1718216  31.9484749  80.8526993
  84.8996811  31.3486500  79.6688766  55.9138184  63.5560455  79.7120667
  55.3742027  64.3383560  79.5978394  56.6015739  63.8262253  80.3205261
  49.6620331  24.2920589  61.7730026  49.1248665  25.0385303  61.5075455
  49.3397369  23.5640430  61.2416382  22.2898750   2.1667986  59.4279480
  22.0371342   2.1973703  60.3506737  21.7499332   1.4701176  59.0546799
  23.0060272  41.4633293  75.4388733  22.2308769  41.6510582  74.9095917
  22.8523788  41.9275894  76.2617264   7.5633407  59.6153488  74.3356552
   8.4482346  59.8268013  74.6331177   7.2404342  60.4285316  73.9474640
  23.9746494  26.2856922  15.8456259  23.1290245  26.6483784  16.1094666
  24.6198826  26.8276253  16.2997341  73.8864212  26.7523136  67.2833099
  73.8864746  26.9457207  66.3458557  73.5880814  25.8445988  67.3405838
  56.3119621  43.8293228  56.2959175  55.7318153  43.1869774  56.7046432
  57.1392593  43.3629417  56.1763191  61.9789772  23.2784901  33.4879494
  62.8671074  22.9934292  33.7028847  62.0769997  23.7760258  32.6761093
  37.8605919  40.1671143  18.6073685  37.6760101  40.9833870  18.1427670
  38.2094269  40.4468498  19.4537106  53.3494263  32.2331505  28.2700062
  52.8303719  32.1805420  29.0725307  53.0915565  33.0646324  27.8720512
  21.4791813  13.6854973  18.6321602  22.2291889  13.0951939  18.7047176
  21.1852226  13.8112822  19.5343800   7.4104381  14.4913521  75.0593948
   8.2179708  14.8511410  74.6924133   7.0475850  13.9519405  74.3568268
  20.2864380  66.8150864  28.5839081  19.3545494  67.0257187  28.5252056
  20.6707420  67.5570297  29.0508785  16.7481346  43.8029633  61.3406830
  16.0229645  44.4100685  61.4882622  17.4310799  44.0942345  61.9448128
  26.2022820  48.5529938   1.0426039  25.6518517  49.3260460   1.1677111
  25.7667713  47.8649139   1.5457015  46.7989197   3.8183038  43.0194283
  46.9962654   3.5224223  43.9081001  47.6462212   4.0832753  42.6615143
  48.4506836   3.1038184  33.5794601  47.6549492   3.5584514  33.8557663
  48.7157516   2.5970092  34.3469963  19.6972046  71.2579193  76.3028793
  20.4937820  71.0585861  75.8109741  18.9881573  70.9116669  75.7610321
  64.8425217   5.0104356  32.1730957  64.7723236   4.1013942  32.4645576
  64.8827972   4.9534426  31.2184448  47.2941513   0.8596743  61.1981812
  47.2742233   1.8080244  61.0698586  47.4795532   0.5042107  60.3289833
  81.9030228   5.7664661  18.0062981  81.8159180   5.9313374  18.9451599
  82.7338562   6.1772103  17.7670593  70.2344131  18.4244843  70.9989929
  69.3652573  18.6304321  70.6549149  70.1450043  17.5442562  71.3642807
  15.0953732  54.4232864  78.4930573  15.3373413  53.9874458  79.3102036
  15.4267941  55.3159790  78.5904922  63.3635902   2.5550077  12.4491358
  63.5237274   1.7609271  11.9392099  64.0200882   2.5290952  13.1452494
  79.2067795  14.3193169  78.7470932  78.9310379  13.4299927  78.5250626
  78.7130127  14.8796778  78.1484146  15.0050154  66.5070496  24.5626545
  14.6204777  67.3695374  24.7190895  14.2561398  65.9416351  24.3736420
  28.8028355  47.4258690  80.9101715  28.0304966  47.7882767  80.4761429
  29.3619919  47.1263771  80.1933212  45.5963364  25.5797634  62.5118484
  45.7751503  25.7214642  61.5822372  46.0319023  24.7522430  62.7161140
  57.5227890  33.2289391  47.5319214  57.8411903  32.4884605  47.0156403
  56.5809784  33.2517166  47.3624840  74.3192062  71.5603943  42.2629890
  74.1368637  70.8290863  41.6729279  74.2280579  71.1887054  43.1403542
  14.2343159  58.4267082  19.7851353  13.7958994  57.5963593  19.5992832
  13.5220022  59.0612106  19.8641872  67.4708557  40.6705818  14.1991701
  66.7321243  41.1165924  14.6133957  67.4255524  39.7737274  14.5305767
  47.8902588  46.3133583   4.3328590  47.1165543  46.4672546   3.7907064
  48.3192177  47.1674080   4.3859935   4.4073310  23.3877831  31.0387669
   4.4971232  23.0809441  31.9409962   5.2978759  23.3656883  30.6885185
  53.2825813  35.9511337  12.4826403  53.5203972  35.4733772  11.6880198
  53.9942207  36.5791855  12.6065292  30.5481777  49.7790756  20.5112476
  31.2672825  49.2545853  20.1590652  30.8216362  49.9919853  21.4035034
  26.6834774  48.7310944  44.8748970  27.0660305  47.9536018  44.4682121
  26.7005234  48.5434608  45.8133736  27.0160103  67.4724655  21.9467945
  26.4202137  67.8604813  22.5876560  26.6745434  67.7572937  21.0991497
  24.2642574   0.3895625   7.3406014  24.3967056   0.0415541   8.2224064
  24.1110859  -0.3841570   6.7982655   7.2241340  14.9585791  70.8919296
   7.9505968  14.9971590  70.2698364   6.4965572  15.3828650  70.4371262
  72.5298004  18.2936115  41.6213608  72.8651505  19.1539841  41.8734131
  72.9634399  17.6833782  42.2178574  33.0491295  38.0491486  80.4007111
  32.3698692  38.4076233  79.8294601  33.8677559  38.3966599  80.0466995
  65.5461121  24.7482185   8.1835909  66.1268082  24.9006786   7.4380884
  65.2953491  23.8275871   8.1075125  86.1262512  36.1306801  30.2638664
  87.0194626  36.2358475  30.5914955  86.0184250  36.8400841  29.6303425
  28.6526089  45.8669434   8.7688913  28.1289825  45.8968430   7.9681716
  28.0187263  45.6862373   9.4629869  73.1155701  46.7263298  29.6514874
  72.4510498  46.0674744  29.4500942  73.8318939  46.5370636  29.0454445
   4.5225067  56.1880989  34.9220963   4.0963693  55.6621094  34.2453575
   4.3556886  55.7122841  35.7357330  68.5369644  55.4903526  56.2081223
  68.8009949  56.1406860  55.5572853  69.0193481  54.6997986  55.9661255
  72.1828613  42.3808632  19.9048672  71.8329391  42.4835281  19.0198536
  73.0831680  42.0835304  19.7734547  62.4801102  45.4871902  74.5995026
  63.1673431  46.0151329  75.0059738  62.0227661  46.0953560  74.0188065
  79.0366669  13.1630125  62.9284554  78.5292664  12.7363834  62.2379723
  79.9185715  13.2405672  62.5645027  15.7467451  41.1442070  63.0149689
  16.2321377  41.0559387  63.8352356  16.0377445  41.9813385  62.6533585
  56.4091835  28.6351109   0.9568579  55.9091759  29.4513111   0.9631667
  57.3199997  28.9129448   0.8596020  53.0574417   6.9415045  60.3739166
  52.3401375   7.1904283  60.9567947  53.6112175   6.3702068  60.9060669
  38.5918541  62.8021278   5.4062791  38.0761147  63.0232544   4.6308146
  38.2149544  63.3368111   6.1050572  76.7718735  40.2320061  13.6997557
  76.2412796  40.4929962  14.4524784  76.7827606  41.0047226  13.1349335
  81.9312897  31.4619522  16.7047005  81.4531097  30.6431236  16.5739498
  82.6770096  31.2188396  17.2533569  63.5458031  20.0748291  18.1281891
  64.0404358  20.5357609  18.8057671  63.9120102  20.3958454  17.3041306
  42.4615974  11.7729416  56.7815437  41.8399734  11.3333082  56.2014275
  42.0201607  11.7983761  57.6304932   2.5627038  51.7472458  56.1847343
   2.2329369  52.2827606  56.9063377   2.2615054  52.1972427  55.3954239
  83.1078415   2.5740674  66.4991989  82.4743347   3.2862539  66.5869217
  82.6937256   1.8299549  66.9362793  78.9690933  42.0458984  69.2527237
  79.0402756  42.1861076  68.3085327  78.4693832  42.7983055  69.5695953
  11.9223700  16.7023525  11.8387041  12.0444794  17.5325642  11.3781958
  11.3156652  16.9096813  12.5494480  54.5895081  63.8648529   0.4864407
  53.9478607  63.1635513   0.3737543  54.7678337  63.8775063   1.4267981
  79.6940689  43.9722443  42.4497070  79.8933640  43.5367432  43.2784691
  80.2985382  43.5783005  41.8207016  44.3272057  30.8961678   4.6585941
  44.0785294  31.0949326   5.5613031  45.2150269  30.5449009   4.7265458
  56.4518814  27.5603695   3.7914822  56.3697624  27.6121407   2.8392177
  57.2202225  27.0080891   3.9359493  32.0928993  68.9404373   3.2949157
  32.4475060  68.8696976   4.1811891  31.1479893  69.0266724   3.4211872
  56.6586075  40.8084068  51.0315437  56.2008934  41.5628700  51.4023781
  56.1789360  40.6086617  50.2276497  59.7506447  60.5542336  24.6516132
  60.4151993  60.5458145  25.3404732  60.2164230  60.8597527  23.8731918
  81.9854126   3.6619265  47.8019905  81.3007660   3.0131309  47.9649429
  81.7634354   4.0353079  46.9490280   0.6146584  55.6941261   8.8538008
   0.0418474  55.4851303   8.1159391   0.5264756  54.9463310   9.4447794
  33.1038666  11.9733114   2.5243835  32.3654404  11.4628992   2.1920643
  33.5899925  11.3602018   3.0757561  11.0089598   9.3115969  75.7940369
  11.9155025   9.5892382  75.9256668  11.0484200   8.7091961  75.0512085
  20.7814922   4.6293859  31.2029839  21.1954079   4.9729853  30.4112492
  20.6332417   3.7030134  31.0130177  58.7543297  64.5512161  22.0294952
  59.1530190  65.3885117  21.7924042  58.3986244  64.6950912  22.9064255
  32.8028793   1.8067477  48.3321381  32.3355293   2.5342832  47.9216423
  32.1384850   1.3616248  48.8581390  85.9991531  30.2393875  39.7776985
  85.1636353  29.7743950  39.8214607  86.3860550  30.1188412  40.6448860
  15.4826403  41.7648697  10.3553181  16.1675110  41.4277382   9.7778006
  15.1730061  40.9959450  10.8339720  13.9695234  63.0679398  10.4699574
  13.2818823  62.4022713  10.4535303  13.9763231  63.4272156   9.5827675
  46.5297394  16.5112972  49.8259697  46.7657623  17.3756676  49.4892349
  47.3551483  16.1437969  50.1420021  79.7896805  56.3135033  62.0991364
  79.8854446  56.1588135  63.0388870  80.0284348  57.2330437  61.9822083
   4.9155564  54.2716637  20.1009674   5.2668953  53.8433456  20.8815670
   4.5509186  53.5568352  19.5791550  21.1633701  14.9064236   8.8501511
  21.5703812  14.6252356   8.0306959  20.2643871  14.5824280   8.7945871
  11.7739286  23.6849613  65.7826996  12.5410662  24.1888485  66.0544205
  11.6563921  23.0352249  66.4757080  86.1474686  46.3192520   8.4433336
  85.8100128  46.2889709   7.5481043  86.9608231  45.8156967   8.4098625
   8.9091387  29.7088356  22.4020405   8.6350670  30.5562420  22.7527828
   9.0897446  29.1761379  23.1765366  30.2266407  60.7448006  45.3978424
  30.4987450  61.3385201  44.6980667  29.5492668  61.2274628  45.8715858
  62.4610405   6.2342148  37.3767586  63.3014297   5.9959226  36.9853592
  62.4495049   5.7756844  38.2169037  75.2624817  32.7351685  11.5136375
  75.2880554  32.1986237  12.3059111  75.8946915  32.3230896  10.9247913
   7.1648812  71.7531967  31.9578285   6.5990009  71.9396210  31.2086563
   7.3623681  70.8196411  31.8823795  84.5668411  44.9800491  14.0687656
  85.0417786  44.3306961  13.5501041  84.1417007  44.4709244  14.7588968
  64.5738144  54.7650757  37.8422203  64.0695419  53.9556808  37.9247780
  65.0128326  54.6884041  36.9950943  64.9372787  28.1319923  43.4233398
  64.1362686  28.5013390  43.7950859  64.7762070  27.1888199  43.3966408
  37.2051697  47.5245171  60.6579895  37.1810989  46.6475983  60.2750244
  37.7960777  47.4428177  61.4065781   6.6672029  18.9965229   5.3460889
   7.3897667  19.6052265   5.4997530   5.9285736  19.5568085   5.1078911
  72.9222641  45.0678024  38.3416443  73.1105194  45.6086197  37.5746346
  73.6329880  45.2627678  38.9524574  81.4038162  51.1700935   7.5629945
  82.0619049  50.5059166   7.7679987  80.9600983  51.3325577   8.3954287
  20.7876816  48.3655968   4.6476941  19.9570560  48.5725746   4.2193823
  20.9507999  47.4493446   4.4238496  57.8170433  41.2896767  70.6321564
  57.2585602  40.6211586  70.2354126  57.6634216  41.2026329  71.5729294
  36.5360031  39.9506645  14.7913113  35.6754303  39.9115601  15.2085886
  36.5306854  40.7770958  14.3083830   9.0919180  51.5683365  53.2989082
   8.6077337  52.2517357  52.8354836   9.7879038  51.3148384  52.6926270
  20.9339733  13.7455664  64.5344849  21.0329704  14.3821421  65.2424393
  21.2322254  14.2092552  63.7520065  61.6113091  30.4256382   6.8210707
  62.1069336  31.0343990   7.3687897  60.7813988  30.3086834   7.2834616
   9.1916466  43.4742088  14.6435175   8.6114254  43.5867729  13.8905869
   9.8376970  42.8300476  14.3538504  49.4341583  17.9756813   5.2828617
  48.4885406  17.9808769   5.4312391  49.7847137  18.5644016   5.9512544
  45.2785530  10.6461887  79.4056854  44.7769318  11.3998995  79.0950012
  45.9929352  10.5574045  78.7748108  76.8468933  58.0840187  18.7222347
  76.5215378  58.8004761  19.2672634  76.3522644  58.1601181  17.9062824
  35.6674423  58.6493073  36.1625938  35.2399902  57.8036575  36.0269661
  36.2962036  58.7178192  35.4441261  34.1193542  50.2540207  67.3134766
  34.8801537  49.9616852  66.8115234  34.4869652  50.5948029  68.1289291
  54.2186089  58.6587601  22.1120396  54.5135384  58.5456619  23.0156193
  55.0074425  58.9117889  21.6325092  58.0197983  35.3873444  35.7720985
  57.8716011  34.4449463  35.8505402  57.3321419  35.7833138  36.3074188
  23.2170811  12.4389372  83.9685211  23.3913593  12.2005548  83.0580063
  22.2679291  12.3558645  84.0603867  36.8418503   0.7393299  46.0747070
  36.6366577   1.5718375  45.6491966  36.4960976   0.0743883  45.4792747
  64.9741592  39.9900208  69.4425583  64.7592697  40.4229393  70.2687836
  65.4490814  40.6528893  68.9412766  70.7137756  35.1510468  44.5411797
  70.1064606  35.8715553  44.7093010  70.2170944  34.3628883  44.7610588
  18.4313450  56.6480370  42.2184296  18.9149170  55.8222694  42.1960869
  18.2137165  56.8229980  41.3028641  79.8799667  59.6227684  47.3413620
  78.9337082  59.6462479  47.4837875  80.0930099  58.6904564  47.3008499
  51.7674980  60.8280411  12.8526487  52.4635468  61.3308182  12.4296083
  52.2016563  60.0345421  13.1658640  68.6464157  27.2603016  13.1999111
  69.3085785  27.5671024  13.8193035  67.9557495  26.8917274  13.7506943
  33.6593170  47.1561584   4.5993352  34.5075798  47.4220734   4.2444119
  33.8606911  46.4161987   5.1721706  74.0077744  36.7423744  59.5247688
  73.4609222  37.2187119  60.1494980  74.6582794  36.2964630  60.0672035
  51.5176544  15.3435736  25.6117592  51.3626328  14.8173857  24.8273296
  50.9495506  16.1064625  25.5045547  81.7489624  65.3982468  35.8109093
  82.6161346  65.6139145  36.1540184  81.8854523  65.2823715  34.8706017
  19.9131165  57.3013420  76.3069763  20.3054276  56.4285316  76.2840576
  20.5234146  57.8246880  76.8264771  71.4529114  38.7231216  85.3294220
  72.3925323  38.6252365  85.4835968  71.1225967  39.1443558  86.1229477
  72.4797974  11.0929050  12.7800188  72.7985611  10.5913620  13.5304022
  71.7746506  10.5575228  12.4162025  68.6086578  41.4121170  23.5254192
  69.0140457  41.4999161  22.6627579  68.9795609  42.1300049  24.0385418
   8.6794806  13.0900221   0.4921160   7.9993620  12.4362345   0.6540768
   9.4971447  12.6455364   0.7159262  28.9116955  50.7475433  89.1187515
  29.6449928  50.1797180  88.8819351  29.2508659  51.6356964  89.0075073
  51.5990410  30.3545990  44.6716766  51.4981575  29.4316635  44.4387779
  51.6753349  30.8066998  43.8314285  61.2647781  34.5144691  35.9950943
  60.7691422  35.1533661  35.4828606  61.0398178  34.7103348  36.9046326
  46.0733337   7.4551311  49.4382324  46.3054123   6.5269084  49.4104156
  45.1166077   7.4637785  49.4093895  73.7323837  36.9175720  30.1657391
  73.5045242  36.0119209  29.9557190  73.6715088  37.3798866  29.3298016
  35.9541473  41.0976944  62.0996895  36.0744934  41.3816299  61.1935272
  35.9185448  40.1425209  62.0486679  85.8785706   1.3306310   8.6842031
  86.4851990   0.6031409   8.8219881  85.4190445   1.4207028   9.5190430
  27.2368469  49.0488548  87.2096329  27.0444450  48.1836815  87.5711441
  27.1411667  49.6453629  87.9521027  15.3931437  41.0273972  25.8309860
  14.6270590  41.3613052  25.3642406  16.0736980  40.9653130  25.1607437
  81.8543015  69.5564194  46.6452942  82.2674942  70.2801743  47.1161156
  81.4193039  69.9722290  45.9009056  57.0102310  21.2234879  53.4373970
  56.6655083  20.3305187  53.4392662  57.4080620  21.3248367  52.5727043
  28.2542572  36.8435097  88.6366653  27.3558903  36.6032410  88.8634644
  28.2824593  36.7904701  87.6813507  30.7685413  44.2651863  53.7084656
  29.9205914  44.3979034  53.2846718  31.2632580  43.7265739  53.0909042
  66.7733917  10.6628761  85.2379761  66.6111069  11.1865816  86.0225983
  67.5409393  11.0679121  84.8341827  59.0712700   3.0903718  14.8333807
  59.6645622   3.5250974  15.4459562  58.6309738   3.8072519  14.3768110
  48.7329330  51.3505630  35.6945877  48.7963028  51.2447853  36.6438141
  48.6772232  50.4565430  35.3571587  17.6432419   5.5879517  74.5022888
  18.5424004   5.2650661  74.4432068  17.7336578   6.4981575  74.7843933
  27.1342831  53.3706398  19.4266930  27.4267693  52.9170647  20.2172337
  26.2023945  53.1618614  19.3616829  62.9496613  43.3124847  32.0463028
  63.1510773  42.5594940  31.4907227  63.6217003  43.2939796  32.7276649
  61.4477768  38.8971062  56.9472961  61.2089844  39.0573769  56.0343208
  62.1109657  39.5595207  57.1412392  71.7999649  46.2844162  58.1691284
  72.0801620  45.7307281  57.4403305  71.1763458  46.8967361  57.7787437
  78.4919586  68.9026566  69.4567032  78.5502930  69.4424591  70.2450256
  78.1239853  69.4864502  68.7933655  79.7955399  34.0900078  44.7367516
  80.1779404  33.4344368  44.1534576  79.1914444  34.5820694  44.1807175
  78.9312744  59.2653008  42.2718544  78.2832489  58.5693932  42.1622734
  79.2058640  59.4794464  41.3802414  37.9922905  57.0858727  17.4896908
  38.5443993  56.3464813  17.2353210  37.7078781  57.4690323  16.6599121
  36.8373489  42.1661224  59.5682755  37.6725693  41.7212219  59.7121658
  36.6936150  42.1061440  58.6238289  53.3027573  24.8879375   1.0013067
  53.5639610  24.1367035   1.5338951  52.4838066  24.6151009   0.5876490
  21.6242275  55.0107689  62.1936493  20.9687958  55.6706924  62.4197960
  22.2252865  55.0050507  62.9385834  60.7121735  14.1406784  85.0067368
  60.0562782  14.8315268  84.9131393  60.7850800  13.7594986  84.1317368
  60.5203857  16.0915298  15.3607664  59.6580429  16.5055542  15.3951120
  61.1354675  16.8047142  15.5318594  76.9144058  68.2922897  84.9536591
  77.8260498  68.0101852  84.8790665  76.9568253  69.2482605  84.9301224
  62.6260872  38.0028725  26.6635227  62.0543327  38.6974564  26.3365898
  62.4345131  37.9559822  27.6001816  45.7761383  58.8059464  55.7217216
  44.8199539  58.8192635  55.6796799  46.0570412  58.8802452  54.8096886
   1.6204821  54.3342361  40.0440254   0.7199252  54.1151962  40.2832947
   1.5347453  54.8779945  39.2609482  84.4098969  19.4172955  70.7671738
  85.1930923  19.9390831  70.9420319  83.7407074  20.0606289  70.5336380
  15.3571177  44.9660912  85.8788834  15.6573839  44.2589760  85.3078690
  14.4256659  45.0570183  85.6779785  26.2776470  20.0069771   2.2549770
  25.9139595  19.3059597   1.7141098  25.7286453  20.0138855   3.0390565
  40.6863289   4.5890813  67.9856186  40.8173790   4.1878037  68.8447113
  39.9275131   4.1331453  67.6215439  76.8599396  55.9926949  67.6296082
  76.5814896  55.1751518  67.2168961  77.2417145  55.7216377  68.4644775
   8.0372925  47.6969376  11.0600681   8.8036060  47.9411812  11.5790491
   7.4671431  47.2373619  11.6764679  54.3564415  12.6195269  28.5902500
  54.4267311  11.7218370  28.9149704  54.5346107  12.5496120  27.6523800
  29.6003036  64.4361649  16.0036793  29.1974182  63.6972694  16.4596939
  29.9049320  65.0127716  16.7043629  79.4061050  12.3901320  28.5027180
  79.7389221  11.5633545  28.8518658  78.7727432  12.1299982  27.8338299
  26.3745117  42.6850471  71.3367691  25.6250572  43.2788811  71.3804398
  27.0994778  43.2356796  71.0410309  66.6224594  61.7706833  64.8418579
  67.5723038  61.6535797  64.8240128  66.4513626  62.2140045  65.6727753
  75.9151382  31.1573391  16.9123459  76.6031418  30.7740898  16.3682861
  75.5134354  30.4086361  17.3531551  63.7327805   9.4290705  10.4159689
  62.7773705   9.4402809  10.4733572  63.9721031   8.5175266  10.5834360
  26.2065430  24.7560616   3.9600921  25.5308723  24.6701469   4.6326399
  25.7191696  24.8566265   3.1424205   1.7348688  39.5915604  24.2860832
   2.1764710  39.7474594  23.4512691   2.2592607  40.0708237  24.9276047
  74.4678192  66.2628937  38.3400040  74.2733841  67.1363754  38.0002213
  74.4098129  65.6900635  37.5753250  11.5930338  38.9467392  88.0796051
  10.8024845  38.5555305  87.7078323  11.7133102  39.7583046  87.5865250
  27.3951912   4.4422889  70.4181290  27.0838928   3.6170058  70.7899323
  27.6191311   4.9783378  71.1788788  68.8438568  31.2439632  19.2252235
  68.3387070  30.4310760  19.2415962  68.8799667  31.5219898  20.1404457
  44.2916222  42.5784073  24.6282463  44.6057625  43.4702950  24.7768707
  44.0630493  42.2565536  25.5002537  80.4375229  29.1402321  15.8284378
  80.5898590  28.7966480  16.7087650  79.6669693  29.7006607  15.9200754
  19.4924507  30.4013405  -0.0666564  20.2649975  30.9600315  -0.1519065
  19.1444931  30.6046200   0.8015805  46.1852074  20.8995419   7.8418751
  46.6473923  20.1051483   8.1093731  45.9629173  20.7494068   6.9230285
  79.1965485  27.9725399  66.2719269  80.0851898  27.9153423  65.9208221
  79.1444778  28.8503170  66.6501160  75.5616150  34.8688583   0.0943323
  76.3637695  34.6153336   0.5509564  75.8176346  35.6205368  -0.4401471
  68.1574402  11.8871193  24.8755322  68.7855377  11.5974751  24.2138443
  68.1583633  12.8417187  24.8050289   4.4098921  30.4095440  74.0966339
   4.6569638  31.3341866  74.1115723   3.4985423  30.4003925  74.3891907
  59.3569107  23.8932400  10.9842014  59.2089844  24.1905079  11.8819666
  60.2764244  24.0967121  10.8129702  76.7651672  59.1843834  39.4779243
  76.0846786  59.1435280  40.1498604  76.4148483  58.6699715  38.7506752
  20.7872982   9.8447676   6.2356944  20.4719257  10.4987049   5.6118851
  20.2915020   9.0536680   6.0245581  14.6596088  66.5620422  54.3310013
  14.6623774  66.1380615  53.4728279  14.4822664  67.4835510  54.1423073
  67.4240799  10.1409111  58.6250496  68.2935028  10.1380396  59.0254593
  67.4699020   9.4656649  57.9481621  53.3189964  18.7543163  45.8643837
  53.5402260  19.6834583  45.9274864  54.1320229  18.2991066  46.0834846
  53.9764709  10.1011467  41.0382614  53.2104645  10.6747780  41.0179520
  53.6158524   9.2173815  40.9665489  54.6527176  17.1834450  25.8699532
  55.3746033  16.6318035  26.1712933  53.8779373  16.6264668  25.9455795
  16.2035618  52.4942627   8.9128742  16.8645382  51.8101921   9.0195885
  16.6294632  53.1558990   8.3678274  22.8037815  33.4566345   6.1363440
  22.3548565  33.1789894   6.9348497  22.8932362  34.4051018   6.2293100
  79.4105225   2.1659510  29.1364956  80.1259003   1.6650206  29.5283298
  79.6463547   3.0807905  29.2903900  52.7311020   6.6053944   7.3549724
  53.0615234   7.4582844   7.6371622  52.6353340   6.1054792   8.1656170
  38.5369186  54.4169807  16.9614410  38.9139748  54.1074142  16.1378937
  39.2490425  54.3367920  17.5960102  44.2494545  53.5954361  65.1778641
  43.2943878  53.6134491  65.2391510  44.5403709  54.2926826  65.7656097
   2.9047983  19.5090218  57.3435173   3.4328160  20.2075520  57.7301521
   3.5368783  18.8245449  57.1239777  60.6357765  59.8191948  56.6628609
  61.0891380  58.9771690  56.7039604  59.7799606  59.6123505  56.2873230
  16.7434597  52.1658669  28.0845623  16.3089485  53.0162392  28.0190201
  17.2177486  52.0749130  27.2581177  49.0265160  55.7275543  41.7362061
  49.8453407  56.2212410  41.7812729  48.5468178  56.1251259  41.0095329
  21.6833096  20.2902088  77.2303543  22.5250645  20.1274281  76.8046951
  21.4765148  21.1990471  77.0124512  62.8763199  42.4882965  71.0281982
  62.3458633  41.6916313  71.0150833  63.7470055  42.1919594  71.2933807
  48.6020012  36.0772247  87.0127869  48.5118713  36.8522263  86.4582748
  49.3959465  35.6467934  86.6956024  28.3349190  43.5207901  17.8496151
  28.7102757  43.3153305  16.9933872  27.5284195  43.9960289  17.6497765
  34.4285698  66.4061890  30.6937809  33.9729347  65.7503052  30.1661034
  34.9328461  65.8957291  31.3273125  17.7307587  34.4152374  84.2820816
  17.1338100  35.1223526  84.0373993  18.1264725  34.7090187  85.1026535
   8.8301725  38.6948967  13.8282404   9.0087185  38.0370293  14.5002241
   9.3132343  39.4692459  14.1168022  22.4758892  10.7870531  76.0987091
  23.1958981  10.3618994  76.5646133  22.0348587  10.0737457  75.6372833
  28.7076683  57.3260193  50.0627365  28.2832127  56.6956024  50.6446686
  28.4468994  57.0532417  49.1830635  36.5151100  70.6443176  48.4908714
  36.1062431  71.3429260  49.0017624  36.6404572  71.0251465  47.6216812
   7.0456505  17.0896778  80.8317490   7.7734051  17.6177254  81.1600342
   6.5762329  17.6731281  80.2355423  12.8511362  33.4565163  12.2367411
  12.9364023  32.8796272  12.9957914  13.5217638  33.1499748  11.6263943
  58.1567802  50.3162689  13.9466314  59.0317192  49.9408875  13.8476133
  57.7199821  49.7428017  14.5763721  71.4965820  39.4410973  77.8397751
  70.7836990  39.9702797  78.1975403  71.2549133  38.5393600  78.0511932
  78.4342804   7.4897838  34.9010086  77.9389725   6.9360676  34.2974358
  79.0895996   6.9041858  35.2803001  44.3702393  10.3294191  82.0307388
  44.9396515   9.5874004  82.2342377  44.5829353  10.5531225  81.1246796
  36.2168121  53.0205193  32.4351006  36.1841660  53.6242485  33.1771774
  35.8729248  52.1969414  32.7810631  46.0447540  55.3246231  61.8421783
  46.2801552  54.7989235  62.6066780  46.1784286  54.7379684  61.0977287
  37.9995041  56.0272141  42.2587814  38.7171631  55.6756477  42.7856598
  37.7238579  55.2933884  41.7094612  60.0724297  69.7379684  33.6880951
  60.9586296  70.0990219  33.7110062  59.5155792  70.4839249  33.4651527
  72.1017761  59.6489143   7.6279092  72.8395538  60.1543274   7.9691973
  71.5006409  59.5724678   8.3688698  39.8182335  50.1747932   4.8617625
  39.2285423  50.9286728   4.8490634  40.3064995  50.2663956   5.6799536
  40.6961403  51.2165871  68.0359116  40.5433769  50.3475571  68.4069748
  41.4729233  51.1094513  67.4869461  65.7198410  53.8469925  23.9544640
  66.5754166  54.2731781  23.9035664  65.4904099  53.6609039  23.0439892
  46.6858559  57.0455627  50.3955803  47.1774254  56.4414444  49.8391380
  47.3444939  57.6563034  50.7263756  18.4765625  68.1511002  13.4118385
  18.6343765  67.2239685  13.5900488  17.9924488  68.4629440  14.1764412
  60.3812675  69.2577744  28.2047939  60.8683968  70.0617523  28.0243683
  60.2773590  69.2491074  29.1562977  83.6381073  35.6895523  30.7910500
  84.5308990  35.9231567  30.5368938  83.1063995  36.4340973  30.5096741
  52.3141251  23.8532791  27.3395195  51.5694923  23.7817936  27.9367161
  52.9243507  23.1778831  27.6356564  51.6455269  70.2403488   8.8998575
  50.8959541  70.4701843   8.3507214  52.1190643  71.0640945   9.0157394
  32.9686279  35.1417770  29.6654358  32.2147293  34.5652657  29.7899666
  32.9708672  35.7038765  30.4402065   2.6819935   5.0812855  21.4442997
   2.6248469   4.1257944  21.4425259   1.7921437   5.3740816  21.6409454
   4.0801630  29.5567036  70.7443237   4.5481853  29.0832176  71.4320679
   3.4299831  28.9318733  70.4232559   4.2527647  48.2524185   4.1101632
   4.1972628  47.6176033   4.8244171   5.1164074  48.6524429   4.2118273
  75.9465408  27.7378292  35.7441826  76.8248978  28.1026764  35.6364288
  75.6210861  28.1320000  36.5534668  56.3167686  54.5639610  64.3989487
  56.2757607  54.0775604  65.2223358  57.0699730  54.1932716  63.9390450
  43.8183022  22.5641918  75.3925400  43.5791168  21.7324238  74.9836502
  44.4036865  22.9820023  74.7608795  48.4226456  70.7521362  34.9994850
  48.8793297  70.8300247  34.1618690  48.5435486  71.6042862  35.4183578
  56.1082573  15.3161917  19.6364212  56.1919899  15.9791746  18.9510937
  56.6028976  15.6713409  20.3749542  35.5153961  66.8557358   5.2645235
  36.4076500  66.6618118   5.5517597  35.6237259  67.4994888   4.5644698
   3.3711402   0.1776932  87.7762833   3.2406757   0.2988173  88.7167816
   4.1564312  -0.3657642  87.7114410   3.3796060  31.7331581  51.9188690
   3.1335886  31.1531124  52.6394615   3.6802263  31.1427040  51.2280579
  -0.2907169  26.5314255  36.4418449   0.3264706  26.1258163  35.8329163
   0.2632091  26.9590302  37.0949554  44.8177071  71.3168869  86.2093048
  44.4272041  70.4436417  86.1748734  45.1738396  71.4547729  85.3315887
  46.5061569  50.3809433   2.4617355  47.1941338  50.9116898   2.8632638
  45.7160072  50.5993767   2.9558830  76.5793381  61.7955856  28.6149712
  77.4706268  61.5257530  28.8364067  76.0779419  60.9802856  28.6042995
  52.7887154  71.7111969  50.3344231  53.0198059  70.7845535  50.2699585
  53.4108543  72.0697250  50.9673843  56.9267273  49.5549049  48.1171875
  57.6910706  49.8395729  48.6181641  56.4465981  48.9836769  48.7166862
  50.3989792  51.9222603  66.2749939  50.6321526  51.2934608  65.5920105
  51.1750336  51.9680557  66.8334503  56.1602364   0.9621359  19.6578999
  55.8968582   0.8485794  18.7446804  57.1121483   1.0562538  19.6227036
  10.7331676  53.7156296  43.0805511  10.6918697  54.6248741  42.7842445
  10.9990158  53.2226105  42.3043480  76.1239853  11.2088547  38.9132843
  76.2490768  10.5169945  38.2637329  75.1752014  11.3277044  38.9569283
  61.7552109  43.2996101  62.2913628  61.3575211  42.5180473  61.9076500
  61.4049454  43.3341560  63.1815071  42.7456474  65.3818130  28.4255428
  42.1108322  65.8781433  27.9089203  42.2525330  65.0855103  29.1905785
  62.8299141  11.8284435  33.0669708  63.2653236  11.0906811  32.6399384
  63.1550865  12.5998039  32.6027565  11.0341654  21.1540318  65.1369171
  10.8366385  21.9503231  65.6299973  10.3927326  21.1469402  64.4264603
  79.4942017  41.9971809  54.2485771  79.1612930  41.4168663  53.5640068
  80.2442856  41.5291862  54.6154327  68.7687988  54.4921761  58.9717865
  68.4023285  54.4887314  58.0875206  69.1192627  53.6092224  59.0892487
  33.0144196  68.2473526  11.6373167  32.2113762  68.1658554  12.1518164
  33.3112411  67.3459702  11.5122232  22.1072216  28.8745995  81.4382095
  22.5908051  28.0510330  81.5023651  21.3333855  28.6580734  80.9180908
  62.5404625   4.2144980   5.0082870  61.5847473   4.2045121   5.0605936
  62.7661362   3.3836226   4.5900168  14.3127947   6.1280556  82.7217560
  13.9872971   5.9024930  81.8503113  15.2000256   6.4533162  82.5692520
  23.2881050   3.1224899  27.7953548  23.0322342   2.6172755  28.5670547
  23.1452103   2.5260808  27.0604343  52.4585075  11.9563446   6.5652056
  53.4143639  11.9601269   6.5146828  52.2421684  12.7411528   7.0686989
  40.7170219  42.0235176  31.4926796  39.8590240  42.1569633  31.8955002
  41.0887299  42.9029160  31.4239464  72.5323334  28.2941761  31.3825989
  73.2961121  27.8153954  31.0606556  72.6884003  28.3902435  32.3220901
  83.7886887   8.5962172  64.9019089  83.7227554   8.3990488  65.8362579
  84.5584488   8.1090374  64.6080475  82.0639954  48.7105522   2.9664836
  81.8962326  49.5776329   2.5973527  81.9308243  48.1086426   2.2342243
  11.9027939  61.2909660  10.0798826  11.3224068  61.4000244   9.3265638
  11.6005917  60.4859962  10.5005121  42.5901375   8.3968983   9.1291599
  42.3481827   8.9144478   9.8971653  43.2080574   8.9507790   8.6520643
  32.9578857  17.6582088  83.2331085  32.2043266  18.0901241  82.8308258
  33.6549988  18.3133469  83.2005615  81.8945160  41.3211250  55.3479424
  82.0237732  41.6054344  54.4431229  82.3683167  41.9670067  55.8719482
  42.1300926  63.7120094  83.6323624  41.9453430  63.7224426  82.6932220
  43.0652161  63.9066734  83.6946869  72.3880386   5.5831456   1.2279391
  71.6449814   5.4068580   0.6508548  72.9055710   4.7782555   1.2047119
  52.7011795  66.8490677  84.6017380  53.4912643  66.4946518  85.0096436
  52.9654579  67.7091141  84.2750702  17.8163033  57.0343399  12.7316799
  18.3072815  56.2343178  12.5442400  16.9403763  56.7282562  12.9668274
  64.3219376  56.1401291  57.6715851  63.9331360  55.2785683  57.8225136
  64.9754257  56.2327690  58.3648376  16.8315220  49.2604713  55.2316742
  17.5137348  48.6822281  54.8904190  16.5944633  48.8785362  56.0767517
   0.3207582  67.9680481  70.2990570   0.8685454  67.1876068  70.2149582
   0.1872970  68.2651291  69.3989716  80.9287567  15.7020073  22.8921223
  80.4697952  14.8665915  22.9796696  81.6256561  15.6622047  23.5470848
   0.2068885  31.1182194  30.4001923   0.1106674  31.5479965  31.2500534
  -0.2377076  30.2770958  30.5054512  56.1825409  65.0382233  72.7319260
  56.0620766  64.2633362  73.2808075  57.0604515  65.3516312  72.9493637
  48.6236877  28.4997139  46.0038834  49.2186165  29.2402496  46.1217613
  49.0238266  27.9795837  45.3070450  86.3913040  24.9174099  84.5029221
  85.9489975  24.5558739  85.2709656  86.5035324  25.8460236  84.7061768
  71.3099442  54.6663666  55.7181053  71.7090073  55.1388397  56.4486885
  72.0485764  54.4139481  55.1640816  66.9790955  52.2999573  50.4706535
  67.4834442  51.5028267  50.3080101  66.8322449  52.3016586  51.4165192
  27.6150188  64.1100540  18.4544888  27.3258724  63.5422859  19.1688156
  28.4987583  64.3791428  18.7051449  62.3881569  23.5443306  13.3715229
  62.8653908  24.1743374  12.8315487  62.5247955  22.7032242  12.9355164
  51.6155281  22.7615433   4.6108999  51.5981979  23.5857735   5.0972910
  51.7967529  22.0957298   5.2742848   8.7673388  70.9802704   2.3766263
   8.2385645  70.3771896   1.8542095   8.1618681  71.6806259   2.6198144
  60.9939308  46.7542000  55.2812958  61.7867699  46.2201729  55.2317734
  60.5115776  46.5414734  54.4823456  52.5817604  69.2698441  40.7953758
  51.7724533  68.9543457  40.3932381  53.1263962  68.4875946  40.8831024
  84.1822968   8.4229136   2.3297684  83.5822525   8.6105223   3.0515568
  83.6502533   8.5317783   1.5415369  54.9757118  51.4929390   3.0086985
  55.4611549  52.1202126   3.5445206  55.2679977  51.6657333   2.1137438
  74.9212494  55.0080833  78.5585938  75.4842834  55.3161278  77.8484268
  75.4775162  55.0413246  79.3368607  57.9122047  23.9612942  59.1687660
  58.4048958  23.6240349  58.4206085  58.0469513  24.9084282  59.1369781
  70.1649780  40.7324409   5.8873787  69.5326996  41.1228905   6.4907093
  70.5736923  41.4803505   5.4517021  11.1707087  10.1615019  87.5164185
  11.3426437   9.2461481  87.7373276  11.6406231  10.3018494  86.6944046
  69.6999588  10.0879087  38.8088951  69.9518280  10.8020687  38.2234306
  69.7223129  10.4760628  39.6835785  71.0816498  39.1804771  61.9612961
  70.2755127  39.4033661  61.4957886  71.7682800  39.2500153  61.2980194
  49.6429672  66.0640717  35.4394684  48.7907257  65.7201691  35.1717949
  49.9250336  65.4823151  36.1453247  78.3094635  37.8831940  59.7117844
  78.1351013  38.4672890  60.4497948  78.4271927  38.4698486  58.9646492
  62.3776131  56.2771187  85.8279190  61.6876564  56.4402122  85.1848145
  62.1107330  56.7790680  86.5980225  43.5778122  45.5256310   8.6963215
  42.6274261  45.5270119   8.5823164  43.7054214  45.5688629   9.6439915
  41.1107292  52.5367661  60.8418999  40.8833427  52.9520073  61.6738281
  41.5986748  53.2079048  60.3647079  79.1342392  69.4276276   6.5975790
  79.2983551  69.1313095   5.7023172  78.8991470  68.6314468   7.0740876
  65.7207947   9.2068520  87.9004517  65.0470886   8.6808100  87.4696121
  66.4942932   8.6430941  87.9113846  70.9330063  68.6139221  11.6943283
  70.7843552  68.7916183  10.7655888  70.9154434  69.4764557  12.1090202
  32.6584244   1.9107735  17.8151798  31.7158337   2.0262113  17.6950760
  32.8348732   1.0277666  17.4905319  54.0736618   1.0388414   7.5181360
  54.9988899   1.0877461   7.2777348  53.9193954   1.8273154   8.0384645
  43.2918434  63.8355522  73.0157394  43.8327751  64.3819427  73.5858994
  42.7184105  64.4548492  72.5642014   9.1746798  57.1372070  79.4680786
   8.8855963  56.4602928  78.8561554   9.7883453  57.6705132  78.9628754
  58.2326927  50.3296471  28.1440525  58.7049217  49.8251076  27.4817314
  57.3352280  49.9994965  28.1018162  21.1273270  47.8265953  86.1377869
  20.7811661  46.9871750  85.8348312  20.3540020  48.3809433  86.2421722
  55.2793922  53.8230209  71.8374786  55.0779839  54.5283546  72.4524307
  55.5798874  53.1017418  72.3903656  36.7806587  36.9595871   3.3304169
  37.4721031  36.9087868   3.9903836  36.2730179  36.1574173   3.4531419
   6.2135839  50.0615425  15.3297129   5.9370909  49.8885155  14.4297981
   5.7927060  50.8914146  15.5542250  86.2071304   5.9355941  78.6376266
  85.8501205   6.1766949  79.4924011  85.4912186   5.4745274  78.2004547
  56.7611618  60.3471794   6.1211929  57.3119583  61.1233788   6.0193930
  55.9128380  60.6905746   6.4016614  61.5253448  22.4849091  77.8162613
  61.3894958  22.6770554  78.7440796  61.9484367  23.2699661  77.4685287
  37.5487442  39.7853432  32.1299095  37.2177963  39.1103897  32.7224846
  37.5098000  40.5933495  32.6416130  86.0918045  41.5805473   8.2859793
  85.7207031  40.7111969   8.1351519  85.3740997  42.1839943   8.0936832
  50.8166046   6.3890643  64.7543106  51.1100349   5.4890051  64.8958206
  51.1154976   6.8632178  65.5302505  47.2995911  55.9748840  16.7786331
  47.8455849  56.0146065  15.9934282  46.9804764  56.8699188  16.8939934
  28.3451176  67.7551270  86.4241180  28.3494244  66.9104004  85.9739380
  27.6944866  67.6530304  87.1187286  38.6991386  66.8083649  69.9599457
  38.1264381  67.0694427  70.6811142  38.1033287  66.6392136  69.2301254
  33.8254318  10.2962933  72.9150620  33.1472702   9.6734028  73.1764755
  33.7527809  10.3433876  71.9617920  53.6889381  63.2319069  69.3317795
  53.5554237  63.5277596  68.4312897  54.3332977  62.5277710  69.2594986
  64.3216324  69.6758118  71.8029633  65.0372238  69.1157303  72.1037369
  63.9189186  69.1856689  71.0861511   2.4919784  11.4369183  72.7012253
   1.6598532  11.9005547  72.6072006   2.2422392  10.5346966  72.9008713
   7.2956481  10.8989792   1.7011791   6.3434787  10.9111490   1.7984266
   7.4963970  10.0059891   1.4210021  50.4626541  28.5239468  87.0678711
  51.0537453  27.8147488  87.3206253  49.8746376  28.6239357  87.8165207
  57.4339294  55.1986427  86.0393753  56.6186066  55.6818733  85.9053192
  58.0125160  55.5069427  85.3419342  10.3968115  68.9054947   3.0589514
  10.1684170  69.8305283   2.9674156   9.5882931  68.4374084   2.8505683
  79.6139679  33.1448822  66.6243362  78.9717331  33.7171173  67.0442276
  79.5765839  33.3821831  65.6977692   8.8935022  59.4524612  49.7999382
   8.1261616  59.2907867  49.2510452   9.2406912  58.5807190  49.9890251
  32.1524048  37.2932701  26.0463963  33.0394325  36.9346504  26.0179901
  32.2783928  38.2415619  26.0795574  73.7039337  36.2701302  51.0363617
  74.3106155  37.0029716  50.9309502  74.2570267  35.5390129  51.3116684
  32.1782684  51.3286057  88.9841003  32.5393410  51.0324173  88.1485596
  32.5071983  50.6976013  89.6243134  49.9618988  47.3418198  40.2470398
  50.8607216  47.6672249  40.2966309  50.0531006  46.4248238  39.9881248
  62.6125221  33.1859894  19.3471775  62.7496529  33.3511353  20.2799969
  62.9555359  32.3033829  19.2072372  50.1057053   5.3026090  16.6580925
  50.9595490   5.5627851  17.0037689  50.2810936   5.0503120  15.7515497
  65.9134750  43.8106384  19.9244022  65.6638870  42.8902893  20.0074596
  66.2240906  44.0541992  20.7964287  75.7813721  66.2490692  40.6982422
  75.2227402  66.3646317  39.9296074  76.5954361  66.6991730  40.4725304
  74.9748917  17.3515244  60.1287956  74.8485107  18.2925053  60.0070801
  74.6652679  17.1813717  61.0184097   0.2906004   3.3298440  68.4797745
   0.5427283   2.6566875  69.1118546   1.0773879   3.8643334  68.3724518
  45.7628708   4.7076664  32.2498245  45.4703636   3.8266828  32.0162888
  45.2556000   4.9293246  33.0307045  84.6785812  54.8369408  34.3358307
  84.4903488  54.5219688  33.4517517  84.9983521  54.0646324  34.8022194
  72.7567673  20.0242062  37.6763000  73.4087219  19.7377090  37.0366821
  72.7872849  20.9801388  37.6376572  80.0545654  11.8352661  84.9048386
  80.0742569  11.3408337  84.0854568  80.5534897  12.6302443  84.7169189
  79.6857605  24.1062832  75.2139511  80.3487778  23.4237804  75.3179779
  80.0582428  24.7054501  74.5670471  53.8830032  13.8520813  21.1857605
  54.7884712  13.7680597  21.4845886  53.9316978  14.4485855  20.4387360
  82.1956635  26.3889675  15.8859091  82.6925125  25.7384644  15.3897057
  82.7949066  27.1298370  15.9767160  80.0918198  25.2042370  80.4250565
  79.5692444  25.9136124  80.7991333  80.3805847  25.5410461  79.5768814
   1.5274730  33.6054916  75.0129242   2.4174800  33.4427185  75.3253784
   1.3774872  34.5341034  75.1901703  31.8573341  32.6916046  67.9296570
  31.5417004  33.3870888  67.3526764  31.8473816  33.0823288  68.8034210
  57.2324448  40.4013062  63.2798119  56.7191048  39.7256927  63.7228203
  57.1592751  41.1684952  63.8475266  27.6082668  11.9227982  17.0907879
  27.1937122  12.4426031  16.4021797  28.3667412  12.4415989  17.3587303
  10.0819530  44.2098465  85.6247787   9.5560198  44.7304688  85.0176773
  10.1648808  44.7608490  86.4030838  83.6981735   7.9829798  85.2996750
  82.9284286   8.3684864  85.7181473  83.6667938   7.0584908  85.5457840
  35.6222115  40.9792366  69.1737213  35.2046051  41.3037338  69.9715576
  36.5332336  40.8272324  69.4250488  48.0034180  22.0202446  11.7423830
  47.1488686  22.4312363  11.6117525  48.5378571  22.3430386  11.0168419
  16.6316986  37.7342606  61.2545509  17.1860027  38.5145988  61.2477112
  15.8575764  37.9859352  60.7509384  59.5113564  16.8656864  47.7362785
  59.1620102  16.3828869  46.9872169  60.0157356  17.5799065  47.3467636
  17.8972931  31.4960785  87.1269608  17.2207508  30.8271027  87.0221100
  18.5731888  31.0723324  87.6559525  51.6367531  10.1603003  58.4299431
  51.9806480   9.2834148  58.2595329  51.7260513  10.2728586  59.3762970
   4.0011492  63.3129807  85.1199646   4.2050691  62.5301971  84.6082077
   3.0456781  63.3679695  85.1031189  70.1018829  32.4401779  32.2646980
  69.3555069  33.0285530  32.1508369  70.6202316  32.5539093  31.4680710
  32.8567657  64.8768311  62.2796822  33.5321007  64.9914246  61.6110840
  33.1540413  64.1264343  62.7942352  74.9370193   4.1612029  79.8235092
  74.2335052   4.7381787  80.1208420  74.9784393   3.4724736  80.4869614
  38.6624069  47.4869041   5.0427499  38.9506073  48.3954239   5.1308665
  39.1888390  47.0056534   5.6811070  22.0810928  71.1683731  84.0074997
  21.6821556  71.2275848  83.1394119  22.2484646  72.0772934  84.2566757
  25.5535088  54.5035896  16.5629311  24.6100159  54.3513489  16.6165524
  25.9085274  53.6862488  16.2134399  42.2826767  56.4068375  66.7055511
  42.5352516  56.8435707  65.8921051  42.3688011  55.4731941  66.5128632
   8.7175436  28.6380253  57.8298836   9.1993952  28.2681847  58.5696602
   8.0683784  27.9701920  57.6089363  12.7030392  65.1801529  25.4615726
  13.0115957  64.3974915  25.9181557  12.5849533  65.8304443  26.1539650
  60.9292603  26.5220566  59.6921692  61.3192520  26.2139797  58.8741074
  60.0771294  26.8733368  59.4338913  63.9590492  61.1939850  23.1406574
  64.7566757  61.4789391  23.5865555  63.8020897  61.8662949  22.4776344
  46.0570030  36.9642906  24.8673134  46.0322304  36.0327454  24.6485825
  46.0751419  36.9852562  25.8241119  43.6077728  44.6508522  77.1939697
  43.4871979  45.5672455  76.9451370  42.7234116  44.2846069  77.1950531
  29.8093758  17.2539577  86.5107574  29.5056534  16.3922520  86.7961502
  30.6938629  17.0985336  86.1794586  53.6070366  14.8622713  58.4035606
  54.4099655  14.6530647  57.9263077  53.0041771  14.1529932  58.1805992
  68.5995178  20.7330418  11.7800694  68.0910797  21.2818642  11.1829805
  69.5091858  20.9847965  11.6208286  34.2517662  69.2406845  81.4579544
  34.6202812  69.2855835  82.3402328  33.3042526  69.2422638  81.5937881
  20.1065979  57.7895088  73.5574341  19.9232311  56.9444885  73.1468887
  20.1138000  57.6031265  74.4962845  59.4932442  67.9757690  74.2282181
  59.8747215  67.9275284  75.1047974  59.4550514  67.0659637  73.9332275
  85.8418808  13.3081770  66.3359299  86.1330490  14.1363497  66.7174835
  85.7261505  13.5007181  65.4054642  31.3037663  38.8132744  78.2977676
  31.0720978  39.7330704  78.1691742  30.6283379  38.3276978  77.8242264
  61.5315857   6.0178308  53.3325157  62.3644180   6.0449834  53.8035583
  60.9380836   5.5525045  53.9219742  26.3014278  54.4032288  68.7209167
  25.4624615  54.1706047  68.3231125  26.0653515  54.8493042  69.5342560
   2.0134883  55.8398972  24.9773235   2.5959649  56.2256241  24.3229790
   2.2907302  54.9255753  25.0355015  40.1632881   9.9813204  10.5911636
  40.7152977  10.7215014  10.8434496  40.3005028   9.3336277  11.2824669
  48.3059120  66.2286835  40.9604034  48.3836212  66.2630997  40.0069847
  48.1489944  65.3046417  41.1547203  11.2501554  23.8106804  21.6725845
  12.0828257  24.2696209  21.7833385  10.5963287  24.4108906  22.0310383
  70.0020905  42.9370651  74.5159073  69.6598053  42.3048248  75.1478424
  69.6950073  43.7854424  74.8355713  44.0847244  17.5735302  78.0801620
  43.1833229  17.2866726  78.2265091  44.3977547  17.0229607  77.3624496
  61.9020004   7.9331517  67.2007065  61.6125374   8.7206373  67.6614761
  62.8390083   8.0688448  67.0598679  54.2194366  35.2812767  18.3963127
  54.7821846  34.8919296  19.0656071  53.4008789  35.4734001  18.8537865
  13.7041073  43.7475815  79.0496216  14.1716385  44.0121498  78.2573776
  12.9293718  43.2866173  78.7278671  67.2892609  25.2329826  10.3559408
  67.4798660  24.3255424  10.5935431  66.8037491  25.1683159   9.5335493
  53.8495903  31.9713993  83.7773590  53.7445793  31.5873356  84.6478195
  54.5723839  32.5913429  83.8747101  14.8297443  19.4785938  68.2765045
  14.0316887  19.0762138  67.9338226  15.2619066  18.7767429  68.7631989
  63.9273224  67.0071030  65.8460083  63.3651161  66.3556442  66.2652359
  63.4270439  67.8217468  65.8941422  80.6799469  58.3842163  31.7177658
  79.7844315  58.6186905  31.4742565  81.2013855  59.1508484  31.4798355
  15.3111248  54.9320641   3.2365808  14.4288626  54.7353859   2.9216809
  15.4247503  55.8664513   3.0626819  26.1471500   6.1561627  68.8421249
  26.5706940   5.5178514  69.4160614  26.0621567   6.9430218  69.3805084
  35.9201469  52.7205467  73.6779861  36.0358849  51.7740059  73.5949097
  34.9712563  52.8452225  73.6951523  68.8351593  41.2952538  76.2423553
  69.2768021  41.2952881  77.0915833  67.9049835  41.2224197  76.4561310
  46.0606537  12.8697729  71.4608154  45.8955917  12.1815109  72.1052399
  46.0120850  12.4231405  70.6156006  84.0436859  15.9798756  54.6339798
  83.7450333  16.6339703  54.0021553  83.5691223  15.1832561  54.3964577
  49.1589317  44.7170868  39.6165810  50.0016899  44.2632370  39.6135597
  48.5992622  44.1867523  39.0493507  60.9240456  27.9010944  79.8234863
  61.8502426  27.8708820  80.0632324  60.4701614  28.0907860  80.6446075
  36.5932770  53.3854294  23.5439014  36.9449005  53.0329819  24.3614407
  36.9299355  54.2806091  23.5045910   9.8516874  39.1982727  68.7785034
   9.7357111  38.9121895  69.6845627   9.6081104  40.1239281  68.7865677
  54.9679604  47.6034050  25.3961239  55.5975685  47.3222580  24.7322102
  54.2069168  47.0393753  25.2585716  49.3345642   4.1500106  53.5499344
  49.3162460   4.3812065  54.4786148  49.4643097   4.9837976  53.0980568
  78.4128342   2.1760857  71.8044739  78.6924286   3.0912585  71.8272781
  77.5622025   2.1745090  72.2433929  63.2558899  71.7074966  11.1455851
  63.2642975  71.1303787  10.3819771  62.6206894  71.3086319  11.7402773
   5.8588142   9.3160191  53.6035614   5.0894294   8.8164558  53.8769035
   6.2638268   8.7786789  52.9227791  77.6626816  54.9655876  69.9828033
  77.5226364  54.0269890  69.8577042  78.0770569  55.0333672  70.8429947
  76.5519333  28.8899288  72.1196671  75.6863022  28.6934967  71.7614288
  77.1500244  28.3356762  71.6183472  16.2911396   4.3766980  80.7094727
  16.4454403   5.3201613  80.7574387  15.3638840   4.2967219  80.4857941
  76.3659058  25.2577915  19.9061356  76.6291504  24.8660641  20.7388935
  75.5100861  25.6475468  20.0847073  80.6383820  71.2121277  88.5894623
  81.4883728  71.6512604  88.5593491  80.1315155  71.6231537  87.8891907
  24.0804100  42.2270279  20.7547150  23.4835758  42.1926117  21.5022697
  24.8203506  42.7502403  21.0628796   9.8757639  53.7387962  15.2229872
   9.4904661  52.9210129  15.5376444  10.4263353  54.0381317  15.9465199
  67.1881638   8.9646263  22.8643970  67.6296463   9.5340195  23.4945698
  67.8841171   8.6755533  22.2742157  31.9247532  27.3525581   9.0859213
  31.7216568  26.8050022   9.8443184  31.8824081  28.2488022   9.4193659
  33.9532967  48.4437218   0.6904689  33.0185432  48.4072342   0.8933032
  34.2740936  47.5620117   0.8799724  30.1761932  70.3460541  57.3400345
  29.7314968  70.5667343  56.5216370  30.7542400  69.6186295  57.1099205
  15.3344355  25.1313095  10.5317879  15.9646540  24.4329681  10.7089157
  14.4823170  24.7387505  10.7215862  28.0584621  45.9298515  88.0367966
  28.4959221  46.5883141  88.5765152  27.7394104  45.2802010  88.6632080
  40.5483284  48.5759735  60.4991913  39.7510414  49.0797043  60.6629562
  40.4809380  48.3125534  59.5814209   2.6157086  69.8716125  30.5620270
   3.3747480  70.1531754  31.0727253   2.4373436  68.9824905  30.8684177
  73.8749008  37.8195076   6.2343054  73.3033218  37.5896492   6.9668970
  73.5090714  37.3458176   5.4873033  17.9573784  65.0458527  41.7503891
  18.8157406  65.4359741  41.9154701  18.1516476  64.2111740  41.3239975
  80.7554398   3.2533774   5.0787382  80.0796967   3.7182879   5.5721483
  80.5478134   2.3271899   5.2024250  64.8090668  32.8038979  36.7817802
  64.5311661  31.8987522  36.9221878  64.7927475  32.9147301  35.8311577
  60.4202423   2.3470683  59.0999908  60.0763206   3.0595503  58.5611801
  59.6422386   1.9275173  59.4673004  15.3947811  63.0996590  87.0678787
  15.4539309  64.0482483  87.1814880  14.6769161  62.8339081  87.6425781
  44.5886612  68.0326996  57.0611801  44.8144302  68.1952133  56.1452942
  44.0346146  67.2525406  57.0364876  58.2062073   0.3630488   1.0108008
  58.8056526  -0.1958659   0.5163198  57.3517113  -0.0572089   0.9135785
  47.5041962  62.2842331  64.5785294  46.9962883  61.8357048  63.9024506
  47.7893715  61.5853004  65.1670837  55.0926247  67.2172775  51.1981392
  55.2900696  67.0047836  50.2859459  54.9918022  66.3668518  51.6257477
  67.3041382  12.9265404  67.7693100  68.2493744  12.7756519  67.7674332
  66.9278870  12.0924253  67.4883881  78.9453812  62.1608505   0.7582888
  78.8419418  61.8181648   1.6460381  78.8794556  63.1104584   0.8589199
  51.2565269  27.8122501  78.2650757  51.7683983  28.0005188  79.0516968
  51.0205612  28.6737347  77.9209900  45.9061279  46.0085030  50.2534637
  45.0164757  46.1148682  50.5902634  45.9078484  46.4889526  49.4255791
  86.7230530   6.7537570   1.5350435  85.8649902   7.1731539   1.4712946
  86.8201065   6.5469751   2.4645882  72.2259598  36.4969406  42.6144753
  73.0716248  36.0485115  42.6137619  71.6664886  35.9522438  43.1681290
  34.0735321  29.7126331  15.0091267  33.3107147  29.7605152  15.5853634
  34.6209297  29.0275345  15.3928318  23.5328922  55.6463623  51.3493080
  22.8226185  55.0707474  51.6328697  23.2769394  56.5142708  51.6614876
  49.8369331  57.9368172  60.9721718  50.1905098  57.7058945  60.1131668
  48.8950500  57.7863731  60.8918152  38.2864723  41.8671112  70.2522583
  38.0361023  41.5892677  71.1333694  38.9693146  41.2491837  69.9912415
  30.4127159   6.5912619  82.4202881  30.9439754   6.9334111  81.7013092
  30.3222923   5.6579084  82.2281723   0.5721174  45.0313644  65.6707611
   0.2439815  45.7925301  66.1494904  -0.1921588  44.4639015  65.5702591
  63.6123085  64.3829880  37.7795143  62.9382019  64.8908234  37.3279419
  63.9403076  63.7765236  37.1155510  81.7344208  21.3870544  66.2393265
  81.9479523  21.8071136  65.4061508  81.0608215  20.7441063  66.0177078
  76.1629105  51.2684364  39.4173508  76.6775055  50.7755203  38.7782478
  76.1860657  50.7310905  40.2091560  60.3107872  53.9671402  19.6033726
  59.6647530  53.7338982  18.9366875  59.7925873  54.3251953  20.3241348
  15.9212847   6.8304029  77.7922058  15.8054266   5.8803945  77.8093338
  15.0361395   7.1776886  77.6820145  64.3078003  62.8134995  11.8227654
  64.0845413  63.1012497  12.7079706  63.7234344  62.0737534  11.6568556
  51.6334915  14.0488539  41.6467323  51.0518837  13.6446629  41.0028458
  51.1987419  13.9031296  42.4869652  27.7237167   5.6005135  79.9879913
  27.4155235   5.9347987  79.1456757  27.1908436   4.8211813  80.1458588
  45.6785507  30.9840183  86.2103500  45.9384422  31.8954659  86.0763626
  44.9718857  31.0286694  86.8544464  15.0724030  46.9616241  31.0504932
  15.2709837  47.0266495  31.9846077  14.8127604  46.0490646  30.9237843
   1.2628738  57.6506310  86.3036728   1.2349180  57.7849808  85.3563614
   1.9565939  58.2356567  86.6081848  18.8129902  67.5343246  87.3431625
  19.6702900  67.9003754  87.5605850  18.3734245  68.2288666  86.8526230
  80.3562622  37.9518738  65.8358688  81.2949371  37.7644539  65.8371582
  79.9915695  37.3441391  65.1925278  30.1707325  24.6745300   7.2501249
  31.1162872  24.6608887   7.1018944  30.0639153  24.3521652   8.1450567
  26.0248470  67.5564194  77.3696213  26.7017517  66.8838043  77.2946167
  25.3900299  67.3343506  76.6884995  14.7675915  51.0640450  42.1687050
  15.0190506  50.1417160  42.2168083  14.3410416  51.2400589  43.0073357
   5.3759236  35.0032730  71.9249344   4.5241442  35.4360428  71.8665085
   5.8051500  35.2061157  71.0937576   2.4721127  13.9209538   5.0828857
   2.9811883  13.9078636   4.2723904   2.4539907  13.0077314   5.3691177
  67.2739334  25.7342052   6.3042145  66.7864685  26.5568447   6.2609291
  67.7101440  25.6692963   5.4546628  70.1983109  66.7696915  80.3313446
  70.1627197  65.8229980  80.1944427  70.1990356  67.1395035  79.4484711
  32.3964043  71.2344894  34.3959961  31.8099937  70.5798950  34.7752914
  31.9642086  72.0711899  34.5673523   0.7098461  68.1489487  52.5028000
   0.3842609  68.7017059  51.7923851   0.9346663  67.3210144  52.0782814
  57.9555969  69.8493195  69.1296616  57.2769699  70.4100494  68.7537918
  57.8435478  69.0080795  68.6869431  31.7502213  57.3024826  35.6402054
  31.0479755  56.7258606  35.3392296  31.3442249  58.1678047  35.6913910
  39.2811699  71.2753677  43.1568832  38.7775269  71.4767838  42.3682060
  38.7183266  70.6833191  43.6558037  84.5517807  39.6915855   3.1476204
  84.5997925  40.4866028   2.6167021  85.3589249  39.6980553   3.6621222
  78.7629547  47.7031670  35.5133171  78.3447571  48.3929024  34.9979439
  79.4402695  48.1565094  36.0152664  40.4732132  53.9194679  73.0728531
  39.9932289  53.5258942  72.3441925  39.9970131  54.7273102  73.2648239
   0.9613425  67.5059967  23.0327816   1.5536282  67.3171844  22.3049202
   0.6310351  66.6486816  23.3013668  60.8078918  69.7427902  44.8620834
  61.4293060  69.1031113  44.5143929  61.3058891  70.2269669  45.5207176
   2.3660614  30.8541317  33.7270966   1.6844825  31.5018482  33.5478096
   3.0922806  31.3638077  34.0863571  76.4670486  10.3617630  74.0107803
  76.5268097   9.4110813  73.9166260  76.8525009  10.5422382  74.8681488
  40.3548965  68.1943130   0.9099232  39.4906311  68.5973129   0.9928334
  40.1976395  67.2600632   1.0465527  17.9087143  41.0373535  42.4639854
  17.8036804  41.6247292  41.7155304  18.4031372  40.2944031  42.1178551
  42.1407127  39.1282082  82.9350357  41.4768372  39.3072968  83.6009445
  42.9496994  39.0026779  83.4310303  50.2166824  47.5137138  36.2918320
  49.5038757  47.1262169  35.7839050  50.5053978  46.8109970  36.8741264
  54.5277901  13.0493956  16.2354240  53.9337921  13.7246656  16.5631599
  55.1035423  12.8571329  16.9755421  47.2109909  59.0477638  81.2274170
  47.3436852  59.2105560  80.2935410  47.6451035  58.2100220  81.3885574
  63.3348160  43.4545784  13.3353519  64.2429123  43.5142136  13.6320667
  63.1649055  42.5147400  13.2716036  40.6993408  47.6847763  20.3254910
  40.5890656  48.5847664  20.0187511  40.0589638  47.5919800  21.0308533
  62.9255981  20.2428589  37.2833672  63.5724487  20.4014454  36.5958595
  63.4448166  19.9930401  38.0477180  79.2816849  46.3911552  54.8166199
  79.9880142  46.3234711  55.4590759  78.5810089  45.8447037  55.1725349
  17.9319572  59.6464005  27.3105659  17.2416039  59.3187752  26.7341061
  18.7461700  59.4299507  26.8562088  52.2012558  37.4706116  43.2699394
  52.9680099  37.3794289  43.8356323  52.4351768  36.9975700  42.4713516
  53.2985001   2.9219396  17.2556572  54.0787125   2.7907619  16.7168655
  53.3899269   2.2888057  17.9677067  18.6129398   5.1982827  17.5779247
  17.7555656   5.3309574  17.1735249  18.9729309   4.4325438  17.1303959
  66.9090652  33.8195229  76.6692123  66.8171158  33.5113411  77.5707703
  66.0536804  34.1918793  76.4549561  40.1265945   1.2965419  84.1675186
  39.2048035   1.2790526  84.4248657  40.2117424   2.0876510  83.6354218
  50.2021523  32.1366844  17.3049278  49.4699783  31.9188576  16.7281227
  50.4453163  31.3034344  17.7084064  35.6787910  49.1263351  19.6357384
  35.3700409  48.7751961  18.8005104  36.4470139  49.6492767  19.4063950
  63.7984123  40.6777382  75.4326401  63.7040825  41.2380753  74.6623459
  64.1047897  39.8406639  75.0838318  79.0825577  58.1593018  16.8726616
  78.2307739  57.9800835  17.2708817  78.8751602  58.6282578  16.0643921
  84.1314316  24.3597069  77.7096558  83.3209686  24.0274258  78.0956268
  84.8011322  23.7322445  77.9817276  85.2701035  15.7813673  11.0209703
  84.9609451  15.0090303  10.5475273  86.2084808  15.6318254  11.1364021
  67.8252029  47.9266624  12.9690800  67.3011780  48.6776009  13.2478685
  68.0473709  48.1149216  12.0572519  40.8448677   4.1893010  55.9122925
  41.7841034   4.1239734  56.0849113  40.7731819   4.1482258  54.9586639
  77.4012375   9.8938484   6.9260850  77.3276291   9.0118408   6.5615616
  78.3341980  10.0998974   6.8680758  21.6485806  55.1124611  48.5743752
  20.7442532  54.8561745  48.3934326  22.1773319  54.5132980  48.0474434
   8.6964016  55.7400856  32.7631111   7.8906503  55.3109436  32.4753075
   9.3607941  55.4442215  32.1407967  36.8249245  64.2409286   7.1674981
  36.7461281  64.7414093   7.9796224  36.2026176  64.6550522   6.5696149
  26.1159668  67.3033524  63.1120758  26.1537704  66.8514557  62.2691116
  26.7027798  68.0524902  63.0087624  51.0317001  59.6199265  56.3994408
  50.6552162  59.7097054  57.2748985  50.3153801  59.8464012  55.8062897
  82.8559036  37.1745148  66.5405273  82.7205658  36.2524948  66.3218994
  82.7585297  37.2118378  67.4920273  70.0361481  29.9802036  74.2723160
  70.2221603  29.2544098  73.6766205  70.5943069  30.6934319  73.9624786
  25.0885696  25.6441727  71.0575409  24.3349438  25.9509659  71.5616837
  24.7098083  25.2848148  70.2552719  24.2229080  61.6229858  87.7221832
  24.3987293  61.1690941  86.8979874  23.3843346  62.0619888  87.5796967
  61.2261810  32.1022186  15.8155375  60.4552498  32.5395851  15.4541445
  60.8704071  31.4463234  16.4150848  74.0999527  22.8481922  28.8082714
  74.0050507  22.7852898  27.8578682  73.2807007  22.4945736  29.1547070
  37.7657433  61.5550995  89.2218323  37.9838982  61.6131363  88.2916336
  38.4514656  62.0586395  89.6605377  64.0957718  19.2659206  85.4474716
  64.2194138  19.5846138  84.5533905  63.6383591  18.4315739  85.3432312
  67.1659241  58.3183250  64.0886917  67.8208923  58.9047775  63.7101212
  67.1285934  58.5655403  65.0126648  30.1669350   3.0835412  20.2714539
  29.6229725   2.3507352  19.9827824  29.7939987   3.3411055  21.1145515
   8.0397377  47.6108551  71.1084442   8.5632610  46.8746033  70.7920685
   8.0023031  47.4880333  72.0569916  84.4695511  26.2962933  34.7305794
  85.1774673  26.4974022  35.3426590  84.9076996  26.1797657  33.8875618
  41.0322380  46.8160439  50.6912117  40.9626617  47.3202934  51.5018425
  41.2299805  45.9250107  50.9796295  45.0660896  40.3547554  23.3618813
  45.6977730  39.9069595  23.9246292  45.0697479  41.2605972  23.6711884
  60.9016800  43.4293861  53.5879822  60.4299889  42.7068634  54.0023537
  60.2859879  44.1619263  53.6111565  54.8628502  18.0123558  85.1312561
  55.0475998  17.1302967  84.8086548  54.2788391  18.3904018  84.4738007
   8.2649641  37.8165131  76.2059250   8.6254749  37.2337608  76.8742523
   8.4951048  38.6959801  76.5056000  79.9076462  62.8217583  25.9763813
  80.6141281  62.2067528  25.7791977  79.2045975  62.5802612  25.3733616
  67.8608398  70.7220688   2.9222691  67.7465973  70.4231415   3.8243895
  67.1656265  71.3673859   2.7939250  68.6495056  39.9239731  37.0513344
  68.2570953  40.7786293  37.2296753  69.4604263  39.9219360  37.5598946
  37.8957062  51.3851433  71.5004196  37.4761429  52.2450485  71.4728088
  37.2283478  50.7823792  71.1724930  79.5196228  42.8778839  62.2341309
  79.4451675  41.9819527  61.9055061  78.7524033  43.3274651  61.8798981
  46.8106155  26.4301796   6.4878802  46.9131088  27.0906448   7.1730900
  45.8779259  26.4501171   6.2735868   7.9215384  12.2462263  78.9518661
   8.1865721  13.0594759  78.5222015   8.1982756  11.5558195  78.3493805
  73.6163483  25.7728615  44.1867218  73.7426910  25.4315529  45.0720329
  73.7034225  26.7214165  44.2810249  20.4036541  36.9699593  10.9394369
  20.3739910  37.4893188  10.1359348  20.5386219  37.6130524  11.6354589
  57.2806931  27.6295567  38.0894966  57.9261398  27.1553955  38.6137085
  56.4384346  27.2607479  38.3556061  54.9106712  19.2969532  31.8198433
  55.6151276  19.1171055  32.4424400  54.4677315  20.0674381  32.1753578
  52.4216919   5.9633002  73.7553558  53.1588287   6.4382987  73.3716431
  51.7141457   6.0643077  73.1186447   5.6149063  59.9881592  37.9125061
   6.1113992  59.1749077  38.0038986   5.3810210  60.2280464  38.8091545
  44.6292915  67.0963898   6.3443470  44.6056786  67.7073441   5.6078658
  43.7582512  67.1597672   6.7361426  16.4611130  18.7272930  83.0294800
  16.6088810  18.6963558  82.0842667  17.1925831  19.2426205  83.3695145
  55.3112793  70.2376251  38.6629448  55.4862061  71.1774292  38.7118340
  55.8224716  69.8612595  39.3793678  86.1979752  26.0704021   4.9150205
  86.0129852  25.4561367   5.6254330  86.0975952  25.5511513   4.1171899
  14.8424101  66.2702255  65.2715912  15.4065752  67.0432587  65.2522354
  15.2995548  65.6543655  65.8442688  64.9500122  25.5479946  57.4885902
  64.6628342  24.7041645  57.1397209  64.7633438  26.1728840  56.7879486
  27.1031094  39.4787979  33.9455223  27.4648705  39.2830925  33.0811958
  26.7266693  38.6497841  34.2409248  42.7259369  61.5820351  24.2095165
  42.2639618  60.7467613  24.2811089  42.1790848  62.1090202  23.6268730
  85.4688873  37.5489082  44.4579964  84.5687561  37.4636459  44.7722092
  85.9525986  36.8711853  44.9301643  38.3372803  52.5363503  37.5241470
  38.6627121  51.7527008  37.0811806  39.1264420  52.9850922  37.8276062
  59.5524559  68.8688278  80.5427933  59.7564392  69.7863464  80.7238541
  60.4059792  68.4536667  80.4188156  38.9657288  38.8382835  47.5697136
  38.8075943  37.9315872  47.8326378  38.5219536  38.9238548  46.7259293
   0.5621768  20.0479317  58.8446732   1.1767068  19.8170776  58.1480446
   0.9518847  19.6821709  59.6387634  46.6502304  19.3974228  28.6546249
  47.0597420  18.7390137  28.0933514  46.6023941  18.9819145  29.5156097
  82.1931305  51.2922516  55.9371719  82.8278198  51.9682198  55.6995392
  81.5058899  51.7638321  56.4078636  57.3206444  67.1196136  20.9632626
  56.6668243  66.4206390  20.9498291  57.0881577  67.6504364  21.7251110
   0.8168001  66.4960098  48.7785721   0.5166957  67.4048920  48.7683296
   1.0130507  66.3189316  49.6985512  58.8709145   4.5887499  49.8971062
  59.1314697   3.6740029  50.0047150  58.3925591   4.7975130  50.6994972
  58.3520851  36.8547859   5.7544951  58.4235382  37.5119629   5.0622230
  57.8075981  37.2698174   6.4234595  82.4680328   5.4127021  73.3283997
  82.6288300   4.7099190  72.6987457  81.6078644   5.2117496  73.6971283
  73.4664307  19.6501350  12.4291210  73.1035995  19.2070103  11.6621609
  74.2651138  20.0689163  12.1082458  73.5183411  57.3424911  76.7555161
  74.1874619  57.9200096  77.1229172  72.7393646  57.8940353  76.6832352
  81.8725662  41.1474304  74.3744431  81.2747879  41.1321716  73.6270065
  81.8876877  42.0638695  74.6503754  12.7290173  69.1118622  82.3676910
  12.9959993  68.4968719  81.6845093  12.8652248  68.6345673  83.1861496
   3.3596189  47.4580994  41.8284264   3.4710624  48.3796082  41.5946884
   2.4294581  47.2849884  41.6832886  85.0324631  67.5705185  12.8675556
  84.9871140  67.9426651  13.7482824  85.9568176  67.6352005  12.6275091
  53.6988411  30.6606388  86.3003998  53.8083267  29.7106323  86.3420105
  52.8069115  30.8128490  86.6126862  56.3154106  46.0825462  44.3345833
  55.5681458  45.5049706  44.4902725  56.8571739  45.6084938  43.7037125
  20.3548889  13.0592937  48.4480438  20.2836628  13.0213852  49.4018364
  20.4319363  12.1444874  48.1770744  58.3144455   4.8937492  43.0411453
  57.9595528   4.8174343  43.9268417  57.5427246   4.9235740  42.4756432
  13.2199650  51.6642952   3.2006922  13.0652332  52.5349731   2.8343525
  13.8664770  51.2696381   2.6154566  39.8441086  54.5796089  67.4251862
  40.0979614  55.5025101  67.4318161  39.3115120  54.4720268  68.2132187
  11.2593307  12.2281847   1.3091978  11.4992676  13.1510906   1.2260844
  12.0793438  11.7864580   1.5298523  34.4812431  35.9567719  68.0147552
  34.7108078  35.5012093  68.8246918  34.5928726  35.2978859  67.3294525
  68.3924561  41.1573906  18.8952618  67.8925552  41.8684883  18.4944324
  68.2256699  40.4008446  18.3330765   4.9247174   2.7840731  26.1536770
   5.8652596   2.9300277  26.0521431   4.5529494   3.0172236  25.3029938
  41.1040001  33.8458061  23.5521526  42.0535088  33.7397499  23.6106224
  40.7492142  33.0816727  24.0065327  50.3499298  13.6273623  80.9531021
  49.9377708  13.6360531  80.0892258  51.0531082  14.2736769  80.8895035
  71.6287460  19.3834896  53.6343536  72.2798233  18.8344173  53.1974869
  70.7981186  18.9297314  53.4915390   1.8654846  66.1933441  87.1642761
   1.2194473  65.6012192  86.7792358   1.9135430  66.9268036  86.5511322
  30.8520756  52.7360725  20.0512142  31.1598320  52.6893654  20.9563866
  31.2088795  53.5598717  19.7191353  76.9194336   0.7018182  65.0216064
  76.1804504   0.1030625  65.1294632  76.9224854   1.2252969  65.8229752
  83.8113556  64.7347641  54.4092674  84.1164246  65.0417862  53.5555115
  83.2640991  63.9753571  54.2091599  64.3919678   5.6166210  73.4626617
  63.6284790   5.1090040  73.7377014  64.1730728   5.9201345  72.5816422
  74.0331192  52.2283440  34.8467712  74.1967087  52.5971146  35.7148018
  74.4031525  52.8698883  34.2403641  56.5433960  40.0034676  37.9228897
  56.7967720  39.9174614  38.8419304  57.2107353  39.5124664  37.4435005
  65.5533218   5.5741315  43.0979881  65.8655396   4.9684634  42.4257393
  64.8701172   6.0838380  42.6624908  40.5307503  17.4435196  72.7263870
  41.1873131  17.9730911  72.2739334  39.9003258  18.0801086  73.0633621
  33.1296730  43.3319054  67.7721100  32.5215302  44.0079155  68.0711136
  33.8053818  43.8122597  67.2936630  11.5581713  60.4534492  52.9216042
  11.3981581  61.3577766  53.1914635  11.1196375  59.9236679  53.5873756
   3.7621145  39.1359863   6.8117218   4.4775186  39.5380211   7.3044653
   3.2660000  39.8764153   6.4626231  82.5896378  47.8537064  22.7290173
  82.6163025  47.3183479  23.5220566  81.6833954  48.1571198  22.6752186
  21.3936787  62.0264969  28.8667183  21.4944668  62.8193626  29.3934441
  20.5731525  62.1573563  28.3914890  70.3560486   1.1749951  61.5005569
  70.0418243   1.2605407  60.6004601  70.2378998   0.2481363  61.7084198
  21.9185276  23.1838818  76.5413208  21.0566273  23.5428410  76.3303452
  22.3841400  23.1716957  75.7050858  84.3280563  23.8857765  27.8955765
  83.6289368  24.5007763  28.1174717  85.1093750  24.4320755  27.8099422
   8.1703825  57.2062721   5.6170764   8.3770437  57.5504761   6.4860110
   7.3812776  57.6795921   5.3534193  56.2510643   0.8123422  41.8859215
  56.2741814   1.1039869  40.9745255  55.3512726   0.5143121  42.0192795
  51.3252182  63.1037865  87.0398178  51.6317520  63.4883919  86.2186279
  50.4385262  63.4474373  87.1489563  67.2918930  40.6471176  84.6566391
  67.0368958  41.3078651  85.3005524  68.1461334  40.9395218  84.3388367
  39.9351044  49.0724869  46.5580711  40.2750473  48.2690620  46.1641464
  40.1317635  48.9838028  47.4906464  76.7278824  30.3020229  66.3393784
  76.6703568  30.6064949  67.2450409  76.3690109  29.4149208  66.3616791
  55.0106926  54.3161736  34.5875473  55.5566788  55.0688896  34.8145943
  55.4276390  53.5760803  35.0287361  72.4319229  25.6904564  16.4360332
  73.2344742  25.8879681  16.9188652  72.5996094  24.8398018  16.0304508
  81.4802475  11.4549751  13.5471268  81.0616379  11.4190664  12.6870670
  80.9123840  12.0243683  14.0663128   5.2325606  20.0933990   1.4487692
   5.3103142  20.2947445   2.3813176   6.1340528  20.0968990   1.1270064
  46.3516541  42.9766083  86.8587570  46.5695381  43.1100731  87.7812271
  45.6721306  43.6257439  86.6768112  59.5126152  68.9522552  41.7854424
  59.8517647  69.8164673  41.5523186  58.5646019  69.0733643  41.8386574
   4.2393956  43.9273109   9.1975088   3.6089828  43.3472481   9.6245232
   5.0943666  43.5698547   9.4372644  22.8370247  55.4299088  81.8685608
  23.7687302  55.2672920  81.7212067  22.7761288  56.3768501  81.9943466
  59.7630768   7.6061378  85.9035721  60.2435913   6.8775797  85.5104523
  60.2009430   7.7576637  86.7411499  73.5005264  43.0759506  43.1324997
  72.8387680  42.5595207  43.5924988  73.9108810  43.6040344  43.8173141
  57.6960411  47.6640778  51.9715004  57.3753242  48.5481071  51.7929993
  57.4467735  47.1581459  51.1981125  80.0289764  52.1568336  57.3722076
  79.2426224  52.6919518  57.2648315  79.7701035  51.4716454  57.9884338
  62.9005470  68.9171600  18.4412804  63.8266640  69.0768814  18.6230240
  62.4346504  69.4489899  19.0865192  28.0485916  65.8618622  77.9553070
  28.0431118  64.9335251  77.7220993  28.9557552  66.1368561  77.8223953
  85.0597382  19.3748322  49.4348488  85.4069672  20.0973320  48.9117241
  85.2248154  19.6344681  50.3412552  50.7678871  40.5729065  44.8399124
  51.1293640  40.2596474  45.6690292  50.5631027  41.4940147  45.0007019
  33.5495377   1.9930506  13.2492971  33.4653893   2.4295187  12.4015675
  32.8914070   2.4144514  13.8020325  35.1687050  38.6422501  25.1247807
  35.1307144  37.7588005  25.4912567  35.5823898  38.5289879  24.2690525
  42.9195786  56.8763428  20.6573868  43.8711891  56.7759743  20.6816540
  42.7814217  57.7929688  20.4187603  77.4773483  13.0520506  34.0485687
  78.3488770  13.3826513  34.2662201  77.5058365  12.9060106  33.1030045
  72.6600800  59.8484383  44.0817299  73.1329727  60.4431915  43.4995995
  72.2066650  60.4252205  44.6965179   2.3538451  26.3515987  76.9119415
   1.6548452  25.7255840  76.7228928   1.8983725  27.1283226  77.2367096
  23.0020332  44.3339386  73.4302979  23.3297997  44.1949043  72.5417786
  22.2568703  43.7380142  73.5066910  31.1793385  54.1420250  40.0110588
  30.4537449  53.5702209  40.2616310  30.7991161  55.0203896  39.9994926
  85.7304611  12.6368742  57.2765465  85.4986496  12.5833149  56.3493843
  85.1563950  12.0013361  57.7040596  76.6164474  58.1334763  54.0449181
  76.4520187  57.8695984  53.1396217  75.9107819  58.7477379  54.2472839
  62.0855865  10.4558649  29.7327003  61.4853554  10.8722191  29.1141510
  62.8693199  10.2679100  29.2163029  39.1725426  46.8266792  30.0574608
  39.0509338  45.9102135  29.8094025  39.9562912  46.8241043  30.6069736
  72.7528305  43.9823456   4.1342635  73.2077408  43.1437111   4.2115736
  71.8719864  43.8085022   4.4661264  50.1105766  16.6363735  33.2578850
  50.0111084  16.5148468  34.2021141  49.3734245  17.1940479  33.0092087
  43.7287636  34.1281319  44.0536461  43.9622154  33.2692909  44.4059639
  43.1424637  34.5048790  44.7098083  24.4530792   2.3650479  40.9135056
  23.8461685   2.3013902  41.6509590  24.0038147   1.9206754  40.1945267
  60.6290436  37.2081871   8.2898960  60.2268219  36.7888718   7.5292196
  61.1996346  36.5349960   8.6606665  39.3875504  42.8189774   2.2413931
  40.1548615  42.9551849   2.7971916  38.7280884  43.4172363   2.5927193
  66.7540970  46.6800117  15.2568378  66.7568893  47.4440346  14.6802120
  66.7792282  47.0468483  16.1405983  80.5060120  48.7727127  31.8174000
  79.9762115  48.1962090  32.3680229  80.8559189  48.1983261  31.1363182
  44.7809563  61.4957581  13.6646652  45.1749458  60.7109680  14.0455894
  44.0484695  61.7019958  14.2453203  24.2898331  20.9143009  76.5119629
  24.8375988  20.1728935  76.7698441  24.4896698  21.0489597  75.5855942
  74.9790039  51.0785599  27.3113480  74.9884720  51.1262321  28.2673130
  74.1414032  51.4680214  27.0604019  37.7716789  59.3069420   8.4229755
  37.9888573  60.2322350   8.3093891  36.9117126  59.2107849   8.0137768
  74.2673950  32.5874939  20.2500477  75.1610413  32.2713013  20.3829193
  73.7596359  32.1698303  20.9457302  40.6239777  33.5614281  65.0563049
  40.7206764  34.5131340  65.0900040  41.1333466  33.2958908  64.2906265
  75.5981522  63.5495834   8.5040836  75.9622650  64.0072403   7.7463193
  76.2035751  63.7492294   9.2181158  31.5562210   6.0746112  51.4609985
  31.4284649   5.4314346  52.1583061  32.4175034   6.4525867  51.6386566
  39.8173409  59.6409302  60.8731728  38.9811707  59.8025398  61.3101387
  40.4549065  60.1396217  61.3841019  44.2310524  26.1849346  80.1495209
  44.8953514  26.0050735  79.4842453  44.2648087  25.4267445  80.7328186
  15.2757225  11.2304897   0.9037216  15.7952690  11.9636621   1.2335112
  14.5980921  11.6399555   0.3657759  22.1283092  22.3476429  88.2077866
  22.2246685  23.2054729  87.7941742  22.8965378  22.2666245  88.7730255
  27.5120468  42.6518173  86.1045761  26.9167004  42.7330437  85.3594589
  28.2048721  43.2882690  85.9280777  83.2640152  26.6533833  61.8365250
  83.2378235  27.4911537  61.3742599  83.7912598  26.0859184  61.2741814
  32.0690575  66.0031433  17.3321838  31.5120564  65.8224716  18.0893764
  32.5889091  66.7633133  17.5931988  21.3598900  12.2448063  66.6755066
  21.1819077  13.0930119  67.0818329  21.5272560  12.4502563  65.7557220
  21.6120491  64.2353439  35.2945709  20.9000912  64.4131546  35.9091682
  21.9519672  65.1002274  35.0650826  53.1532402  49.6995773  24.9747124
  52.2740746  49.6078911  24.6074314  53.5933838  48.8798180  24.7499828
  18.9111996  49.9930534  26.2736893  18.4923000  50.5033112  25.5805836
  18.9510918  49.1025925  25.9248047  45.9809647   3.4809129  26.4546585
  46.8958321   3.2697854  26.6408749  45.6959496   3.9969258  27.2087994
  41.3764648  17.7877617  86.0202866  40.6506958  18.2929916  86.3866730
  41.2950363  16.9239120  86.4244766   1.6417518   0.0538598  32.6869850
   1.6415150   0.7270472  32.0065079   2.5499406  -0.2458330  32.7270966
  84.2808151   6.7360349  37.6984100  83.7342377   6.9232025  38.4615936
  84.8466644   7.5035625  37.6150284  47.3681641  40.5960693  26.3629189
  47.8014336  39.7478600  26.4580460  47.7079277  41.1211777  27.0875263
  62.8709755  15.4979820  76.1216660  62.2548637  15.5059290  75.3891525
  62.4200859  15.9740028  76.8190460  38.0044060  16.2477360   1.6040684
  37.2019730  16.5899448   1.2100810  37.9467239  16.5026855   2.5248864
  84.5846329  16.9449005  39.7283173  84.4014511  16.7953053  40.6558380
  85.4399872  16.5399342  39.5847588  29.1756992  45.4479980  60.1959305
  29.5772419  44.6378708  59.8817825  28.2905617  45.4334488  59.8318558
  11.5863876  30.9445763  34.6578178  10.8371763  31.3933697  35.0496063
  11.5140886  30.0420151  34.9682808  21.7041397  17.5729523   6.0975137
  21.2000809  18.3859653   6.1316409  21.8069649  17.3162479   7.0138988
  58.3548355  12.3213615  74.5344009  57.7997589  13.0651951  74.3002319
  58.0855484  11.6239929  73.9365768  71.1819000  25.1220608   2.3392532
  71.8737564  25.5899544   2.8068471  71.3930435  25.2447872   1.4137336
  83.5510025  62.0541534  24.2252636  83.1608353  61.4216461  23.6219902
  84.1715698  61.5406113  24.7423687  43.4211121  68.1168518  19.6122646
  43.8398781  68.0729904  20.4718838  43.6980247  68.9600449  19.2536907
  10.2635927  58.4191284  40.3513794  11.1907654  58.2359772  40.1995964
   9.9905310  58.9235916  39.5850983  54.3473396  23.2877979  53.6647835
  55.2446671  23.0195446  53.4671097  54.0442924  23.7179451  52.8651810
  35.3989906  18.7937698  62.1310349  35.7741852  19.0071316  62.9854012
  34.4687080  18.6523380  62.3065491  86.7195206  51.0959663  69.9614258
  86.5844727  51.3439102  70.8760452  86.7089920  51.9256935  69.4842758
  21.6489582  29.4196892  72.1696854  22.4429493  28.9181614  72.3548355
  21.0947590  29.2831039  72.9380875  80.8598022  68.3700104  68.1028824
  80.5651627  68.1089249  67.2303772  80.0535049  68.5725555  68.5773163
   7.2174292  57.9845200  37.5622749   6.9378800  57.6137619  36.7252464
   8.0446491  57.5433121  37.7553329  70.8783569  44.5768471  28.9695263
  70.2274475  44.7172356  29.6571541  70.7257156  43.6789932  28.6749325
  48.7176628  58.8680305  51.1153641  48.7473450  59.8238907  51.1563988
  49.4810486  58.6270065  50.5905952  38.7525253  63.4934540  30.4819279
  38.5616989  63.5280113  29.5445786  39.0639496  62.6005554  30.6301918
   4.4925723  12.5274096  61.4048424   5.2507987  12.8234110  61.9085350
   3.9769332  12.0146103  62.0272446  14.9476538  49.8115997  17.6321869
  14.0878696  49.3975792  17.7069607  14.9690886  50.4496384  18.3454018
  12.4123907  19.2218037  66.9331512  12.0152321  19.6385174  67.6979065
  12.1330519  19.7619781  66.1939545  42.9162216  47.5204430  13.5237207
  43.3875771  46.9182549  12.9480267  43.2373047  48.3879089  13.2774601
  23.9304638  49.0539742  10.7756977  23.5181713  48.2754593  10.4013138
  24.8697224  48.8995857  10.6747417  76.5937271  51.7765503  68.9571304
  76.5112915  51.7379875  68.0042725  75.8748703  52.3432617  69.2369919
  50.7412453  59.0276184  45.7643013  50.1786690  59.7784805  45.9538841
  50.6428375  58.8862953  44.8227196  28.5717564  44.4450874  37.3314781
  28.8158073  43.5507622  37.0930290  29.2566109  44.7265930  37.9380760
   2.1369703  11.2176819  11.5931778   3.0872126  11.1045980  11.6151724
   1.8254836  10.7819157  12.3864717  57.3980904  23.4124432  20.8258648
  58.3046112  23.6535053  21.0165005  57.4653702  22.7588768  20.1297646
  17.8987103  67.3185959  70.1320496  18.3208084  68.1776352  70.1215973
  17.3758411  67.3183899  70.9338226  16.1082420  16.3193150   3.5744464
  16.4611416  17.1671238   3.8444731  16.0211926  15.8254528   4.3897715
  38.5834885  61.8203812   9.6068420  39.2453003  62.3879318  10.0019674
  37.8532639  61.8372421  10.2254868  53.8726158  71.1776810  42.1425629
  53.3179893  70.5222092  41.7195091  53.8941841  70.9152374  43.0628319
  69.2524643  31.2987614   9.1627388  69.5241318  30.8405399   9.9580116
  69.1855469  30.6105824   8.5008001  54.0735970   1.6555414  54.8397980
  54.4392357   2.1725221  55.5576210  53.2166862   2.0484936  54.6738930
  36.0858650  64.3233109  44.8100395  36.5074081  63.4659958  44.8695641
  36.5839272  64.7889862  44.1382408   7.6461263   3.1037488  32.8362846
   8.3010683   2.4606524  33.1077805   6.9069800   2.5782342  32.5301323
  50.2951279  47.4383621  74.4780960  50.4025574  47.7498436  75.3768005
  50.5365791  46.5128479  74.5149078  74.8467712  25.6066494  13.1758461
  75.4970169  26.1003246  12.6761532  75.3564453  24.9467220  13.6459093
  64.4583511  18.9390965  33.1009254  65.1660690  18.3199043  32.9221573
  64.7604218  19.4348984  33.8619537  15.8887577  39.1252251  21.1502304
  15.6613283  40.0416298  21.3074341  15.6978712  38.9868202  20.2225246
  31.0033550  54.6776352  87.5391312  31.9052753  54.3573036  87.5265350
  30.6479015  54.3598938  88.3691406  54.7449913  61.8760338  49.9090919
  54.4687004  61.4137955  49.1177444  54.2004700  61.5070076  50.6044693
  72.5037460  28.2213478  39.7840881  72.9824219  28.3935528  38.9732552
  71.6592636  27.8757381  39.4948959  17.9606075  44.7172508  28.4316559
  17.9914093  45.6599236  28.2683945  17.0535812  44.4720345  28.2488899
  73.7877655  56.1345825  74.5104446  74.4451447  56.4571457  73.8939743
  73.9683228  56.6079597  75.3225708  80.4085312  33.2095413  20.2813244
  80.6866302  33.8449135  20.9410191  79.5158157  33.4722481  20.0571117
  46.9849281  38.7299461  43.8102951  46.5126877  38.1477089  43.2151299
  47.9091949  38.5527000  43.6355247  60.0146332  65.1305466  17.1294899
  59.3519402  65.0670090  17.8172607  60.7098274  65.6635895  17.5152454
  26.7908001  43.6862106  20.5730610  26.9378452  43.1970253  21.3825722
  27.4228115  43.3205872  19.9541016  14.0986538  43.3708267   6.0064015
  14.4618502  43.6580391   5.1686492  14.8293991  43.4404259   6.6207299
   3.0595546  46.1326981  71.1223602   2.9097042  45.1873779  71.1343307
   2.8666992  46.3943825  70.2220459  23.1525974   3.9410763  65.3913651
  22.9151154   4.3893514  64.5796509  23.9052238   4.4302549  65.7237625
  78.1603165  23.1173992  66.7782974  78.4209213  23.0961342  65.8574982
  77.5140991  23.8217812  66.8281174   0.0690982  52.7178993  72.5386810
   0.1336728  53.6723976  72.5070648  -0.1356500  52.5218468  73.4529419
  69.8658829  16.5493832  88.3637848  69.1321335  16.0172691  88.6715088
  70.5017853  16.5166683  89.0784760  11.0232248  39.2852249  35.9005966
  10.6456461  40.1647873  35.9065399  10.4700508  38.7911911  35.2954865
  73.4334106  33.2789383  26.6920242  73.9884567  32.5162392  26.5293865
  73.5549927  33.4696732  27.6221161  49.1700974  62.0853462   8.7714405
  48.5541039  61.3535881   8.8076248  49.4532547  62.2051086   9.6779222
  75.1258698  30.3224449   5.7058930  74.6744995  30.6406937   6.4876952
  74.8856506  29.3975391   5.6504569  23.1239147  55.5123215  33.6952095
  23.2882767  54.7617531  33.1243668  23.2811069  56.2752647  33.1389313
  47.6923943  15.5178490  57.1425552  48.5703926  15.3645363  57.4916191
  47.3189621  14.6424189  57.0405693  32.6113815  65.0798721  33.2637634
  32.0838585  65.7464828  32.8237762  33.4634666  65.4961166  33.3938560
  35.6608276  64.4145508  69.5835648  35.5385475  63.4657555  69.6162262
  34.7844391  64.7635422  69.4211578  50.1671638  35.8976746   8.2267532
  49.4948540  35.6512527   8.8619728  50.3495903  35.0904579   7.7457657
  55.8869553  35.5101509  69.5863419  54.9730148  35.5171242  69.8707733
  56.0179520  34.6344566  69.2227020  80.7890244  48.0485229  44.3452377
  80.1909714  48.3392487  45.0337448  81.2464752  48.8442535  44.0736122
  51.9223976   4.4037380  28.6587505  52.4862137   5.0921826  29.0114346
  51.3267174   4.1905899  29.3770561  24.9182072   6.9849386  82.9253235
  25.7093143   7.1428080  82.4100952  25.0312958   7.5230618  83.7088242
  53.9207420  60.0658760  29.1984062  53.3209038  60.2911911  29.9095020
  53.6400108  59.1957932  28.9148865  64.4662094  17.7660065  28.6562157
  64.1291580  18.4663677  28.0975380  63.7462387  17.5705681  29.2559414
  48.6031189  62.6284752  15.2499456  48.9075737  61.7993507  14.8810406
  48.3334007  62.4091377  16.1417828  86.4425507  50.7641068   5.5883927
  85.5592422  50.3957596   5.6062703  86.9600830  50.1719322   6.1340322
  53.8027649  51.6568108  17.9572201  54.4605904  51.8288307  17.2834969
  52.9890442  52.0038033  17.5915890  32.2130089  26.2450638  66.6902313
  32.5128784  25.5195541  66.1425552  32.4401131  25.9817276  67.5820312
  77.6200485  50.1149254  34.9502792  77.5428772  50.3031387  35.8856163
  76.7594070  49.7773857  34.7020798  46.4888535  18.5349216  31.6130066
  46.8754845  18.6345444  32.4829636  45.9409637  17.7531166  31.6824989
   0.6188201  53.7354927  10.9659567  -0.0716235  53.6040154  11.6157522
   1.4124030  53.8709030  11.4837618  56.3862801  55.0142670  49.8995667
  56.0748329  55.9157639  49.9804115  56.1066971  54.5905914  50.7110825
  15.9336853  67.1688156  20.5558815  16.1658745  68.0532227  20.2727909
  15.6343184  66.7328110  19.7580643  15.7728243  38.5411377  51.6847534
  15.0549383  37.9085693  51.6577606  16.0489483  38.5510979  52.6012077
  33.4092445  50.1059074  20.6335716  33.8360863  50.8945541  20.9683418
  34.1169662  49.4665298  20.5526123  71.1465683  29.8109818  62.9849167
  70.9462433  29.8701267  63.9190483  71.2742996  28.8757305  62.8260956
   7.2257690  38.9019585  29.6427708   8.1657171  38.7855873  29.7812901
   7.1300268  38.9677620  28.6926479  69.2014008  62.8752060  83.4038696
  70.0122452  62.5232048  83.0366364  68.8000259  62.1320572  83.8542633
  29.1602573   7.6301804   8.2156572  29.9668522   8.1393356   8.1356745
  29.2619724   6.9193420   7.5827322  79.5854340  67.8217163  65.7804108
  79.1256714  68.5808487  65.4218369  79.0723267  67.0695114  65.4851990
  40.6074562  31.2278366  46.8297539  41.2231750  31.9223862  47.0636787
  41.1583900  30.4592094  46.6817093  29.3558445  31.7673359   0.4880877
  29.4868946  30.9937477  -0.0601995  30.2391987  32.0984840   0.6501361
  74.8391876  29.3876801  59.1006737  75.0607681  30.1132431  59.6843605
  75.4360809  29.4861679  58.3588791  47.4251366  31.6939087   7.1040101
  48.1761131  31.2140579   7.4533029  46.8896294  31.8927021   7.8720894
  53.4194832  37.5302963  39.4086609  54.2198944  37.5218887  38.8837776
  52.7812691  37.9919815  38.8648186  16.4384956  30.9815235  83.7806549
  17.1591530  30.4471607  83.4469757  16.6277676  31.8643284  83.4627533
  17.5241299  60.1964951  84.0331268  17.7270546  60.8241081  84.7267761
  16.8703899  59.6144333  84.4205093  30.5237808   3.9523497  32.8335762
  29.9028206   4.5762901  33.2095261  29.9947014   3.1811154  32.6298447
   6.9321375  54.3089752  46.8270645   6.9540062  53.5605927  47.4234505
   7.8465834  54.5814400  46.7510223  42.2538414  34.6076508  29.2110004
  42.8347816  35.3435211  29.4039688  42.0980988  34.1961403  30.0610790
  81.8397369  24.0125675  69.1852570  81.6710663  24.9030495  68.8773193
  81.6439590  24.0418797  70.1217575   1.0225033  51.8381271  22.3346710
   1.7993529  52.3944283  22.3917980   0.2867315  52.4483604  22.3845272
  52.5697556  34.6864433  14.9676981  52.4459724  35.2851334  15.7042313
  52.4849968  35.2405357  14.1917915  38.5363960  13.6893988  23.5824814
  37.7859077  13.3549633  24.0735569  38.1491394  14.1619377  22.8456154
  81.8804321  39.5403099  40.2069511  81.6037521  38.6247139  40.2439690
  81.1042328  40.0358200  40.4681358  78.5287323  65.6294022  39.8248863
  78.9365082  66.4108734  39.4517250  78.1675797  65.1641693  39.0703239
  81.8980331  61.8937912  18.5412998  82.2651901  61.8428459  17.6587849
  82.2466812  62.7103271  18.8989925  27.8911800  62.2453690  50.7724648
  28.2847004  61.9966888  49.9360809  28.0324249  61.4865952  51.3386307
   8.4784317  21.1187706  16.7345009   8.4933853  22.0592556  16.5570393
   8.8013248  20.7176170  15.9276266  55.4033585  39.0236130  64.8575516
  55.4137993  38.6557198  65.7411652  54.6527214  38.6075134  64.4337158
  62.6667900  24.6602821  48.1664886  62.2304077  24.1569786  47.4791107
  62.8811417  24.0127640  48.8380547   0.3527279  38.7856178  30.6342373
   0.5288906  38.9796066  31.5548725  -0.0336452  39.5906715  30.2895107
  35.4857254  34.9549675  28.4183235  35.8891945  34.2788963  28.9627228
  34.5728836  34.9803276  28.7052250   3.2786810  36.1269455  45.2100716
   3.1477311  35.1980362  45.0197639   3.9586103  36.4037437  44.5958138
  71.1787338  52.0233879  66.9500885  70.7864838  52.4348450  67.7202072
  70.5107498  51.4127502  66.6384125   6.8602271  69.5099030  59.0674133
   6.9584537  68.5627899  59.1652184   6.6107779  69.8161316  59.9393234
  61.7916985  70.2385025  72.7975769  62.6631660  70.1507339  72.4114761
  61.9451752  70.2190018  73.7421951  24.5810680  48.8149986  65.8940430
  24.0229836  48.1632767  65.4697342  25.4582462  48.6362610  65.5551605
  73.8258972  37.4215012  84.2118835  73.8599777  36.9088898  83.4042358
  73.3443756  36.8680191  84.8267212  52.1748962  40.7265587  56.9496155
  52.8363457  40.0704842  57.1693382  51.9720535  41.1507339  57.7833786
  67.2152481  37.5811882  52.2364159  67.1558762  38.5142746  52.0313339
  67.6567078  37.1970863  51.4789162  52.2435112  47.8746567   1.4644109
  52.0262299  48.7144318   1.8691356  53.1967506  47.8169365   1.5294847
   9.7289782  41.5193329  71.4849014   9.3005762  42.2550735  71.9223785
   9.2086258  40.7559090  71.7351990  24.3192406  36.2549973  14.8414841
  24.2696686  35.3232079  14.6280622  24.1452217  36.2949028  15.7818861
  37.2271309  32.5562210  26.1054668  37.3911743  32.1301308  26.9467583
  36.2749939  32.5372086  26.0089893   9.2271767  31.5882549  27.5101242
   9.5111256  30.6846828  27.6485538   8.9201450  31.8771534  28.3694839
   5.4585757   3.2764986  15.6822577   4.5849342   3.2781484  15.2911310
   5.9277515   2.5835931  15.2175121  30.1968689  70.8135834  62.2584190
  30.2110214  71.4999390  62.9254646  30.5706596  71.2277679  61.4806252
  42.8454971  48.9751511  48.3917732  43.1436348  48.3367653  47.7438469
  43.5101166  48.9461327  49.0800133  38.4469986  68.9831390  76.7269516
  38.6523476  68.3928757  77.4519730  39.2862053  69.1258545  76.2892380
  30.5545464  17.2859478  14.0231409  29.6743145  17.0670834  13.7173262
  30.5626621  17.0171852  14.9417992  68.7772446  55.4701843  74.6688156
  69.6134338  55.0643501  74.4401016  68.2289047  54.7414474  74.9595032
   5.6730676  13.5852919  18.0300503   6.2776546  14.2855234  18.2757797
   5.2364864  13.3477583  18.8481007  40.8951683  36.2080345  47.8361740
  41.5793114  35.8789520  47.2531776  40.1503220  35.6265259  47.6835899
  10.2741470  53.6658211  12.6350908  10.1894007  53.8929405  13.5610857
  10.3669329  52.7131462  12.6296644   6.6019573  48.0645027  76.0925674
   6.9263387  48.9610519  76.0076904   6.7696190  47.8346558  77.0065155
  85.0031586  28.6406364  13.5052996  84.6278534  29.4707546  13.7990351
  85.5209656  28.8714676  12.7340536  45.5957108  66.3825531  28.7442093
  44.8031311  66.1088791  28.2825241  46.1792412  65.6259079  28.6875458
  55.7443848  46.1343460  23.2949638  56.0837593  45.2397614  23.3228397
  55.7409019  46.3603172  22.3648262  66.7575607  57.1339760  73.5004578
  66.5418777  56.7531319  72.6491852  67.5882263  56.7245255  73.7424927
   5.2661099  37.3280334  41.1431923   4.3553410  37.5355988  40.9342690
   5.7418227  38.1414108  40.9748306  37.1109238  63.1912766  12.6711750
  36.3817902  63.7926788  12.8225412  36.9238358  62.7977486  11.8189039
  74.1909866  14.1512203  68.6735077  74.2294922  14.3952208  67.7487335
  74.7811432  13.4012985  68.7481232  56.7718544  50.8817253  82.8097763
  57.4213829  51.5173264  83.1103592  57.2450790  50.3333664  82.1840057
  14.9896536  57.6295128  53.8084450  14.8721781  57.5450783  54.7546501
  14.6852427  58.5144501  53.6073227  17.8378296  32.2692375  19.7181683
  17.2261181  32.9126434  19.3602982  17.8231163  32.4242439  20.6626205
  12.9722290  58.3993721  23.8321800  13.7744532  58.6670647  23.3838406
  12.3909407  58.1082764  23.1296139  50.5756187  37.0190392  16.0585785
  49.8743172  37.6687355  16.1065731  50.4981003  36.5223122  16.8731251
  50.5429230  24.7593651  47.1776924  51.4174881  24.3879948  47.0617180
  50.3648529  24.6651249  48.1134529  81.5948486  24.3197098  71.9253464
  81.0453033  23.6030331  72.2425232  82.3850403  24.2718372  72.4634399
  72.8586502  64.7760925  19.5901356  72.0243149  64.4007492  19.3086433
  73.4460373  64.6385651  18.8469696  57.1090622  49.8910599   6.7148061
  56.6220703  49.1844139   7.1387463  56.6879807  50.6923676   7.0259762
   2.4427938  38.5135422  70.5607376   1.6929512  39.0136871  70.8829498
   2.5545294  37.8104477  71.2005844  46.1023026  52.9606476  35.6190300
  46.7491493  52.2660942  35.4948654  45.3399277  52.6702271  35.1183548
  81.0459824  55.8965340  23.3499432  81.8823166  55.8805466  23.8152561
  81.2255173  56.3931923  22.5516129  56.7663002  71.5533524  85.8921967
  57.2866859  70.9261017  86.3941803  55.8927040  71.5047684  86.2804031
  46.7771111  47.9282913  87.5747986  46.3708687  48.0111923  88.4375458
  47.1052742  47.0294456  87.5499573   7.3997030  39.6721535  64.5535355
   6.9645052  40.5065117  64.3783722   7.0498166  39.0758934  63.8915024
  78.6008377  21.8134956  77.0025024  77.6677856  21.6764469  76.8386307
  79.0256271  21.0415726  76.6284332  31.6532536   4.4598212   5.7568245
  31.4522743   4.2463455   4.8456349  32.5720291   4.7279458   5.7429595
  74.6533890  69.2603531  40.7526817  75.3172684  68.5738831  40.8179588
  74.3963776  69.2580872  39.8306351  18.1896019  20.6294498  76.0217514
  17.4143982  20.4615021  75.4859467  18.4541931  19.7654800  76.3376312
  49.5383224  66.3049469  52.2460785  49.5011673  67.0143814  51.6045456
  50.4685097  66.0884247  52.3101273  63.9664993  50.1884003  23.1762390
  63.3830605  50.7193642  23.7183685  63.5297470  50.1452484  22.3255825
  78.3832779  31.4560013  46.2441521  77.7279816  32.1189728  46.0266762
  78.8099899  31.2584705  45.4104042  82.5333710  67.1324692   8.3307333
  83.0590439  67.7735748   7.8523188  83.1763229  66.5639267   8.7545271
  11.8246832  45.8887939  32.3462257  11.5839434  45.9003220  33.2725868
  11.2147779  45.2677956  31.9479694  26.7508965  31.1071453   8.3897200
  27.4258404  30.9087009   7.7406430  26.0330029  30.5101204   8.1789579
  48.8139343  17.0835991  67.0217972  48.0760994  17.4113789  66.5076065
  48.4085236  16.5911350  67.7354813  32.6664505  64.4324265  42.8200607
  32.9818916  65.3228683  42.9744530  33.2783051  63.8748741  43.3006859
  56.7199478  30.1649876  31.9791679  57.3614082  29.6566105  32.4754677
  56.5088310  29.6138649  31.2255592  38.7196579  59.6461067   3.1097407
  38.1902542  59.5632515   2.3165839  39.4246368  60.2458000   2.8655932
  79.3931580   8.7996607  38.6866035  79.2602615   9.6428537  39.1197243
  79.8287277   9.0194397  37.8630714  26.5845470  60.0077744  61.4623489
  26.0768852  60.1734924  62.2567368  26.2674484  60.6579285  60.8354721
  52.7800827  66.8272247  81.6471252  52.6272469  66.6412430  82.5735626
  52.2180481  67.5785522  81.4577713  30.1212559  33.1516533   6.3426485
  30.8997555  32.6038895   6.4432769  30.1608715  33.4601974   5.4374065
  54.2194862  36.5418510  87.0824814  54.3804626  37.4077835  87.4572830
  54.1833763  35.9564018  87.8389053  64.9857483  14.2985697  47.2409172
  65.3659058  13.9975023  46.4156494  65.4287109  15.1279526  47.4202003
  77.2721329  28.5601044  27.9892635  77.8107300  28.4643650  27.2037811
  77.0105972  29.4808788  27.9895706  61.2910881  63.3391838  31.9837399
  61.9748001  63.8944244  31.6089401  61.7535057  62.5531502  32.2745209
  61.6817245  45.2269592   9.8196859  62.3320847  45.5424118  10.4471798
  60.8408203  45.4905281  10.1933746  52.3593559   0.4780791  84.1877518
  53.0459175   0.9079999  84.6976852  52.7736092  -0.3159261  83.8498383
  77.6451492   2.6061752  63.0173111  77.8976288   3.3937957  63.4991226
  77.5136795   1.9428309  63.6947479  11.3046007  30.6764259  70.3230667
  11.9894209  30.0866528  70.0077515  10.9643335  30.2496529  71.1093979
  60.4029427  22.6146812   3.0572174  60.1259613  23.2576733   2.4044731
  60.8462639  23.1318111   3.7297304  64.3038940  41.9176559  22.7425385
  64.6083832  41.0367393  22.9604988  64.9617615  42.4994888  23.1232071
  55.4221878  30.5985584  49.2013092  55.3073120  31.0212841  48.3502274
  54.5588608  30.6479454  49.6117439  39.1702881  52.7033730  79.3087158
  38.9611244  53.6008911  79.5674591  38.3280716  52.3240204  79.0577240
  16.7586975  63.4243202  63.7217636  17.1450977  64.1100540  64.2664642
  17.3539238  62.6805191  63.8150139  58.4618835  61.8229599  18.6519337
  57.9169693  61.4326401  19.3352718  57.8715782  62.4121819  18.1822662
  80.4832687  15.0664148   1.0105385  80.0522919  15.6944427   1.5902573
  80.4350662  14.2341328   1.4808737  29.5822678   7.9915581  87.1643372
  29.2218666   7.4970765  87.9004288  29.0244522   7.7574892  86.4225235
   2.9531696  17.6772003   5.0908241   3.1473136  17.0853767   5.8176551
   3.6472707  17.5094414   4.4533982  62.7240486  11.9081097  75.1182480
  62.3512573  12.7474508  75.3879929  61.9640884  11.3625593  74.9155960
  -0.2951160  63.1630096  14.6560345   0.4393977  63.7463989  14.8467712
   0.0465482  62.5538597  14.0014887   5.6119041  54.4612465  28.7789612
   4.7189984  54.7303772  28.5632763   6.0654030  55.2787437  28.9845524
  16.8366127  10.1641445  71.1343765  16.6571484   9.2643776  71.4072189
  16.6690254  10.1665993  70.1919632  46.8774185  26.8401432  22.1400185
  47.3673019  26.0904770  21.8020134  47.5039749  27.5635624  22.1218967
  51.7221375  11.3765173  82.1967392  51.3550415  11.2576780  83.0727234
  51.1490059  12.0215187  81.7823410  35.1400566  56.6895561  22.9228210
  34.8802948  56.2311668  22.1236763  35.9175148  56.2206306  23.2259674
  52.7874870   4.9714141  21.8059616  53.0070839   5.7139068  21.2431870
  52.3044510   4.3732967  21.2357330  43.2541656  16.9807110  62.4917336
  42.7939644  16.1585426  62.3229485  42.6354904  17.5005245  63.0048256
  44.2983971  53.3574715   7.2995014  45.1820030  53.6835518   7.1287866
  44.4105453  52.4148407   7.4224143  33.2316780  44.2491684  70.6136169
  34.0062943  43.7427101  70.8579483  33.1936798  44.1833992  69.6594391
  47.7458229  20.4854908  42.7153282  47.3425179  20.6815796  41.8696785
  47.0186043  20.1953850  43.2659874  80.1563187  14.4597483  75.6193466
  80.3473129  13.5405617  75.8060303  80.2820435  14.5433197  74.6741257
  45.5049744  33.3026772  88.2560883  44.7229347  33.0594482  88.7515488
  45.3585167  34.2162132  88.0106659   1.2088801  52.1817169  30.1088257
   1.1763300  53.0773582  30.4449825   2.0592937  52.1199112  29.6738453
  19.2593155   7.2399082  83.3458786  19.8164635   8.0011425  83.5081711
  18.9070721   7.0130596  84.2065125  40.1830406  52.8240891  89.0475693
  39.8516426  51.9397163  89.2034225  39.4634590  53.2751541  88.6060104
  36.2580376  70.1166229   0.0340172  35.5150490  69.9854050   0.6230674
  37.0281525  70.0088196   0.5921689  64.5968399  56.7219353  16.1025009
  64.9690704  56.5551796  15.2365484  64.9439926  56.0191040  16.6518154
  54.4416847  20.5314522  22.3398094  53.8850746  21.1205235  21.8304863
  55.0914192  21.1061363  22.7445507  34.0635300  40.6027603  59.9362297
  33.5470276  39.9026909  60.3354263  34.4185448  40.2128029  59.1373978
  39.7574883  25.9897671   0.8589997  39.5088005  26.9049530   0.7293146
  40.6846619  25.9578037   0.6232821  18.3953495  16.3045845  78.8019562
  19.1009827  15.7786856  78.4254684  18.3252544  17.0622368  78.2211990
  61.2437477  37.7739601  64.8918457  60.9495201  38.2368698  65.6763077
  60.4366074  37.5537987  64.4267807  79.7467194  56.7984810  48.0117645
  78.8229141  56.9444542  48.2154922  80.1776657  56.7633667  48.8657417
  44.8128281  59.9771423  71.9918213  45.5969162  59.6156616  72.4050598
  44.5265884  59.2954712  71.3838501  63.1717567  60.2675095  19.3885021
  63.0780869  61.0144501  18.7972851  63.0238724  59.5022392  18.8328724
  69.9377899  17.3741531  79.5758743  70.1766052  16.8140831  78.8372803
  70.5523148  18.1065845  79.5295715  40.8072281  16.2666817  75.2364197
  40.9625282  16.5560207  74.3373108  41.3341637  16.8588543  75.7729874
  50.1506538  39.9470367  23.2810936  50.7140121  39.3604279  22.7763653
  49.3599930  39.4342384  23.4488010  51.5409164  52.3946877  16.8396263
  51.3048172  53.1994476  17.3009815  50.7134972  51.9236717  16.7408714
  53.2437630  22.6143112  76.4828033  52.9252281  23.1559887  75.7607574
  54.0689468  23.0235271  76.7432785  32.5801773  45.5679512  45.3544121
  31.8911018  45.2547531  45.9403419  32.2678146  46.4205475  45.0515289
   9.3802710  56.6514587  87.5178757   9.0965042  57.5546646  87.6590424
  10.2380638  56.6012077  87.9396515  57.1741180  41.6585541  76.3837738
  56.8114967  42.3330231  76.9580841  56.7598038  40.8467751  76.6763382
  66.9355240  32.8812714  62.5280876  66.3971558  33.2670593  63.2191467
  66.9263458  31.9422302  62.7134094  69.7780991   3.1179745   1.0962058
  70.1998291   2.9013779   1.9277474  69.6744919   2.2755857   0.6536241
  56.0891876  61.8439713  64.6527939  55.7471657  62.6452637  65.0492554
  55.9386902  61.1671181  65.3126831  47.4405365  67.2641525  83.3568115
  47.0721893  67.9672089  82.8217850  47.1920700  67.4900284  84.2531815
  13.6069431  59.3907013  26.4745388  13.0391579  59.3084373  27.2407532
  13.6974802  58.4960861  26.1463661  14.3757906  40.2769470  80.0782242
  14.6521559  40.9444466  79.4502869  13.8387251  39.6731758  79.5651398
  76.5242691  21.4002552  52.4217834  76.1777649  22.2056370  52.0376930
  77.0893555  21.6985893  53.1344604  76.5733948  36.0193176  17.3015671
  76.4835968  35.0833130  17.4806328  77.3623047  36.0856400  16.7635555
  59.9705276  60.0337219  53.6751938  60.5448151  59.4170303  53.2211952
  60.5681992  60.6421547  54.1097374  33.3313713  48.4982567  13.8910170
  33.0057068  49.3877983  13.7535858  34.2591133  48.6120605  14.0973673
  85.7311401  46.1633911  48.2200356  85.9706955  45.9149857  49.1128616
  86.5032806  46.6172676  47.8823547  36.2133560  60.6233864  21.2184143
  35.6537094  59.9833641  21.6581936  37.0585480  60.1826210  21.1312122
  57.1383362  18.9109898  70.7546921  57.4990234  19.7968922  70.7909470
  57.6101227  18.4895172  70.0363541  43.8573761   1.9605948  47.0744438
  43.4835167   2.4975674  46.3757858  43.4133682   2.2578366  47.8686333
   8.0600491  54.1210785  40.4984436   7.2694197  53.6413269  40.7453766
   7.9207911  55.0043106  40.8401184  30.0995960   3.9641962  40.0065651
  29.7866936   4.8110919  39.6886177  29.5386562   3.7679522  40.7569427
  43.4282188   7.5187340  65.5151596  42.7919388   6.8042202  65.4860001
  43.8493195   7.4996700  64.6557693  19.4123173  56.8707123   0.5225375
  19.3787632  56.8059425  -0.4318791  19.6657009  55.9946480   0.8132910
  35.2500725  54.3820610  52.2732887  34.9246407  55.2767868  52.1743240
  34.9327774  53.9243126  51.4948120  16.7277031  60.9986038  65.5749512
  16.6303635  60.6909180  66.4761047  15.8886623  61.4116707  65.3709488
  86.2873840   4.3739352  84.7833252  87.0053711   3.8419592  85.1264343
  86.7201614   5.0715151  84.2910690   4.9449735  41.4561119  41.9749260
   4.3978705  42.1565132  41.6194725   4.3251925  40.8525734  42.3846130
  82.0404358  39.0055962  75.9314880  82.1421738  39.7605972  75.3519592
  81.4487152  38.4195175  75.4596786  39.1362762  37.6997528  82.1418533
  39.9824829  37.2580872  82.2132721  38.5991592  37.3004036  82.8261414
  25.8840942  38.8879967  64.9961548  25.7412834  38.2998886  65.7377472
  25.4814644  39.7139130  65.2644501  44.0057487  18.2124481   8.7587643
  43.1262131  18.5883999   8.7225752  44.5450211  18.8149414   8.2464962
  43.0014534  33.6535912  16.4675598  42.6932220  33.6714630  17.3735981
  42.2473793  33.3468819  15.9640398  67.4003830  18.7099457  13.3942661
  66.6872864  18.9809380  13.9724445  67.6500397  19.5094585  12.9309254
  49.4693909  67.4498520  49.7398033  48.7326088  66.8706665  49.9345627
  49.3277130  67.7209167  48.8327827  39.4803658  29.3728943  88.5940323
  40.1911774  29.3035717  89.2313538  39.8956757  29.7326183  87.8102341
  77.6360626  66.1529999  10.4459352  77.3737717  65.2423401  10.5805817
  76.8162994  66.6459808  10.4805689  23.6717815  39.7914124   8.2836084
  22.7443733  39.9935188   8.4072914  24.0042591  39.6411438   9.1685429
  36.4929199   2.3763990  69.3430939  36.4524689   1.8572024  70.1462326
  37.1329155   3.0623033  69.5332870  19.1107864  18.2410393   3.3180072
  19.1926937  18.7262936   4.1390133  19.6529980  17.4624786   3.4448369
  62.6882286  63.8198128  56.3646317  62.6617279  63.2619705  57.1420250
  62.3795357  63.2564926  55.6549759  55.8400993  68.2386246  84.8787384
  56.2015915  68.3591156  84.0006561  56.5540390  68.4836502  85.4673691
  62.6669388  70.8872681  33.9357147  63.1964111  70.7735214  34.7249870
  62.4158821  71.8108902  33.9467697   9.8919268  39.2659454  22.0135517
  10.5654001  38.8152428  21.5041084   9.4991741  38.5789795  22.5521202
  60.1993752  13.2760420  87.7689362  60.3744545  13.3724661  86.8328323
  59.3903313  13.7668581  87.9130859  34.9657249  38.0473022  36.4302979
  35.3425636  37.8513870  37.2881088  34.0348396  37.8459969  36.5260010
  63.6920319  64.4618225  24.6526775  63.2706871  65.0404434  24.0171471
  63.4191093  64.8025131  25.5045433  78.8886108   4.6361609  49.5531464
  78.2309799   4.2316098  50.1189079  78.7524796   4.2282295  48.6979904
   0.8839024  35.0289192  57.6178818   1.6399760  35.3133354  57.1043739
   1.1424524  34.1790009  57.9742775  56.5796127  18.8110695  60.1074448
  56.2975159  18.0714512  59.5692825  55.7809486  19.1086712  60.5430984
  55.6023254  46.0310936  62.2468681  56.1133194  45.7830505  61.4764175
  55.6136513  45.2519531  62.8027878  21.1745510  44.4418144  51.7316856
  20.4666176  44.4610710  52.3756485  21.7570057  43.7461891  52.0367813
   2.3104427  23.8895245  33.0004807   1.8397352  23.6712036  32.1961174
   2.9661138  24.5312977  32.7276192  15.4746532   0.9972370  11.8677616
  16.1787891   1.5660365  12.1790361  15.9220028   0.3125072  11.3705130
  20.2840118  54.5335732  25.3500748  21.0374432  53.9487572  25.4310684
  20.2613678  55.0112572  26.1792526   9.9461164   0.6805452  30.9676743
   9.9619961   1.0148624  31.8644524   9.0223789   0.4967661  30.7968941
  60.1922646  50.3209381  48.0769539  61.0825653  50.3798676  48.4235382
  60.1559486  49.4626808  47.6546860  78.6316757  24.8035107   9.1535759
  79.3281631  25.4543877   9.0669918  78.7390518  24.4540558  10.0382128
  74.7191086  66.5239487  31.6783199  75.5844574  66.6788254  31.2996216
  74.8792267  66.4493256  32.6190758  59.2390404   8.9100809  52.9571609
  60.1647720   9.1450405  53.0207558  59.1352272   8.5854549  52.0626907
   9.0108500  10.1930599  77.3860168   8.2074194   9.9247742  76.9402008
   9.6972723   9.6612072  76.9832916   9.3568678  37.2678108  47.3710899
   9.0950308  38.0763435  46.9306946   9.9078951  37.5585213  48.0977859
  84.0959549  68.8584442  41.6610222  83.5973206  68.9790421  42.4691353
  84.9718170  68.6082153  41.9551048  66.7682037   8.1756477  83.6664581
  65.9763260   8.4679461  84.1178207  67.3235321   8.9543667  83.6285095
  66.9234848  10.9015560  18.6309166  66.0249786  11.2203169  18.7164860
  67.1786957  11.1408901  17.7399521  48.9492683  35.9767876  41.2528610
  48.2695999  36.6507263  41.2432861  48.6391373  35.3150520  40.6346741
  20.2288265  64.6945496  51.9390259  20.9419498  64.1037369  52.1811752
  20.2918453  64.7683640  50.9867592  36.6906929   4.0506139   3.6203589
  35.8171120   3.6599555   3.5986350  36.5324936   4.9830122   3.7681367
  77.9343262  47.7853012  58.8722076  77.9097443  47.8998260  57.9222031
  77.0904694  47.3880615  59.0874786  58.0152321  63.3920059  16.1340809
  58.5169907  62.7582588  15.6214075  58.6789017  63.9268570  16.5696392
  76.1732483  37.7664986  81.6956558  75.2571182  37.9935150  81.5363159
  76.5552826  38.5606232  82.0693512  32.0984688  59.4466019  47.2677650
  31.2786312  59.3875427  46.7772446  31.8963909  59.0594063  48.1195145
  32.6921921  60.2627678   6.0734777  33.2226753  59.6050415   5.6237879
  31.8071899  60.1296883   5.7339334  79.9660721  16.5560665  47.8197250
  80.8225784  16.8165417  48.1585236  80.0891190  16.5041637  46.8718872
  64.9500809  58.7804451  69.2317657  64.3990707  58.2432213  69.8009872
  64.3731918  59.0363464  68.5120773  35.8284454  18.9302425  14.5966139
  36.1354370  19.7290154  15.0255051  35.1546631  18.5870457  15.1835251
  25.9151974  31.5615501  67.5975342  26.5099697  30.9436188  68.0225525
  26.3568802  31.7963848  66.7814484  13.4272604  67.3079376  71.3067398
  12.4970579  67.2104568  71.1031418  13.6218061  68.2233276  71.1056519
  65.9954224   9.8226280   1.5171628  66.9045639   9.9504776   1.7879939
  66.0428848   9.7005215   0.5689703  46.3939667  17.2175713  85.9413757
  45.9079819  17.4533024  86.7316132  45.7941437  16.6565552  85.4497375
  86.6037292  48.2195168  34.6491241  87.4304352  48.1481857  35.1263046
  86.0509796  47.5337067  35.0237770  47.2135201  57.4684372  60.3912735
  46.5238571  57.9272041  59.9115562  46.7735405  56.7111588  60.7775116
   4.1112261  26.0571480  32.6917458   4.0829864  26.7551823  32.0373917
   5.0430608  25.8654156  32.7973633  10.6203547  58.6589928  25.4220009
  10.7657280  58.7597771  26.3627148  11.4366474  58.9565048  25.0202732
  21.4734268  69.2087708  66.2909088  21.2236710  68.3151398  66.0558014
  22.2623482  69.1048584  66.8229218  60.8897858   5.6388311  68.1896515
  61.0603256   6.5264311  67.8745117  61.0876617   5.6747870  69.1254883
   8.1238155  54.7512817  37.4418793   7.1798859  54.8744965  37.3416443
   8.2143497  54.2365494  38.2438049  19.6769543  52.2408752  54.0928192
  18.8453693  52.0803719  53.6467934  20.1903934  51.4486732  53.9346313
  54.2293434  52.2562523  24.6175823  54.4748955  52.5433578  25.4970741
  53.8518143  51.3861275  24.7463608  20.3920364   6.8929281   6.4259157
  20.2392254   7.1216450   5.5090904  20.6209049   5.9637055   6.4060187
  43.7704124  40.5483513  41.8087311  43.4047318  39.6660843  41.8728714
  43.3188553  40.9410553  41.0616646  13.4463768  53.5964890  58.8007927
  13.5015240  52.6654549  59.0161095  14.3548880  53.8978348  58.8063698
  67.0021057  34.9557610  85.1981430  66.9351120  34.9722328  84.2434311
  67.3344498  35.8229752  85.4299240  23.6826973  33.7693291  83.2115631
  23.1204033  33.0288925  82.9839401  23.4187603  34.0060616  84.1006775
  10.3265944  34.2718353  86.4369812  10.6152763  34.8745842  85.7517166
   9.3955679  34.1366959  86.2604599  74.8323288   7.6960173   5.7326164
  75.0213623   7.3219800   6.5931950  75.2584534   8.5530434   5.7451062
  86.2617569  59.3456459  76.2765808  86.3403397  59.8485222  75.4659195
  86.0874786  60.0029449  76.9502335  59.6854935  44.0536118  43.3413277
  59.9442139  44.7779846  43.9110489  58.7745667  44.2407913  43.1145973
   6.2752104  38.7507553  26.9994087   5.6772051  38.0892334  27.3472691
   6.6224146  38.3614311  26.1968460  53.5455399  35.1047821  55.9381828
  53.2307091  34.4971695  56.6074486  53.4855995  34.6118164  55.1198769
  61.2718544  56.1152496  59.3327103  61.5605659  56.3508224  58.4510155
  62.0149651  55.6447029  59.7103424  67.8861160  53.1720619  76.1402359
  67.2643509  52.6235008  76.6184845  68.4307785  53.5665054  76.8214035
  38.1070023  55.0283165   0.5938820  38.1170197  55.0333900   1.5510162
  37.8959084  54.1241035   0.3613528  15.0729628  22.4724827  85.5300140
  14.7749977  23.2041740  84.9895706  15.7187662  22.8589802  86.1214447
   1.9370011  42.0646133  22.3940372   0.9841443  42.0211334  22.4740696
   2.1482587  41.4364433  21.7033806  66.6448822   5.3399725  54.8591766
  66.7904510   4.4013505  54.7407341  66.9717102   5.5237789  55.7398758
  48.9734077  56.8729630  28.2684536  49.1048737  57.6482506  27.7226677
  49.4806786  57.0490685  29.0608521  60.0897064  55.5585785  39.5776863
  59.1921234  55.3011856  39.7882233  60.1416435  56.4789696  39.8354073
  44.3342514  50.4872932  62.5954475  43.6553764  50.8339996  62.0165253
  44.0615959  49.5868835  62.7719460  59.1600418   8.3342142  60.7321663
  58.6928825   9.1042585  60.4080887  60.0685883   8.6233358  60.8169022
  36.0965996  65.4313812  28.4887829  36.6951103  65.7620544  27.8189526
  35.7446022  66.2182312  28.9049644  57.1975021  15.9408846  70.2367783
  57.6929131  16.3813934  69.5463028  57.3184280  15.0078897  70.0603409
  55.5177155  69.5450974  55.1361809  55.1993370  69.0055008  55.8598595
  55.9536972  70.2834015  55.5616913  37.6425934  67.5941620  62.1107788
  38.1720810  66.8280563  61.8895302  37.1993256  67.3522186  62.9239273
  72.0413208   2.6538911  38.9245567  72.4600067   3.4668484  38.6416588
  72.1533203   2.6449881  39.8751411  69.6259460  42.7363815  54.3678589
  69.2991562  41.9581985  54.8193817  70.2476807  43.1264229  54.9823036
  12.3960342  40.7222786  57.8332481  12.4272146  41.3549881  57.1156578
  13.1236639  40.1255074  57.6581726  37.6304703  46.3749161  78.4728394
  37.8558884  45.5571709  78.0293274  37.4957352  46.1226921  79.3863297
  85.7244873  43.2080231  35.6035919  85.6812210  43.1528511  34.6489639
  86.5073013  43.7305069  35.7780762  17.8618679  64.6043701  53.0574188
  18.7799263  64.6866913  52.7993011  17.7900314  63.7161140  53.4068069
  60.5733490  17.2507763  74.4010773  60.1208611  17.9704933  74.8409576
  61.2982407  17.6708870  73.9381866  79.9598465  19.4373665   0.7454764
  80.8440704  19.3488827   1.1012195  79.3887482  19.4072990   1.5130510
  54.7073059  16.7703438   7.3867078  55.2838783  16.3982162   6.7193875
  54.8017960  17.7172985   7.2838364  78.5360184  36.7024269  15.2985420
  78.2949677  35.8241005  15.0041485  78.5938110  37.2173424  14.4937115
  62.7370453  44.2265854  26.0760689  62.3370285  45.0903702  26.1765099
  62.9182587  43.9409676  26.9715099  86.3730392   2.5175405  73.2342758
  86.8870392   3.3058746  73.0594482  85.5728607   2.8403504  73.6486893
  75.5929413  12.9550467  15.6125689  74.7105179  13.2893190  15.4518852
  76.0007324  13.6151524  16.1731033  73.2129288  63.0449486  38.4173660
  72.9126587  63.7590446  38.9796257  73.5883789  63.4831123  37.6536369
  41.7028809  53.6598282  65.1822891  41.3400688  53.1769218  64.4397278
  41.0645905  53.5343742  65.8844833  72.7415390  15.5720997  23.1112175
  72.9913330  14.9989271  23.8359985  72.2783127  14.9984074  22.5008621
  27.9860764  69.9198532  78.2836075  27.1169033  69.9535599  78.6831512
  27.8946171  70.4143143  77.4691238  61.0630760   5.8187056  84.2893066
  60.4388847   5.9792562  83.5816116  61.1252899   4.8649850  84.3420258
  40.1658821  57.9922905  54.8397522  40.9330063  57.5047302  54.5396957
  40.1845169  57.9052963  55.7928085  26.0556297  56.6417007  64.3033600
  26.5927944  56.1001244  64.8816147  26.4495182  57.5124817  64.3565369
  37.2608147  32.4888725  49.4813538  36.5569916  32.5715981  50.1247978
  38.0646477  32.5229378  49.9999390   1.0362200   7.2967868  74.8086166
   1.1274142   7.0058722  75.7159653   0.9185457   6.4889851  74.3087769
   1.7927362  56.3617249  83.5334702   2.6762664  56.0096970  83.6415558
   1.2167215  55.6100121  83.6726379  20.3831615  55.9484711  70.0255508
  19.6671391  56.3806839  69.5599976  20.0113564  55.7196274  70.8773880
  13.4835739  30.9613400  88.7129517  12.5384388  30.8157558  88.6710281
  13.8624382  30.0825615  88.6918945  22.4219151  12.9055347   3.9190676
  22.4540977  13.6253052   3.2888880  23.2652130  12.9443407   4.3702602
  60.6813393  16.1604519  24.2760448  60.5353889  16.0102253  25.2100487
  61.4171638  16.7718124  24.2438984  53.6449089  64.8888931  26.0586166
  52.9670296  64.2379379  25.8770523  53.2299728  65.5047073  26.6626339
   5.1439896  42.2928162  34.5510254   4.9470248  43.1121063  35.0051193
   5.3678484  41.6790581  35.2506104  78.1933594  22.9676285  79.4469604
  78.6640778  22.6532269  78.6750793  78.4848404  23.8731918  79.5528870
  59.8868599  28.6432190  69.4522705  60.7704620  28.5245171  69.1038589
  59.8803368  28.1386337  70.2656479  12.4691381  53.2224388  77.1615601
  13.0433912  52.5128746  77.4496231  13.0598183  53.9582748  77.0007019
  54.9897919  47.9074821   1.4837335  55.8053513  48.4032974   1.4111793
  55.1198883  47.3425522   2.2454159  80.2699890  22.4272995  88.5609970
  79.3340149  22.2276402  88.5433273  80.6797943  21.6952362  88.1001511
  18.7636929  42.9757538  17.0623589  18.1877060  42.2273026  16.9065151
  18.8605881  43.3864021  16.2031670   2.2937534  53.8642998  54.2608490
   1.4478796  54.3078804  54.1978836   2.9348125  54.5744171  54.2926178
  53.8262100  14.4415894  70.4031296  54.7746735  14.4939346  70.5210495
  53.6481895  14.9970627  69.6441879   0.0552839  29.5187740  11.8307152
   0.5264476  30.3414803  11.9625883   0.2298013  29.2863503  10.9187098
  49.6886559  52.9467354  24.5691547  48.9903755  53.0653572  23.9252872
  50.3180389  52.3698387  24.1363697  79.2050781  15.7956619  28.0020657
  79.9756699  15.9931107  27.4696789  78.5586777  15.4693356  27.3760452
  70.7283249  47.8402214   9.4743423  71.4028549  48.2376709   8.9236393
  70.7340546  46.9148064   9.2297878   4.3290000  21.5906792  58.2039757
   5.1396470  21.6573658  57.6993599   4.6118040  21.6287708  59.1176529
  10.1707687  70.7192917  10.2672997  10.7975140  70.8114700  10.9848833
   9.3791418  70.3777313  10.6831017  67.4533920  61.9100647  89.1408157
  68.0778351  62.6126480  89.3215866  66.8901367  62.2617493  88.4514008
  68.2111511   1.2568785  68.1598053  68.7084045   0.5524323  67.7442017
  68.6540833   2.0587466  67.8822327  63.4328270  71.1204224  16.2610607
  63.0234146  70.2702866  16.1002026  62.7882423  71.7584305  15.9549904
  31.9942856  70.7279968  70.7723694  32.7160339  71.3512955  70.6897888
  31.8125153  70.6950989  71.7115784  64.6335526   1.6874963  22.7330322
  65.3133545   1.0147148  22.6946850  64.7615280   2.2029610  21.9366970
  68.2744293  54.1037560  52.7706642  69.1329041  53.6946640  52.8797646
  67.6497421  53.3998375  52.9452934  85.1769943  13.7963715  34.4257469
  85.3377457  13.2122898  35.1668549  84.4163589  13.4189329  33.9839211
   7.4103379  57.2810059  17.6522045   6.9037833  57.9948006  18.0396786
   6.7725267  56.5799751  17.5181179  53.7379761  11.8219986  76.4735413
  54.0825653  12.0279446  77.3424911  53.2272758  11.0226259  76.6016769
  51.0886459  12.1522169  49.4051819  50.4549065  12.3625784  50.0910034
  50.6124802  11.5754900  48.8077850  81.0072861   9.3402987  70.3605194
  80.7855453   9.7562122  71.1936340  80.8753281  10.0273380  69.7072220
  22.5142899  47.8737679  41.4383049  22.3851433  46.9255371  41.4180336
  23.4066124  47.9870148  41.7656670   6.1150956  49.5804367  70.0834122
   6.7057376  48.8694763  70.3322372   5.6604786  49.8089714  70.8941650
  20.7314816  34.4570541  10.0821247  19.9891701  33.9860535  10.4607639
  20.5550156  35.3776779  10.2758713   1.9266716  39.6721954  52.8244934
   2.1605232  38.8919334  53.3272247   2.4846265  40.3632202  53.1814270
  67.8520203  50.3831978  61.0334854  68.2471313  50.6203041  61.8724747
  67.9999084  49.4405899  60.9569702  50.5502129  68.7674713  35.8182716
  49.8640327  69.2471008  35.3542137  50.2211761  67.8701782  35.8714409
  32.5055504  21.2115688  70.9864197  32.2404480  21.1470261  71.9039078
  33.2983055  20.6783104  70.9280853   6.1901946   6.6991396  27.8291645
   5.8561649   6.2856326  28.6251965   7.0758615   6.3495288  27.7311935
  50.5568962  37.8777809  55.6657982  51.4940605  37.6831131  55.6578712
  50.1339264  37.0191078  55.6685791  28.4624043  70.0546646  52.2384682
  28.4508934  70.9202271  51.8299332  29.3735409  69.7694702  52.1697311
  64.3811188  66.2489395  59.3486099  64.4486313  67.0652237  58.8532753
  64.9058304  66.4015732  60.1344948  24.7276115  51.9647903  83.7725601
  24.8519211  51.6909370  82.8638306  24.8518467  51.1646271  84.2829819
  73.6793594  60.2423782  34.4323082  73.5380249  59.9059334  35.3172150
  74.5991592  60.0521927  34.2478333  60.6159706  67.8849335  76.9354782
  60.5459862  68.7888641  76.6284790  60.2407761  67.9012756  77.8159256
  39.2128792  20.7083874   7.2600679  39.1425362  21.3172379   7.9953136
  40.0156670  20.2164097   7.4324589  25.2943459  60.0007210  40.4386635
  25.8197651  60.1566658  41.2234192  25.6580334  59.1992836  40.0622826
  36.8062630  64.8833771  47.8459320  36.5093880  63.9920158  48.0291748
  36.7907448  64.9494629  46.8911438  75.1665955  63.3917198  40.6830254
  75.8839951  64.0253906  40.6780815  75.0476227  63.1574287  39.7625961
  61.6399841  31.7601910  31.0646400  62.5921822  31.6900978  30.9965305
  61.3342285  30.8534718  31.0892487  20.6983223  42.8591270  73.6895447
  20.1518612  43.3669891  73.0898056  20.1062889  42.6078682  74.3984833
  23.2240734   4.0626073  13.9192543  23.0250034   4.6482811  13.1887827
  23.5067062   4.6458139  14.6236839  37.6979218  57.9605217  54.1155281
  38.6544685  57.9788284  54.1457939  37.4799843  57.0373764  53.9869308
  86.2373276  26.6452770  58.1542358  86.7295609  26.9717197  57.4009933
  86.5055923  27.2103310  58.8787918  31.1513119  52.6008186  66.2844467
  31.5570412  51.7789993  66.5605469  30.2241859  52.4934464  66.4969025
  57.9724770  68.3602982  18.6656456  57.7994156  67.6496582  19.2831192
  57.4017487  69.0725403  18.9541054  21.0856056  45.7061462  20.4386959
  20.8493748  44.7966805  20.6211758  21.2425117  45.7280655  19.4946976
   8.2245932  69.5561905  73.4057770   7.9724555  69.9965515  74.2173996
   8.4751577  68.6739426  73.6798172  85.2301407   7.6302247  47.2423401
  85.6238556   8.0151739  46.4593773  84.2972870   7.5700088  47.0364532
  53.3048210  61.2616005  67.2017975  54.2310905  61.1775475  67.4280472
  53.2983665  61.3535233  66.2490463  33.2308311  38.4935112  43.4995079
  33.6967087  37.7951889  43.0395775  33.8142433  38.7378464  44.2179527
  18.5818558  39.8721924  61.7186470  18.7988777  40.1618958  60.8325310
  18.6607246  40.6612968  62.2546768  53.5408745   6.0995731  11.0775061
  53.6989937   6.9677873  11.4482260  54.1764984   6.0236201  10.3658571
  14.4587803   3.8869219  12.8970985  13.6367321   3.5778718  13.2778311
  14.4173298   3.6109951  11.9814692  62.3582726  61.3232307  25.7406750
  62.8373032  61.3993645  24.9154682  63.0399323  61.3034515  26.4123745
  62.7285156   7.8868575  43.9002266  63.3541794   7.3955064  43.3679199
  61.9952087   7.2844391  44.0250664  27.5523376  52.0096741  65.2512512
  26.9394875  51.8286514  65.9639053  27.8318119  52.9131050  65.3993607
  53.5863342  60.6719856  52.0901108  53.1586609  61.4870338  52.3528366
  52.8702736  60.0425720  52.0044899   4.2113652   7.0599780  65.7984772
   4.9780211   7.4833088  66.1848145   3.6225166   7.7827787  65.5815659
  19.0829449  43.2342873  34.6649551  19.0078316  44.0201416  35.2062721
  19.2736816  43.5653305  33.7873077  37.3440742  45.3526306  23.4363136
  37.3171921  45.8698769  22.6313496  38.2220993  44.9715881  23.4469547
  44.7260742  44.8663826  59.4484291  45.2652283  44.1904335  59.0377731
  45.3500824  45.4134903  59.9254189  75.6855011  57.0606804   8.4345760
  75.8985901  56.1367645   8.3034220  74.7595978  57.0608101   8.6773357
  39.4057236  11.8993893  14.0829010  39.6628494  11.6594448  14.9731512
  40.2303619  12.1054230  13.6427317  75.0353012  29.4706707  -0.0241753
  75.5687408  28.7573624  -0.3746945  75.4997559  29.7520752   0.7640649
   0.9488073  42.5099335  68.6538925   1.3719279  42.1707954  67.8651047
   0.1449040  42.9212799  68.3364563  15.5796175  14.9595613  18.2401772
  16.3669243  14.4698620  18.4780312  15.7284813  15.8375511  18.5911808
  27.7724781  39.9515266  46.5483398  27.7366886  40.3326836  47.4256477
  26.8710861  39.9986992  46.2297516  22.6935825  68.1938705  10.6150417
  22.7097454  68.7087173   9.8082571  21.8294277  68.3634872  10.9901381
  54.8920097  26.3013058  62.1175842  54.4249153  25.9631138  62.8815765
  54.8075218  25.6107388  61.4601593  84.0038300   5.6234264   9.3634148
  83.3421860   5.3260531   9.9879389  84.5653229   4.8601727   9.2277498
  83.1647797  68.6622238  21.1375637  83.0403137  69.6011963  21.2756424
  83.9519806  68.4487381  21.6385326  85.6606598  12.9310255  12.4264555
  85.4075623  12.7270966  13.3267822  86.4124985  13.5166769  12.5158186
  79.7390900  28.5062294  75.7279053  79.8598328  29.1115685  76.4594955
  80.4210968  28.7485256  75.1014938  25.8343544  64.6307983  88.2062149
  25.7944202  64.4134598  87.2748718  26.0145111  63.7964363  88.6393585
  41.9893188  62.3012543  75.0013962  42.4407921  62.6027451  74.2130356
  41.5201988  63.0729408  75.3186646  56.3765068  69.8804398  20.1144829
  56.1373634  69.4299469  20.9244843  56.0561447  70.7744751  20.2340889
  52.2083817  44.6523743  39.2993355  52.5488853  44.9307098  40.1495247
  52.8523941  44.9716339  38.6672325  13.3774424  18.7672005   1.7476170
  12.6811323  18.7042961   1.0938382  14.1680536  18.4935207   1.2825739
  57.1729393  50.4684944  51.5683250  56.7128983  51.0157738  52.2047844
  57.6560287  51.0895767  51.0232430  33.4580994  70.7288666  21.7511616
  33.3894463  69.9754791  21.1647034  32.9508247  71.4159088  21.3188705
  17.2942390  47.5435104  23.0082169  16.9910355  48.3979073  22.7011299
  17.8435650  47.2144089  22.2967625  48.1641731  70.1521683   6.9041300
  47.2081299  70.1991196   6.9024644  48.4464378  71.0264893   7.1726933
  22.8382702  48.6489983  78.7326279  22.8873005  48.0645561  79.4891052
  22.5563583  49.4883423  79.0962982  85.0982437  30.3661518  35.8512993
  84.7683563  30.6094246  34.9863014  85.9196548  29.9077415  35.6741524
  46.8533936  19.4879017  68.5712051  46.3982010  19.8436394  67.8079987
  47.2671967  20.2484646  68.9793015  18.4812469  43.9106789  24.9496422
  17.7829113  44.3705177  24.4836941  18.5281506  43.0537643  24.5256996
  72.8859711  66.8222122  21.2629089  73.3167953  66.4588776  22.0366135
  72.7123337  66.0628128  20.7066708  14.0084467  35.8560448  40.7165909
  14.5733051  35.0866432  40.7886162  13.5143976  35.8680496  41.5363464
   0.6763017   0.3888405  24.9134140   0.3103724   0.0516977  25.7311325
   1.4737465  -0.1232044  24.7787914  46.1174927   4.1990438  28.9961376
  47.0741425   4.1897893  29.0272732  45.8471794   3.7825007  29.8144627
  75.7894440  57.3844604  44.9044304  75.1012268  56.7378540  44.7479324
  76.4784393  57.1567726  44.2801857  35.2992058  38.4164810  62.6503105
  34.9571648  37.6518364  63.1135139  34.6122551  38.6440544  62.0237808
  67.4151077  61.8941879  77.4176712  67.1119995  62.6393318  77.9364395
  66.9913864  61.1351662  77.8184052  48.9542885  47.1423607  24.4502258
  48.3064995  47.4520340  25.0832367  49.2185211  46.2830391  24.7788372
  71.5715714  64.6616898   6.5158339  71.9959869  64.3565216   5.7139783
  70.7203979  64.9901276   6.2262311   7.4345050  61.0183144  40.9680405
   7.3527737  61.8084831  41.5020638   7.2223315  60.3018875  41.5663261
  79.7384415  40.6789360  49.5958900  79.1348419  40.3751488  48.9179382
  80.5467148  40.1930237  49.4321594  20.3752899  13.5622501  53.7720108
  19.8399258  13.7393284  54.5454826  20.7862415  12.7170324  53.9535522
  48.8629417  23.2599525  58.0419579  49.1031113  24.1444740  57.7659721
  49.2478867  22.6888294  57.3772278  32.1102638  22.3814869  80.0722198
  31.2903843  22.6212368  79.6402969  32.2511673  21.4668026  79.8278198
  48.8841438  38.2750053  89.2762299  48.6023102  37.3607674  89.3073578
  49.5735168  38.2906570  88.6123352  17.5279617  67.2694473  29.0522232
  17.5131359  67.8103104  29.8418274  17.0632744  67.7897110  28.3967724
  39.7458305  70.7623291  73.0522156  39.7068253  71.7029190  72.8790283
  39.4102859  70.3574142  72.2524109   0.9900323  18.1884193  68.1559753
   0.4856857  18.9739017  67.9441223   1.8216537  18.5214691  68.4931946
  10.9340677  34.4015846   3.2182996   9.9928913  34.4343414   3.3896041
  11.0427303  33.6639442   2.6180406  22.2426167  69.2424316  28.6350327
  22.6585522  69.1085892  29.4866867  21.4657993  69.7674561  28.8277359
  74.5295563  21.8454762  85.1591263  75.3757172  21.4341145  85.3352661
  74.3091125  21.5685501  84.2697754  30.4845715  58.0269699  84.0846176
  30.4018154  58.8800545  84.5107956  29.5936737  57.6770821  84.0740433
  19.7145863  46.6965904  55.2033424  19.7400417  45.8506050  54.7562561
  20.3559132  46.6139069  55.9091034  73.2837906  19.5151138  76.1074524
  73.1055069  18.7985382  75.4983826  74.2355423  19.6151562  76.0875702
  24.9189129  30.7944698  63.9688072  25.7310467  31.0612526  64.3994980
  24.9784298  29.8406315  63.9151039  72.2326889   4.7954693  84.1547241
  71.8302383   3.9605138  83.9157410  71.5097275   5.3200221  84.4988327
  50.9372749  64.4098663  73.3595810  51.3470688  65.1502457  72.9122238
  51.6652107  63.8258400  73.5723038  83.7621689  22.0137615   7.6025763
  83.4968262  21.6783886   8.4589348  84.3532181  22.7397118   7.8022990
   5.7468848  14.1670647   6.5286412   6.1952438  13.9728994   5.7055335
   6.3061285  14.8136129   6.9592838  85.2441025  70.0771179  60.7037926
  86.1863937  70.0756302  60.5354919  84.8568802  70.4120331  59.8950157
  29.9582272  51.9178886  35.1022415  29.0384521  52.1722260  35.0276871
  30.1533775  51.4794502  34.2740364  71.3923950  64.2504883  79.3141785
  70.9495850  64.1345978  78.4735107  72.1913757  63.7289009  79.2379303
  81.3145981   1.2349935  41.6819267  81.1036377   2.1686273  41.6746407
  82.0747528   1.1657103  42.2595062  79.0175095  62.5353088  52.7350540
  78.4676666  63.0057297  53.3616371  79.8271484  63.0445213  52.6973457
  50.8263092  10.5393620  72.1853027  50.4811211  10.5471592  73.0780563
  51.1912537  11.4156237  72.0619507  38.9939346   4.3135962  21.7525673
  39.0764313   5.0957932  22.2980900  39.5349579   4.4987879  20.9849548
  78.4799957   4.2393098   6.1854687  78.0776901   4.6050267   5.3976645
  77.7538147   3.8333502   6.6588573  82.5689621  11.6429996  23.1584148
  82.7331619  12.4913235  22.7465687  83.0749741  11.6690674  23.9705143
  86.9016266  32.5063057  27.5106392  86.0321045  32.2779045  27.1820183
  86.8316040  32.4101181  28.4604168  14.2797585  40.5267410  41.3279152
  14.0903683  40.7358780  40.4132423  14.6752157  41.3245621  41.6791000
  28.0902691  48.0688972  31.8594112  27.4131985  47.5539894  31.4204617
  27.9587440  47.8928871  32.7910500  34.4558563   9.1358185  14.0601759
  34.2038116   9.8363705  13.4585667  35.3287201   8.8723431  13.7687607
  74.0328674  58.8027916  67.5866318  73.2298355  59.3170738  67.5037003
  74.3425980  58.6956062  66.6872940  80.2843323   0.6013361  19.6658516
  80.1102142   1.4962598  19.9574451  80.8622284   0.2388140  20.3373032
  82.5772018  54.6455193  76.0682831  82.0494843  54.2288628  76.7495575
  82.0001144  54.6792297  75.3053589  45.1915855  37.0920868  61.7403831
  45.7252960  37.8591499  61.9477501  44.5422821  37.0551109  62.4427147
  49.7359047  23.1387596   9.8220682  50.1563873  23.9960938   9.8884048
  50.4513206  22.5361938   9.6187859  30.5909386  62.6336441  43.2870789
  31.3645477  63.1163025  42.9958725  30.0552197  62.5419159  42.4991570
  31.7247086  47.4038315  61.6767998  31.8338184  46.5638466  61.2309837
  32.3700027  47.3854828  62.3835487  14.6427975  68.5568085  10.0108995
  15.1821966  69.3411407   9.9104090  13.7848568  68.8109665   9.6709442
  67.3647842  24.7511024  79.2036667  68.0486755  25.2215729  78.7270355
  67.2048340  25.2848263  79.9819946  59.2749176  31.5478706  50.0042114
  59.9204750  32.1817741  50.3167038  59.7405663  30.7115688  50.0050850
  59.0487862  53.0747337  66.1948547  59.5049973  52.5068665  65.5738602
  58.5468292  53.6764069  65.6450729  51.6453667  58.4306717  14.8039026
  51.1210670  57.9166260  14.1898184  52.3498573  57.8399277  15.0702620
  44.3061295  36.1168289  19.1131287  43.8507423  36.9551430  19.1910992
  43.8169479  35.5245056  19.6841679  41.0572128  64.9228897   6.5643291
  41.9362755  64.5634003   6.4449692  40.8243294  64.6925278   7.4637351
  48.1771965  57.3076859  55.6545410  47.3946953  57.7591133  55.9709778
  48.6229134  57.9552422  55.1084251  82.3034058   3.7930765  10.4504480
  81.4616318   3.8881464  10.0047836  82.2233505   4.3391008  11.2325487
  45.6840134  36.3799324   2.3230300  45.9535255  35.9670639   1.5025812
  46.1574020  37.2117195   2.3393941  46.8594055  62.6047325  31.8165817
  46.0902100  63.1726074  31.8622704  46.5259590  61.7324486  32.0267410
  10.1233740   7.4299231  87.2938461  10.8573475   7.2645779  86.7020874
   9.7927551   6.5591559  87.5144958  54.3996735  33.2775383  68.5790176
  54.9212418  32.5752068  68.1905212  53.5421791  32.8814240  68.7340317
  47.0590134  21.3541908  72.6428909  46.3859520  21.9485779  72.3113403
  47.2550354  21.6803741  73.5211945  78.0869370  34.0146599  14.9715605
  78.8490753  33.4711533  14.7716255  77.4545670  33.4080391  15.3567286
  64.0470123  53.7846336  71.3795547  64.0080414  52.8938980  71.7278290
  64.5404587  54.2769356  72.0355835   1.3931111  64.6103210  39.1658554
   0.8042736  64.6485901  38.4121742   1.7352558  63.7164001  39.1573410
  52.8201790  38.9262466  53.5902901  52.3339844  38.2283859  53.1511574
  52.7404747  38.7237473  54.5224228  70.2053528  58.1159210  68.1570740
  70.6295776  57.7940331  68.9524689  70.2532043  57.3808441  67.5458374
  36.4131088  57.7548981  61.9865532  36.6285133  56.8223953  62.0032005
  36.1423225  57.9220848  61.0838051  59.2783890  25.2783852  35.0930786
  59.3353157  24.7285767  35.8745499  58.8796234  24.7133980  34.4312553
  48.9474411  67.6902084  46.7581520  48.9569817  67.4231033  45.8390236
  48.4577675  68.5126572  46.7634964  61.6431389  38.7862358  62.0289078
  60.8788109  38.2100220  62.0257568  62.2579536  38.3718910  61.4234695
   3.4897563  70.0269775   0.9501090   4.0862875  70.7362823   1.1894220
   2.6883864  70.2125702   1.4395916  65.4846039  52.3495102   7.7179103
  64.7402115  52.1637306   8.2902756  65.0900269  52.5489502   6.8689303
  20.1407509  69.7315216  72.3330841  19.4292278  69.7256851  72.9733429
  19.9060135  70.4285660  71.7204971  75.9242859  38.3093643  71.5394058
  76.6080780  38.5500946  70.9143448  76.2447205  37.5046425  71.9468079
  10.6141834  40.9182701  13.5008545  10.8701429  41.4540482  12.7500820
  11.4340019  40.5340881  13.8115520  61.2882729  32.5677719  73.7128525
  61.9655418  33.1579056  74.0434265  60.5842972  33.1487236  73.4245071
   2.3346348  34.2245293  60.9632988   1.4337846  33.9477005  61.1308250
   2.5709791  33.7882385  60.1447487  84.7519836  30.2465897  24.0469379
  85.2182617  30.4715462  23.2418213  85.1960373  29.4624882  24.3697815
   0.2484197   7.4461079  52.6506767   0.8342691   6.7149625  52.4546165
  -0.6255361   7.1147680  52.4441643  14.2683277  31.0336952  72.2225266
  13.9052744  30.1490078  72.2643661  14.7532167  31.0548363  71.3974991
  46.8511772  32.1774750  22.9316006  46.1204834  32.0775414  22.3214092
  47.4761047  31.5013752  22.6697121   5.4950523  21.0879345  77.1572418
   4.7013254  21.5242329  77.4668732   5.8599896  21.6879520  76.5068283
  65.9326782  41.3947601  58.6897278  65.7311707  42.3305054  58.6870613
  66.0223770  41.1664352  57.7644958   2.8024249  69.1855927  57.0684166
   3.0533020  68.3940887  57.5446739   3.4734869  69.8275375  57.3003998
  44.4325371  46.5482635  84.2762146  44.8117142  46.0611649  83.5446396
  44.6504822  46.0275536  85.0492554  69.6626587   0.9973682  11.1266155
  68.7125626   0.8825753  11.1457243  69.7894745   1.8926684  10.8126287
  83.8010406  55.6921196  36.7797394  84.1100464  55.3067665  35.9598312
  83.2154007  56.3983269  36.5067253  78.6164627  48.5504494  52.4859657
  78.8275757  47.9302635  53.1838455  79.4632645  48.7731972  52.0992470
  26.9086838  26.0311527   1.7311350  27.8430252  26.2275925   1.7993206
  26.8744488  25.0947285   1.5357573  27.4112129  62.7581177  61.9865036
  27.3919601  62.8337784  61.0324936  28.3122749  62.5062180  62.1886559
  36.3305130  55.3821106  87.2018814  36.4338303  54.9606628  88.0550766
  35.8727989  54.7328262  86.6678772   9.7803698  31.5512409  52.9348869
   8.8771505  31.4332561  52.6407661   9.8223829  31.0876846  53.7712975
   7.0489402  53.0109596  13.4040146   7.5612335  52.3546028  13.8762293
   7.4553356  53.8455238  13.6376295  59.2090454  45.8436775  81.1439590
  59.1104622  46.5993462  81.7231598  58.6064873  45.1898994  81.4985428
  17.4140568  62.0847244  24.7976379  18.0637474  61.8247604  24.1445293
  17.2126942  61.2768631  25.2699165  71.5117722  12.1932821  52.6656532
  70.6074219  11.9595165  52.8748055  71.7665787  11.5752773  51.9805450
  77.0367813  45.0808258  44.6875992  76.8377533  45.4381371  45.5530205
  77.1266174  45.8504410  44.1255913  74.9486008  40.2392426  23.2615337
  75.5513687  40.9135094  23.5750160  74.1393509  40.3965187  23.7479572
  12.7936535  32.3923340  83.7443237  13.0665979  31.4870052  83.5956268
  13.1454639  32.6098518  84.6075439   5.6782370  33.6288109  17.0191784
   5.1701355  32.8912468  16.6814404   5.5614114  33.5855408  17.9682369
  70.0234604  22.3990593  25.5167198  70.3944778  22.3918018  26.3990593
  70.0559845  21.4846210  25.2356911  74.9789810   2.7661011  42.5488739
  74.4819794   3.3202157  41.9470596  74.5842972   1.8988823  42.4572830
  75.9235458  50.1347542  63.4465981  75.8670883  49.3440323  62.9101219
  75.6146622  49.8608322  64.3101883  84.8624115  33.7649803  63.0448875
  85.1087723  34.5342026  63.5585327  85.6352463  33.2009010  63.0726166
  78.2049637  47.9118118   2.6075065  78.1404190  48.8269958   2.8804638
  79.0136032  47.5976753   3.0120506  63.0467300  23.4906845  30.9163284
  63.6148338  22.7204113  30.9292793  63.5868149  24.1801586  30.5301056
  24.8171406  56.2825012  20.4679604  25.3946590  56.6506577  19.7992554
  24.3192825  55.6062660  20.0085335  72.4107742  53.7600098  62.8514481
  71.8019028  53.1619148  62.4181061  71.9280396  54.0837479  63.6119652
  49.2673721  65.9316483  29.5691013  49.2791939  65.3993378  30.3645535
  48.3519325  65.9242783  29.2895622  14.7750626  22.0053482  81.3826218
  14.5226498  21.4295330  80.6608429  15.7170877  21.8670826  81.4811249
  69.8277740  24.6323376  64.0759506  70.5800095  24.8490753  64.6267624
  69.8298416  25.3030109  63.3929977  57.1870155  46.5729218  40.0962448
  57.0493889  47.3240623  39.5191193  57.0676956  46.9239006  40.9787483
  13.9617567  39.2667961  37.4043236  14.2795019  38.6185837  38.0328865
  13.0690737  38.9867439  37.2020378  24.1213284  10.6082315  45.6114540
  23.4093647  10.0164757  45.3682213  24.9179211  10.1397800  45.3620033
  53.2883301  66.5115051  22.3817463  53.8417282  66.1992798  21.6658592
  53.2082596  67.4531097  22.2294273   8.9558783  37.3031502  62.5735588
   9.2540359  36.9517822  63.4125290   8.0955467  37.6776161  62.7628746
   9.3943558  48.6684952  68.7445526   8.7618532  48.5200195  69.4474945
   8.9764404  48.3024750  67.9650574  32.2144432  65.2012253  12.8013411
  32.1247711  64.8284454  11.9242868  31.3341427  65.1513824  13.1739283
  60.3869858  19.1491356   8.7791710  60.6578140  18.6081715   8.0373898
  59.5949669  18.7244968   9.1087475  31.1087322  59.6822090  59.8278885
  30.3159924  59.3275757  60.2304192  30.8433895  60.5371895  59.4890175
  17.2075920  49.7613449  29.5496922  16.9876499  50.4550972  28.9279461
  18.1573524  49.8232079  29.6514759  86.4442596  59.9743919  40.9257622
  85.5270309  59.8823357  40.6679840  86.6654510  59.1344681  41.3280411
  40.1799507  25.4634895  16.5005493  40.3936119  25.1152611  17.3661804
  39.4886665  26.1049843  16.6643906   3.9029596  49.4991074  56.0100441
   3.4501548  50.3421898  56.0303421   4.5800228  49.6068993  55.3420639
  13.9406395  69.5666351   4.4748154  13.8255701  70.4090424   4.9145103
  13.1596746  69.0653534   4.7094307  12.3622227   9.4844971  28.7264271
  12.9752331   9.1903486  29.4001694  11.5626955   8.9863005  28.8960972
   9.2842379  41.0595932  18.8024254   9.9572182  40.5937271  19.2987099
   9.7513857  41.4274254  18.0522881  16.2886009  54.5894279  56.1742821
  16.3795395  53.6366768  56.1894112  15.3439493  54.7404137  56.2069931
  74.7488708  27.9727192  75.0756607  75.6957321  27.8645573  74.9863358
  74.5856552  27.8878021  76.0150146  23.4250660  39.7636299  13.3751440
  24.2243366  39.3758469  13.7315435  23.6300278  40.6942520  13.2847948
   1.7608258  45.2117348   8.1496124   1.7461807  44.8092422   7.2812696
   2.5873239  44.9204636   8.5347023  37.5252075  66.3655853  54.2893219
  38.1415901  66.1065216  53.6043510  36.6768913  66.0466843  53.9812660
   0.4209118  43.3113174  75.2508469   1.2192677  43.5730133  75.7095108
   0.4709002  43.7610855  74.4073792  54.7875595  47.0316086  69.9425354
  54.2610931  46.2323036  69.9292908  54.4595871  47.5466652  69.2053909
  49.9267883  63.6986465  49.1875191  49.6169586  62.7936249  49.2217789
  49.1832695  64.1934738  48.8432083   9.0759497  31.7401657  17.1946945
   9.0181227  30.9577198  17.7430267   9.6647882  31.4905624  16.4825153
   4.1767030  67.5038757  58.5689888   5.0952477  67.3423004  58.7843971
   3.7337906  67.5353622  59.4169655  69.7985611  70.9087677  20.6948280
  70.0163193  70.0053864  20.9244194  70.1511612  71.4307175  21.4155750
  61.5928383  29.3293056  60.6460495  61.6203918  28.5186119  60.1378708
  62.4116898  29.7754059  60.4299316  23.4329624  14.6360464  14.8801260
  22.8744850  14.7708759  15.6457348  24.3204479  14.7996197  15.1992540
   1.1850660  15.4137697  69.8252869   0.4956575  15.6265364  69.1962509
   1.4524914  14.5238380  69.5956421  47.3669319  23.2959003  85.4756470
  46.8055687  23.4690170  86.2313766  47.7191467  24.1534824  85.2374649
  18.8384190  29.3922787   4.4066911  19.4338799  29.4832840   5.1505837
  18.6120453  28.4623260   4.3934712  30.0143681  39.9514313  81.3849792
  30.4004841  40.7727165  81.6893539  30.3596134  39.8381615  80.4994278
  22.0185204   6.8503509  60.8268814  21.4108849   7.4449816  60.3870811
  22.5391445   6.4725423  60.1180496   3.2770977  47.8316116  44.9674835
   3.1550453  47.6511955  44.0354004   4.2032385  47.6500893  45.1273117
   6.2126827  29.6759567  24.7907810   6.6680570  30.4884472  24.5700397
   6.9096637  29.0741310  25.0520382  41.8378525  16.2532806  78.5765915
  42.1235962  15.4380751  78.9889374  41.2471695  16.6510048  79.2162323
  22.9951611  43.5465431  48.1211662  23.3443069  44.3314171  48.5434189
  22.9526062  42.8962135  48.8222313  68.7204666  28.1705227  71.4919815
  69.4417725  27.5975742  71.2318192  67.9795380  27.5786953  71.6223297
  51.0300446  16.6020565  88.4159317  51.3451576  15.9551764  87.7846832
  51.0284309  17.4279175  87.9320068  39.8399124  43.4554901  24.6020470
  40.0921745  42.7031822  24.0666733  40.2635498  44.2027893  24.1797810
  58.9598007  31.2057495   8.9141130  58.5556831  31.5554905   8.1200085
  58.2773895  30.6651707   9.3120098  52.2928429  62.8462448  44.2133293
  52.3219109  63.7674561  44.4717064  52.1218567  62.3741913  45.0282898
  83.6555405   7.0304475  74.9392014  84.4491425   7.4540286  74.6120911
  83.3558578   6.4875703  74.2100220  22.9157848  43.4180183  56.1856194
  22.0814991  43.4116936  56.6548309  22.8624363  42.6689720  55.5920601
  55.9849014  66.3790894  27.4398899  55.9001579  67.2389221  27.0278873
  56.4470978  65.8474731  26.7918243  56.6639786  12.0242176  36.5414581
  56.2389488  11.6127558  35.7889404  56.4229698  11.4711838  37.2846260
  37.6183853  14.0328894  14.3093338  38.0794144  14.5119314  14.9979582
  38.1419945  13.2428665  14.1754370  46.7250214  37.2254333  35.1777229
  46.1965523  37.3984489  34.3986092  46.8859901  36.2821808  35.1533356
  21.1647873  22.9329433  22.2541256  20.4341316  23.0411320  22.8629494
  21.2365360  21.9862938  22.1318913  64.1068420  35.3845215  22.3256741
  63.3241653  35.6291733  21.8319206  64.0378418  34.4354286  22.4291019
  85.2011261  27.0347462  41.7561340  85.8393784  27.7459507  41.8113785
  85.1439896  26.8362675  40.8214798  44.4984703  30.6470680  29.2805824
  45.1459465  30.3248310  28.6535473  44.3499527  29.9092484  29.8720169
  40.6145325  60.0461273  76.1550980  41.1433220  60.6522141  75.6361847
  40.9578590  59.1800880  75.9352493  84.4173431   9.6075439  43.5568810
  83.8556824   8.9889221  44.0238724  84.0715179  10.4688425  43.7909889
  86.7673798  51.1423607  32.2593117  85.8353348  51.2766495  32.0876083
  87.2026749  51.4304047  31.4569511  82.6723938  58.1496010  35.8424950
  82.6493607  58.4900589  36.7368050  81.7629013  58.1910057  35.5469551
  85.5971298  40.1739845  87.5424805  86.1464996  40.5623550  88.2233582
  85.5101318  39.2560616  87.7995377  24.8944378  33.1902084  17.2983494
  25.5975933  33.5052452  17.8662910  24.1145496  33.2029228  17.8531876
  10.4771156  17.7199993  13.7789621  10.3558464  16.9819241  14.3762636
  10.9781380  18.3587360  14.2861328   1.3805195  28.8742962  20.8503132
   1.4176061  27.9949207  20.4740753   0.7752677  28.7940712  21.5875149
  32.0898857  54.2666473  59.5473900  31.2581100  53.8042984  59.4443817
  32.0522156  54.6334839  60.4307060  21.1702709  18.7094517  72.6941757
  21.9202003  18.6782646  73.2882004  21.4769630  18.2751045  71.8982391
  43.0860405   1.4589652  60.6884117  43.1624260   1.5017515  61.6416016
  43.5750275   0.6732334  60.4439774  10.8647795  21.7458286  30.8455009
  11.0376883  22.5618591  31.3149967  10.0780287  21.9273682  30.3313999
  37.2985115  52.1465073  46.2979736  36.9826241  52.6983185  45.5824661
  36.5146980  51.7032089  46.6225548  58.6343918  56.7021027  36.9222221
  59.4277039  56.1881638  37.0730591  58.7114830  57.4434471  37.5228004
  71.3447495  27.8064117  27.2383671  72.0777969  28.3954811  27.0598526
  71.7256622  26.9294434  27.1929588  21.5237503  43.9147835  59.3448601
  21.8743095  43.0408669  59.1727905  20.6395321  43.8944969  58.9788284
   7.1744003  39.6229095  81.4245987   7.2635570  39.9473152  82.3207245
   6.7932611  40.3559837  80.9413071  76.7795792   0.2731882  19.5961266
  76.9851761   0.7872475  18.8152905  77.0872421  -0.6093999  19.3896980
  72.0264435  31.2186165  19.5889397  72.8732452  31.5103531  19.2512436
  72.0671692  30.2633076  19.5446835  27.5280952   5.5410705  17.6745605
  27.7079144   4.9442472  18.4009876  28.2214642   6.1988287  17.7277298
  34.9252586  36.1323891  26.0523090  35.2496948  35.3654900  25.5802498
  35.2116508  35.9965363  26.9555016  49.0706940  59.9686775  14.8873739
  48.8100548  59.6451569  14.0250320  49.9077835  59.5384026  15.0616522
  42.7366409  39.8610802  26.1688099  41.9916954  40.1989708  25.6717033
  42.8799629  38.9821663  25.8178120  28.6896019  70.0524063   5.9029632
  28.1018391  69.3530884   5.6170955  28.3552208  70.8381042   5.4704108
  69.8646088  49.6918755  76.2932434  69.6990509  50.3069458  75.5787430
  69.6657028  50.1880112  77.0872955   3.6943336  59.5789680  77.3341827
   2.8815510  59.5858269  77.8397217   3.4108047  59.4712868  76.4263000
  15.8072309  38.0177803   1.8905377  15.2186565  37.6097870   1.2554353
  15.5760698  37.6122971   2.7262292  67.5774841  70.2583466  14.1475506
  66.8906937  70.2014771  13.4832306  67.1221924  70.5465622  14.9386730
  32.7352104  60.9704132  18.5878239  33.0415459  61.2529182  19.4495544
  32.6392059  61.7821808  18.0897789  15.2865686  42.7735405  70.3870926
  15.9720793  42.1410332  70.1720581  14.4723520  42.2738037  70.3275452
  51.3713684  59.5454826  67.9755173  52.1526146  59.9862366  67.6414185
  51.5942726  58.6148186  67.9552002  13.0172634  40.1824989  33.5640144
  12.4232349  39.4593849  33.7651825  13.8289108  39.7562218  33.2887917
  31.4721165  59.3082161  71.5017624  31.0249100  60.0097351  71.0283585
  31.3131371  59.5032883  72.4252853   2.7317030  16.3389301  10.9667082
   2.2068019  16.6497955  10.2290955   3.0790119  15.4959726  10.6751060
  13.8267212  57.7608299  61.9907761  14.5378170  57.1817055  62.2649841
  13.1549635  57.6504745  62.6636772  29.4084587  31.7286301  69.0979233
  29.5305977  32.4018936  68.4285736  29.4627895  32.2030258  69.9275131
  55.9818764  24.5025177  79.6592102  56.0475845  23.6071968  79.9913406
  55.9945259  24.4062557  78.7069473  68.7671204  36.9628029  86.1760101
  69.1618118  37.6958580  86.6483231  69.4520340  36.2944412  86.1555939
  55.4468346  67.7111969  73.8126831  56.0354767  67.4567795  74.5233231
  54.8099403  66.9984055  73.7624435  60.5241241  64.4419861   1.7453521
  60.3761139  63.5010643   1.6505228  59.8724709  64.8459091   1.1722703
  55.6317215  53.7544518   4.3496571  54.7671776  54.0125046   4.6693544
  56.2377777  54.3493233   4.7913084  61.1049690  67.3946304   8.8146544
  60.9155540  67.3797607   7.8765001  60.6523170  66.6263428   9.1625996
   4.8502336  52.0602684  71.5019608   4.1487865  52.1695099  70.8598785
   5.6358490  52.3741570  71.0541763  31.8798828  24.8145733  85.6682816
  32.0030022  24.7425137  84.7217712  32.3596649  25.6059799  85.9126587
  74.6899338  16.7641621  32.9592171  74.9892044  16.1501484  33.6297836
  75.4875031  17.0206852  32.4962730  63.1612625  12.0507746  61.1536598
  62.4869423  11.9188824  60.4872284  63.0419617  11.3219662  61.7626228
  45.9123497  62.3355713  24.6215744  46.2465363  61.7043228  25.2588158
  45.0649300  61.9799385  24.3539219  23.7317314   9.3552580  32.5652275
  23.9888763   8.4739666  32.8362122  24.2282124   9.5133638  31.7622681
  72.6502762  17.2218819  18.8691025  71.9600830  17.7506371  19.2694607
  72.7790756  17.6112823  18.0042267  40.0797119  39.4950790  28.7472858
  40.7968597  40.1169281  28.6238499  39.5638618  39.5618019  27.9437447
  51.7735405  14.3238211   8.4870348  51.9076462  14.5987854   7.5800381
  50.8986435  14.6435642   8.7073784  13.9910345  25.7389317  79.3670959
  13.9913216  26.4039478  78.6786270  14.9136686  25.6345482  79.5996552
  24.1654606  25.2243099  11.9580288  24.4747486  25.0009575  12.8359165
  24.8801060  24.9611492  11.3781500  80.8905182  28.0645485   3.0706151
  80.2681351  27.3755264   2.8379900  80.3498459  28.7579556   3.4488885
  40.5255737  67.5662918  31.1425323  39.8393669  67.1794128  31.6862946
  40.3095818  68.4982834  31.1114349  61.1984673  23.1679459  46.2739410
  60.4244080  23.5660744  46.6721306  60.8861694  22.3325520  45.9263535
  17.3683357  49.4485168  72.7196579  16.4502201  49.4164314  72.4508362
  17.5551376  48.5660095  73.0398331  60.4229012  46.6551819  73.1771851
  60.1823425  46.5927620  72.2528152  59.5874176  46.6361160  73.6439133
  41.4087257  30.6763153  66.5452957  40.6299477  30.6838131  67.1017838
  41.1223145  31.0820637  65.7270279   5.3661623  39.8624344  85.7744522
   4.9074774  39.2416344  85.2083664   5.2844319  39.4911003  86.6528931
  41.0783539  50.9444008  33.8942566  40.4529266  51.5439529  33.4873009
  41.5171356  50.5194893  33.1572685  12.7228022  59.5022087  50.4248924
  12.9519463  60.2621956  49.8899689  12.2768192  59.8714981  51.1870956
   2.1403985  38.5098648   0.5283276   1.3028834  38.0542603   0.6133310
   1.9016463  39.4130325   0.3197277  40.8243141  61.8049164  39.6297340
  41.1904221  62.0127068  38.7700729  41.4995728  61.2775536  40.0565262
  51.8032341  22.0157413  54.0402603  51.4251785  21.7571487  53.1997643
  52.3857613  22.7446499  53.8267479  17.2621517  41.6339951  12.8304777
  17.3528156  42.4157066  12.2855539  16.3666611  41.6782532  13.1656942
  19.8930683   3.8386736  69.1393204  20.2174416   3.8833263  70.0387726
  20.3856468   4.5142336  68.6732483  63.7314644  27.4752827  78.3250580
  64.0623856  26.8298607  77.7004395  62.8121033  27.2393055  78.4488678
  20.7661152  14.5097008  85.9986801  20.7728558  15.3174715  86.5121918
  19.8417912  14.3597269  85.8002701   2.1738858  47.3578529  22.9017067
   1.3011941  46.9999809  23.0647011   2.6951058  47.0685425  23.6506138
   1.9373932   0.7752526  39.3097420   2.7257249   0.2413455  39.2112122
   1.4343338   0.6089887  38.5125504   0.7115412   8.9282427  29.4411964
   0.8831797   8.2490358  28.7889309   0.6551231   9.7382736  28.9343452
  22.7559643  31.7495651  29.6560650  23.5742321  32.1124268  29.9951839
  22.0716457  32.1897316  30.1602421  48.8457985  31.2351933  53.5954399
  48.0577126  31.5906754  54.0062790  49.1344681  31.9232140  52.9958305
  78.2703552  51.8259621  52.3644905  79.0199814  51.5522346  52.8930435
  78.5712585  51.7407265  51.4598274  50.9899178  44.2292938   8.1747923
  50.5623741  43.5104599   7.7092671  50.3937683  44.9707909   8.0697994
  70.7970963  31.2082138  88.5913086  70.0134735  31.7431221  88.7179489
  70.9275513  30.7714558  89.4330063  62.3453789   7.5957737  33.5006332
  63.2825508   7.6719317  33.6799240  62.1702881   8.2745409  32.8488312
  23.2624817  63.8324585  25.0950756  22.9181957  64.3374329  24.3583927
  22.4872665  63.4510002  25.5070972  32.6977158  45.9177933  76.5766296
  32.6037064  46.3214951  75.7138367  33.5916824  46.1306038  76.8445129
  83.5022125  41.4487572  24.5978661  84.1009064  42.0446053  25.0481606
  83.1722260  40.8737679  25.2883186   3.3491554  46.4716721  12.8970222
   3.4385762  45.5188217  12.8794041   3.4662635  46.7062454  13.8176165
  58.7723083  67.2820358  46.3326454  58.6393051  66.6265488  47.0173950
  59.7057266  67.4892654  46.3775177  41.8064995  52.5057793  20.7056656
  41.6742287  51.8366814  21.3772640  42.5662880  53.0027046  21.0090179
  74.1685486  22.9989986   1.6478266  73.5157318  22.5566502   1.1052525
  73.8056946  23.8724709   1.7948362  15.9775982  35.6842308  26.5149040
  16.5694637  36.4363556  26.4996376  15.7056637  35.6119766  27.4298153
  58.4007607  45.1014328  31.6063328  57.8077011  45.5688934  31.0181198
  59.2759552  45.3717766  31.3285275  68.9912720  18.1624870  22.5540390
  69.9323196  18.3015175  22.4476376  68.9143753  17.2518635  22.8387909
  46.9188995  67.4418106  42.8617744  46.7035942  68.2537460  42.4028358
  47.5444794  67.0005417  42.2871704  76.6783142  43.1740685  62.8886833
  77.1754303  43.4160843  63.6700516  75.7799072  43.0652733  63.2005501
  18.5033321  26.1323509   1.2834144  17.9114742  26.8037415   0.9440417
  17.9243793  25.4789276   1.6759499  16.7730331  23.9563999   7.7645388
  16.1679115  24.2554436   8.4432383  16.2447662  23.9315472   6.9666982
   0.3593451   8.1631689  44.5270233  -0.2542845   7.8143201  43.8804970
   1.1698046   8.3025894  44.0371742  13.6396742  46.7570953  42.3145370
  13.6555710  46.8444633  43.2676086  13.1900215  45.9267845  42.1576004
  64.0372620   6.5933480  10.8380251  63.4852257   6.0278125  10.2979679
  63.8963699   6.2823186  11.7322521   5.4669094  49.4696884  73.0698929
   4.7108908  48.8955002  73.1922684   6.1850796  49.0177841  73.5128937
  27.1267319  26.7797775  76.1726761  26.2201138  26.4756470  76.2148895
  27.0574837  27.7105598  75.9603577   1.4335291  39.0130768  76.2322693
   1.6359107  39.2263069  77.1432037   0.4965342  39.1893883  76.1474915
  80.0180588  54.2219200  15.4419289  80.2473297  55.0887260  15.7770662
  79.4934464  54.3981552  14.6609325  32.3712044  44.8214073  59.9137650
  33.0014496  44.1431084  60.1565323  31.5175838  44.3968201  59.9991646
  37.9070320   1.4154407  10.0028524  38.0634422   1.8777370   9.1794157
  38.7506104   1.4387261  10.4545841  54.4341125   8.9810238   1.8617288
  54.7585716   9.8797150   1.8041682  53.8408394   8.9882202   2.6128669
   7.6547332  57.6500626  55.3944206   6.7988319  58.0739288  55.3311501
   7.4591923  56.7563667  55.6760254   2.7015412  43.0548668  85.9726486
   1.9089708  42.7433548  86.4097061   2.9528384  43.8381538  86.4620743
  66.2208557  18.8164787  41.1465454  66.7456665  18.9700565  41.9321785
  65.3152847  18.9162312  41.4401627  63.6874542  41.1244698   3.1119287
  64.5053024  41.4799995   3.4597118  63.3481255  41.8160210   2.5437326
  84.2018738  62.3308983  29.9588032  84.2830429  62.4150925  30.9088326
  84.6793518  61.5285759  29.7477932  47.0318451  52.1870079  22.4041634
  46.6613960  52.1139946  21.5245781  46.7116013  51.4110336  22.8640995
  70.1973724  48.1817169  79.0255127  70.1385345  48.5317955  78.1365738
  69.4207840  48.5228043  79.4691391  80.2547455  28.2418156  55.3638191
  79.5427933  28.7895718  55.0331917  79.8230896  27.6080208  55.9367142
  25.4246178  69.6421585  24.9416275  24.7946014  69.9537430  25.5914192
  25.2996025  68.6933517  24.9225655  42.1220894  49.2974586  43.0564117
  42.3728867  50.2199364  43.0077515  42.9029350  48.8541298  43.3880310
  19.4332199  58.6674080  19.7586098  19.6863327  58.8919487  18.8632069
  18.4976025  58.4735107  19.7015457  72.3090286  48.3805046  49.7989006
  72.8108215  48.0002670  49.0778923  71.8832932  47.6313171  50.2156792
  83.3541794  43.4507980  81.7370224  83.5829468  43.7808990  80.8681564
  83.3055344  44.2337418  82.2855377  32.5247421   9.1766281   3.3210588
  32.9928474   9.0547848   2.4950659  33.0968246   8.7843924   3.9806843
  83.1112595  10.6882915  35.3281326  83.6963806  11.1147251  35.9542465
  82.9781647  11.3416414  34.6413612  36.8147774  42.2853317   9.1683578
  35.9099236  42.5407219   8.9887781  37.0184135  41.6358795   8.4953232
  81.9891052   7.3516607   8.1920719  82.5580444   6.6768923   8.5625172
  81.7950821   7.0421100   7.3073316  86.0717010  16.2806187  33.8737144
  86.8202286  16.3782406  33.2851562  85.9678497  15.3343906  33.9742203
  50.4867668  70.5786362  32.8703537  50.8402481  70.2138214  32.0590591
  50.6459541  71.5198135  32.7990799   5.0319242  30.7377148  27.1836567
   5.2478170  30.4172707  26.3079071   4.0768771  30.6906204  27.2272358
  82.8952103  39.7833939  63.5800667  83.4587936  39.8628197  64.3496780
  82.3283005  40.5537338  63.6178131  35.5911331  46.1404762  25.6218491
  35.9045753  45.4210510  26.1699505  35.8559418  45.8984299  24.7344265
  49.5193329  44.6227493  25.2164974  48.5970993  44.3754768  25.1488705
  49.9974556  43.8463135  24.9253368  71.2393799  33.2911110  15.1943274
  72.0746841  33.7514229  15.2756634  71.0210114  33.0311737  16.0893021
  40.9009285  54.9718437  83.0641403  41.0079956  55.8944626  83.2955399
  41.4803085  54.8445282  82.3129196  35.8640289  32.0727959  47.1995049
  35.1558037  32.7126503  47.1271515  36.3173447  32.3078041  48.0091362
  29.9814968  28.6066723  83.5782700  29.9180012  29.0218678  82.7181473
  29.7963161  29.3116016  84.1987686  23.2944317  66.4064636  69.5811081
  24.1792011  66.1972351  69.2817078  23.4252472  67.0159073  70.3075256
  60.7343750  63.8929329  47.7890701  61.5165443  63.9250603  48.3398972
  60.4233780  62.9910316  47.8670731  38.9562263  10.8569193  37.5219345
  38.1364441  10.5441780  37.9045372  38.9165344  11.8086920  37.6156654
  79.8769073  10.1109934  75.6370544  79.2459335  10.3429070  76.3184662
  80.4280090   9.4396877  76.0393906  55.5584030  14.6905260  35.7360039
  55.1212959  14.9164944  36.5570450  56.0280952  13.8793793  35.9300690
  47.4742393  18.5116348   8.4533978  47.0455360  18.1484070   9.2283258
  47.2765656  17.8871040   7.7554603   7.8728352  50.0342712  58.1841621
   7.2030225  50.7140312  58.2583733   8.2777939  50.0014191  59.0508614
  64.7113571  27.9202843  11.5649042  64.7104034  27.4858837  12.4178553
  64.6852264  27.2035084  10.9310417  72.4223557  68.0159378  30.4137402
  72.8903809  67.1897583  30.5346375  72.0073776  68.1822128  31.2601318
  56.6913643  51.2414093  55.5204048  57.4162827  50.6553535  55.7377930
  56.2478561  51.3935509  56.3549004  54.7125130  26.8214512   5.8061452
  55.3508568  27.1352482   5.1656165  54.9677582  27.2447681   6.6258307
  21.5208607  24.9745445  11.6475916  21.4162655  25.0769024  12.5935383
  22.4067154  25.2901516  11.4690304  82.6827316  27.6471996  22.3302917
  82.2067261  28.4415665  22.5724277  83.3219833  27.9396763  21.6806412
  78.7419739  46.4629135  22.7881241  78.7240448  46.5532188  23.7408867
  78.1996536  45.6945152  22.6101208  66.0671921  61.1588593  14.6069908
  66.8264694  61.6843910  14.8590746  66.3272934  60.7404938  13.7862902
  45.8210487  48.1300163  74.4913635  45.0263824  48.1189995  73.9578705
  46.2863579  48.9183807  74.2117157  56.0693779  59.4343414  52.1103516
  55.2436790  59.8472252  51.8574181  56.2134743  59.7199135  53.0125237
  60.1504059  68.7648315   2.4548361  59.7150612  68.1482468   3.0435076
  60.0970345  68.3515930   1.5930831  70.4616852  45.6122475  19.0618095
  71.2258301  46.1284103  18.8051014  70.1594925  45.2103806  18.2473087
   3.8653984  10.5092030  68.4458771   3.4410045   9.6757441  68.6495132
   4.7469802  10.4240780  68.8089142   9.3106575  49.9097099  17.9907150
   9.8114185  49.6541786  17.2160072   8.4058094  49.6823120  17.7767715
  26.9465504  12.8942528   9.8849888  27.1330833  12.0902796  10.3698235
  27.3783627  12.7699213   9.0398188  63.9505806  61.2329597  28.2283764
  64.3994827  61.6648102  27.5015869  64.6305313  60.7098846  28.6529865
  69.1936188  47.7888718  31.8762646  69.5595474  47.0030861  32.2823067
  68.3539734  47.9176025  32.3174667  39.9625969  44.2354126  17.6354408
  40.4964485  43.8930473  16.9184875  40.2593918  45.1388435  17.7447891
  67.0131607   4.1021161  65.7305069  67.3559036   4.9947329  65.7751923
  66.7602081   3.8973365  66.6306763  45.8064613  71.7908020  14.5494642
  45.4611130  71.0913925  13.9946718  46.2966118  71.3342056  15.2332077
  72.7532501   5.0442572  20.6337261  73.6645126   4.7896628  20.7787189
  72.3616486   4.2911544  20.1913300  43.9841537  22.2612495  87.4687500
  43.0530205  22.2821064  87.2478790  44.4078102  21.9063950  86.6871948
  21.0043697  59.3691254  71.4148636  21.7849045  59.7982788  71.7653275
  20.6131802  58.9297600  72.1699524  52.3987007  45.5877609   3.9960883
  53.2551460  45.5371895   3.5716181  52.5752144  45.3901482   4.9158845
  26.2709846  36.7749977  47.0846176  26.9323025  37.2633629  47.5749168
  25.5752983  36.6089516  47.7207642   5.8171735   3.6489959  29.2541962
   6.0769863   2.8964138  28.7228317   6.6296935   4.1352262  29.3942795
  25.2405396  32.4712601  31.0664597  25.5409107  32.8931770  30.2614784
  25.0224400  33.1975479  31.6505527  40.6115875  69.5718002  75.2870712
  40.2922630  69.9055557  74.4487000  41.5288544  69.8434906  75.3193130
  44.9130363  47.0829811  25.2460442  44.7444038  47.9027863  25.7104969
  44.2120361  47.0270309  24.5966625  31.8961334  61.4979477  28.4217987
  32.1536522  62.3497696  28.7743835  31.2550621  61.1630859  29.0487976
  65.4029236  24.4772930  24.5248756  66.0722046  24.0955296  25.0928135
  64.5923615  24.4069786  25.0291348  85.7827301  62.3037910  38.7774773
  85.7276535  61.5593147  38.1783485  84.8831940  62.6239662  38.8449745
  32.6249084   0.2851834  79.8851624  32.3250351   1.0894198  79.4614792
  32.2222481   0.3073152  80.7532730  61.8019638  39.5531731  66.8031235
  62.5563126  40.1213837  66.9590988  61.1014938  39.9342957  67.3325729
  78.2245560  48.5230064  56.2392426  78.4700851  47.8153954  55.6432304
  78.9999237  48.6569519  56.7842979   3.0621831  39.5616646  42.7836380
   2.8483810  39.2039452  41.9219170   2.2332385  39.5456734  43.2619972
  46.5305634  21.8303928  36.8094215  46.3849030  21.6696262  35.8771286
  45.8812561  22.4940014  37.0423470  68.4154282  20.6860123  21.5266571
  68.5286789  19.9767876  22.1594334  68.1777191  20.2440605  20.7115440
  64.4608383  40.1921349  18.2774010  63.6086426  40.1384811  18.7099609
  65.0672531  40.4450798  18.9734726  22.8945026   3.2355013  77.0549774
  22.8702240   2.2884684  77.1919861  21.9960423   3.5238743  77.2157364
   8.8024540  25.3753929  11.0973349   9.3998270  24.6595078  10.8808031
   8.4927416  25.6936741  10.2493925  70.0336456  38.9441185  49.8710518
  69.4383392  38.4248657  49.3304749  69.4921799  39.6598053  50.2039795
  60.9248123  46.5376472  43.8716011  61.0100822  46.9458618  43.0100174
  61.4637985  47.0795975  44.4478073  66.9959030  36.2358398   2.0468726
  66.0851669  36.2487755   1.7525549  67.4850388  35.8964577   1.2973399
  78.6953735  65.0303574   0.4216895  78.7265625  65.8189697  -0.1199279
  79.4816132  65.0818405   0.9652122   8.9493361  10.5702219   6.1181488
   9.3639107  11.0158548   5.3793864   9.4377003  10.8715115   6.8842802
  30.0818005  13.3251038   1.4818898  30.3967476  14.0399084   2.0351479
  29.3643990  13.7100658   0.9785286  46.5459900  65.9793854  18.6447525
  46.1281853  65.7964859  17.8031940  47.4080620  65.5686951  18.5784397
  42.9884491  57.4818001  85.8693771  42.1141624  57.8560143  85.7606583
  42.9731445  57.0866508  86.7410736  64.3283691  15.2335062  83.0565720
  63.4338150  15.0118113  82.7979965  64.8568878  14.4989958  82.7445068
  83.4448242  31.6109409  10.7908039  83.9052429  31.4705334   9.9634380
  83.6558990  32.5128021  11.0323124  81.6537399  41.4533234  22.5670223
  81.7432175  40.6486626  22.0563889  82.4031754  41.4437485  23.1624069
  53.0357208   2.1845632  38.0648804  53.2557716   3.0057535  38.5047150
  52.6363907   1.6463381  38.7483101   8.4072762  65.9535751  52.4365883
   9.3320265  65.7293015  52.5403671   8.3261681  66.8229141  52.8288918
  38.6814117  67.8069839  24.9946938  38.8456650  68.3578415  24.2293129
  37.7337608  67.8506546  25.1222878  63.6669769  63.0307655   4.7677536
  64.5475998  63.3083992   5.0200605  63.0889053  63.4747162   5.3882165
  84.0741653  62.2639809  32.7921600  84.4408569  62.9876556  33.3001633
  83.1594849  62.5089226  32.6521645  16.9372139  46.5887070  76.5141602
  17.8566551  46.7922440  76.3425980  16.5834274  47.3884926  76.9032822
  41.5854187  14.1503363  80.4332275  42.2070465  13.8971443  81.1156540
  40.7264061  14.0566101  80.8449936  47.1390457  46.6471863  28.4209194
  47.5022011  47.4369125  28.0200672  46.3139992  46.5013275  27.9580402
  61.8586769  67.3797150  13.7301273  61.4533730  66.5166245  13.8139820
  61.6918068  67.8054047  14.5710611  35.9989662  54.7538490  17.7687855
  36.9524765  54.6928329  17.8265152  35.8417053  55.4437752  17.1241932
   2.5152867  69.7172928  24.2930088   3.0859220  69.1849976  24.8473263
   1.8356850  69.1115265  23.9973278  82.0949402  46.0866470  63.2838631
  82.4238815  46.0868416  64.1827698  82.3844299  46.9244995  62.9227066
   5.9198203  33.7482452   1.9800985   6.2296033  34.3449135   1.2987391
   5.0824289  34.1181145   2.2597475   4.3458562  10.4273586  74.8154755
   4.2073584  10.7055960  73.9101334   4.7507291   9.5631886  74.7411804
  51.9512825  21.2812557   9.2404442  52.4323959  21.3201847   8.4138575
  52.6232605  21.3867702   9.9138975  67.1845703  66.6043625  18.6296654
  67.5955734  67.4653397  18.5520287  67.9164276  65.9997940  18.7525711
  84.3436127  27.4809170  25.0485172  83.9737396  26.6711102  25.4001331
  83.8326340  27.6541138  24.2578640  70.1464005  40.9533730  70.8053055
  69.9025726  40.7285652  69.9073944  69.4177322  41.4852142  71.1253433
  46.2397346  23.8128605  88.1652985  45.3963966  23.4238777  87.9335556
  46.0493736  24.3617268  88.9260483  57.5727654  55.2052460  18.1468582
  58.4218483  55.6416893  18.2162285  57.5825348  54.7986717  17.2803516
  42.7195129  36.2373924  45.6866684  43.6428185  36.4883537  45.6591263
  42.2484665  37.0662651  45.7722092  55.3231621  22.8680935   2.4251659
  55.9580307  22.3764725   1.9041239  54.4722328  22.5258942   2.1512215
  24.7945213  41.8733368   7.1738567  24.5253391  41.0815544   7.6395321
  24.1664944  41.9542198   6.4560313  33.3608170  56.2712402  31.1697426
  33.3052635  57.0473785  31.7271976  32.5317879  56.2600899  30.6913910
  76.7646255  34.9074898  46.9329300  75.9412460  35.3943481  46.9682236
  76.6208649  34.2422523  46.2598610  68.7789307   2.2581100  56.4912186
  68.0107346   2.5690055  56.0122108  69.4328842   2.0908656  55.8125381
  26.5518551  40.5811996   4.4471903  26.9616718  40.8877869   3.6383100
  27.2859898  40.3252640   5.0055604  48.3065300  48.6158524  26.9612370
  48.9015923  48.7893639  27.6906414  48.2005119  49.4645767  26.5315208
  61.9361916  27.4782963  37.3973274  61.6300926  28.0730896  36.7126732
  62.1585846  28.0516396  38.1308479  26.7252579  49.6129837  25.8668709
  26.2771454  50.4246407  26.1048660  27.4001579  49.5065651  26.5372562
  53.1534386  67.1514893  42.2747917  52.9570503  67.4093018  43.1754570
  52.4385071  66.5627899  42.0328674  77.2124252   9.4912758  52.7038879
  76.9141388   8.5838833  52.7663078  78.1565170   9.4439468  52.8545151
  12.6872663  42.9435806  23.7966213  11.8447952  43.1217613  23.3786182
  12.7369747  41.9885635  23.8378162  16.4333954  37.0797310  14.1382942
  16.1287689  36.5674438  13.3892965  17.0624123  36.5086060  14.5791845
  46.3117485  35.3175201  44.4692307  45.8567505  36.0233574  44.9285812
  45.6175613  34.7074280  44.2199860  17.0809536  60.2925110  44.9691467
  17.4075642  59.8650932  44.1773987  17.5292377  59.8436546  45.6859474
  56.0299263  34.2413559  29.1081142  55.5865479  34.4708519  28.2914257
  56.1651001  33.2955513  29.0496693  48.4714546  40.8460922  64.2168121
  48.2676888  41.3596458  64.9984589  48.5473862  41.4948196  63.5170822
  44.2952766  51.3931885  50.4542923  43.9774246  52.2616005  50.2071838
  44.3789444  51.4309273  51.4070816  72.0335922  21.5654278  47.0519371
  72.9262161  21.6396904  47.3894958  72.0707321  21.9704857  46.1854630
  79.2527466  52.5894508  17.7229900  78.5254898  53.0128212  18.1791553
  79.2772675  53.0140190  16.8654518   4.9509821  58.7345238  86.3592911
   4.8287554  58.3861008  85.4761734   5.3969350  58.0330429  86.8339310
  74.1667480  27.8544941  41.7974625  73.8868561  28.0746021  40.9089546
  74.1707764  28.6916256  42.2616043  51.3236923  18.5291119  36.6773224
  52.1731148  18.1517773  36.9060898  51.5005112  19.0666924  35.9053268
  49.6311989  35.3761902  55.9229088  50.0596733  35.2842751  55.0719147
  48.8432655  34.8370934  55.8538170  68.8418579  56.3683472  81.2832108
  69.7962341  56.3582726  81.3560028  68.6655731  56.9203873  80.5213699
  69.0736084  51.4940643  26.2058640  68.8436279  50.7671356  25.6271496
  68.6302719  51.2934875  27.0301533  28.7055779  49.1399574  41.0765038
  27.9586868  49.7282829  41.1872101  29.4573364  49.6469307  41.3832130
  63.8309288   9.1658258  69.2537384  62.9620361   9.5545712  69.1530838
  64.2753983   9.7327290  69.8840561  86.0420227  50.8011971  51.7351875
  86.8312225  51.2442017  52.0468597  86.1818390  49.8800850  51.9548264
  42.7124176  60.7016754  37.2426453  43.5373955  60.5876770  37.7145004
  42.9193497  61.3238678  36.5453033  33.3982391  24.2536354   1.7979017
  33.4935722  24.5421638   2.7055883  32.4837036  23.9797230   1.7284464
  34.2566261  68.0439224  73.2860413  33.8670769  68.6398087  73.9258804
  35.1715012  67.9666290  73.5567093  26.9742393  21.4036522  84.7005081
  26.3490677  20.9442711  84.1398239  27.4563637  20.7055817  85.1437759
  26.2355042  48.0898361   5.5894971  25.9070511  48.9319649   5.9044113
  26.2440052  47.5304642   6.3661971  83.3988495  35.3547783   4.5965371
  82.7907562  34.6326141   4.7544355  84.0359573  35.2913437   5.3080878
  53.2921181  26.0062122  26.1689854  52.6713333  25.3572922  26.5002842
  53.7401848  25.5630436  25.4485188  81.3046188  40.3276062  31.6147919
  82.1882095  40.6731300  31.7417622  81.2404022  39.6006966  32.2342377
  28.5682659  36.4492455  67.0932159  28.4763718  36.3811455  68.0435562
  27.9813728  35.7769661  66.7470474  70.5645523  52.7295494  52.6748276
  71.1012421  53.5079880  52.8239288  70.9692001  52.3004570  51.9209213
  60.8408737  15.7199869   8.6190271  61.2386856  15.5217915   7.7712669
  61.4784279  16.2840347   9.0567617  32.0900345  68.2487640   8.1338978
  31.1452827  68.3859253   8.0641727  32.3747177  68.8759995   8.7985506
   3.2357423   0.9205642  53.0468292   3.1061573   0.3185095  52.3140450
   3.6844301   1.6733599  52.6618462  73.3916702  35.2269669  86.1675568
  74.1163025  35.1679230  85.5449371  73.2232285  34.3207436  86.4256744
   8.0680828  61.8915062  30.8507290   7.3425851  61.3947830  31.2290802
   8.0036879  62.7560997  31.2563992  55.9266624  23.0672836  76.9402542
  56.0321426  23.5426445  76.1161575  56.8201218  22.8555508  77.2106781
  57.7200012  38.4845772  27.9814873  57.0715065  39.0233002  28.4347649
  57.9876976  37.8346062  28.6311874   7.6776958  12.2064877  69.3127747
   7.1798210  11.5584812  69.8112106   8.3149433  11.6906643  68.8187332
  66.2255402   8.0424404  80.4598541  66.9254379   7.5587368  80.0212097
  65.5425415   8.1309738  79.7950897   5.5823956  35.3604965  64.9618683
   5.3679743  34.5944290  65.4942245   5.2250814  35.1588135  64.0970688
  17.6779099  64.7904968  30.3228149  17.5205631  65.4610596  29.6581173
  18.1605377  65.2457733  31.0127640   3.6233146  20.9404316  26.7775059
   3.0943253  21.4269733  26.1453037   4.3594813  20.6048946  26.2659321
  69.3013458  17.0202484  52.9750214  68.5469437  16.5404530  52.6331100
  70.0217743  16.7807484  52.3920517  63.1298828  66.7984848  81.8567581
  63.4026604  67.6725540  82.1357346  63.8226166  66.2188721  82.1736221
  48.0276413   7.7192307  43.5240021  48.0540428   7.4633827  44.4459991
  47.1609344   7.4451637  43.2241096  46.6889610  16.2728252  42.1014709
  47.4080353  16.2972355  42.7327957  46.9613190  16.8703117  41.4050064
   5.6366696  50.7276535  46.6966095   4.6810150  50.7220306  46.6425285
   5.9196615  51.1588669  45.8902588  60.0191612   8.4575434  26.2271519
  59.8120308   8.1458979  25.3461266  60.5501099   7.7589631  26.6096535
  58.3621788  24.2456131  15.7640753  59.0135765  24.4701347  15.0996161
  58.3724632  24.9868355  16.3696480  78.5058060   8.8341179  13.0814152
  78.9546051   9.6773853  13.0205317  79.2091980   8.1856489  13.0504084
  72.6726151  52.6499825  24.8761349  72.3260574  52.2947922  25.6946526
  72.6737823  51.9061050  24.2737389  42.1611519  22.1101112  13.9795628
  41.5753517  21.3944721  13.7327223  42.6129112  21.7911835  14.7608643
  85.2162933  31.6743202  12.8305540  85.8697052  31.3394470  12.2164364
  84.5090256  31.9999313  12.2737932  49.8545990  40.4330635  55.4367523
  50.0010834  39.5474701  55.1043434  50.7068825  40.7051926  55.7770348
  52.2179451   2.0539129  87.8548584  52.7775688   2.8285706  87.8004608
  51.8657646   2.0748682  88.7446671  12.2629938  30.7851963   7.9307294
  11.4871635  31.1201954   7.4811792  11.9522686  30.0109367   8.3999882
   4.7395945  39.4351616  32.7586708   4.4196520  38.5334778  32.7875671
   4.5570464  39.7255516  31.8650360  54.9303741  32.4979591   8.3645849
  55.4831429  32.2372398   7.6279025  54.2056618  31.8727417   8.3532743
  44.6974373   0.5383640  52.7364998  44.2448959   0.2508559  53.5294571
  44.1662941   1.2633680  52.4071274  84.6715164  61.2669754  63.1905975
  84.4555817  61.7645493  62.4019089  84.7038803  61.9233704  63.8865356
  12.2945681  36.2392349  62.0704918  13.1193333  36.1962852  61.5866013
  11.7231522  35.6130867  61.6259079  63.1137924  54.9867439   4.8190212
  62.1942482  55.1536751   5.0259228  63.2752037  55.4909248   4.0215383
   4.8700528  16.0586967  76.0455399   5.0753722  16.9670162  75.8241043
   5.6927958  15.5879049  75.9125671  74.0493698  57.8918381  11.5229006
  73.9741745  57.4219093  10.6923933  74.8292313  58.4371834  11.4197636
  81.6819534  36.2671700  71.9084625  81.7092285  35.3461685  72.1677780
  80.9378128  36.6294479  72.3893356  27.2637978  12.7615776  86.7411957
  27.6554241  13.5746117  87.0603104  27.8760509  12.0779190  87.0132065
  72.7435150  24.6106873  58.6864471  72.3074646  23.9440269  58.1557388
  72.1526031  25.3632050  58.6586685  78.7762985  58.0827065  70.1601486
  78.6275635  57.4655762  69.4437256  79.6128006  58.4974518  69.9492188
   4.5854511  56.2455444  43.9274788   4.0540566  56.6988487  43.2729797
   3.9908583  56.1072693  44.6647491  73.3084412  36.4273834  13.1548243
  73.4232025  36.4835091  14.1034603  73.9801865  37.0081711  12.7975168
  32.3704796   5.6310339   2.1080077  31.6367550   6.1149740   2.4870613
  33.0730057   5.7177382   2.7523472  65.0182877  56.6022682  11.7142677
  65.9723053  56.5393982  11.7604990  64.7951584  57.3087120  12.3203907
  53.8240166  45.1472130  37.0637245  53.4838219  44.8153381  36.2328491
  54.7631454  45.2539787  36.9124908  46.3819466  25.9723072  41.5766144
  46.2982483  26.5254173  42.3533363  47.1434402  25.4208508  41.7561989
  85.7991943   1.2139964   1.0111650  85.5031967   1.8121668   1.6973189
  85.5534515   1.6469344   0.1936044  63.9053497  26.9636593   1.2086697
  64.8153763  27.2170029   1.0540831  63.4070587  27.4460621   0.5489532
  36.1673660  26.3643856   0.7343848  36.3292809  25.7540817   1.4537901
  36.1635628  27.2273064   1.1486148  78.9307861  25.2419128  34.6604576
  78.0501633  25.2969475  34.2893753  78.8010101  25.3513107  35.6024895
  37.8012505  24.8378315  18.6345463  38.4652443  25.4620895  18.9271946
  37.0116615  25.0847073  19.1160374  30.1464233  61.8722725  23.6879978
  29.2096462  61.8454628  23.8828411  30.5643597  61.5151825  24.4716110
  30.5483589  64.5788498  50.1721764  30.2232761  65.0741119  49.4203339
  30.2462215  65.0737534  50.9337616  25.7951660  67.2226334  46.7385025
  25.0248356  67.2564850  47.3056679  26.2786293  68.0230179  46.9431496
  82.8231277  58.1443863  14.7032843  82.6288147  58.0897522  15.6389599
  83.3040924  58.9662552  14.6061354  17.0976810  23.7678318  86.9330444
  17.6001930  23.1286297  87.4381561  17.7458115  24.4134426  86.6513672
  11.4966679  65.1101913  68.3647766  11.7877340  64.6510620  67.5769196
  11.4997206  66.0350189  68.1179428   9.4840755  24.6819248  68.9696732
   8.5885754  25.0194569  68.9500809   9.9188728  25.1135635  68.2342300
  70.0810318  26.6453819  32.0241432  69.6238937  27.1491318  31.3507271
  70.2786713  27.2846451  32.7086220   1.9208659  55.6541710  42.6626015
   2.5822453  55.0916595  43.0655785   1.6410373  55.1742897  41.8830872
  80.4736404   4.6115928  29.1814156  79.8999939   5.3722744  29.0890636
  81.1772461   4.7642274  28.5506458  76.9579697  26.4578838  56.2648087
  76.4512329  26.1296139  55.5220490  76.3058777  26.8520775  56.8441353
  48.5297852  23.7144108  36.9333954  47.7329330  23.1894512  37.0087280
  48.2383080  24.5372009  36.5405998  76.6579590  40.4720192  41.0653725
  76.0856476  41.1406288  40.6890030  76.3447189  39.6493645  40.6893997
  40.3078690  64.7995605  71.8448486  39.3567581  64.8910675  71.9018097
  40.5870667  65.5353394  71.2999420  25.4815807  36.4660912  88.6882706
  24.9121208  36.8053856  89.3787994  24.9974251  35.7269516  88.3201752
  29.4072418   3.6756516  22.8771343  28.5500946   3.9490676  23.2038994
  29.9195709   3.5000312  23.6663799  76.9137115  38.6109238   0.5389243
  77.1475601  37.9184418  -0.0791483  76.3253860  38.1861572   1.1631645
  77.4767838  15.2404385  64.2463608  78.2279587  14.6593294  64.1268387
  76.7275848  14.7295408  63.9399033  64.6818085  32.4284172  58.2166481
  65.2226181  32.7045937  58.9565697  64.7694168  31.4754105  58.1984749
  83.1475906  11.6298838  49.5067940  83.2570038  11.2164373  50.3631363
  82.7489548  10.9510517  48.9622612  27.3673859  17.5114498   9.3472948
  27.9188728  16.7487431   9.5215654  26.4722939  17.1754990   9.3939991
  60.8215790  21.7869720  56.5086670  60.8968506  21.5633678  55.5810013
  61.1894760  21.0318527  56.9676666  60.9241753  43.0447311  73.6577988
  60.3366051  43.5346909  73.0825348  61.5435677  43.6990509  73.9809799
  53.4184494  61.5339851  31.6197815  54.2486610  62.0039597  31.6979008
  52.7497940  62.2146187  31.6964054  68.8227844   0.3128796  45.6273117
  68.9440918   0.1735672  44.6881065  69.5871887   0.8233411  45.8944244
  86.6471481  58.2717323  12.9414520  86.2164612  57.4429398  13.1508284
  87.3683472  58.0270844  12.3615780  31.1088791  58.5238838  50.1800842
  31.6497822  58.0053940  50.7757568  30.3180408  57.9989815  50.0564423
   5.7492275  45.7372742  39.0213280   6.2441840  45.4006157  38.2743912
   6.3762422  45.7354584  39.7445717   9.1261377   6.9242539  80.0120392
   9.5084305   6.7054663  80.8618698   8.2312908   7.1968246  80.2149811
  10.4450855  64.5821228  81.3513794   9.5394363  64.3767548  81.1193161
  10.9685631  64.1590881  80.6707611  61.7990913  45.7009506  47.3132439
  62.7402115  45.8745499  47.2935257  61.5506859  45.8309326  48.2284660
  48.2412491  34.3769569  77.2719574  49.1842880  34.2140732  77.2524948
  48.1629944  35.3049774  77.4930725  43.8561974  24.6537304  84.8439560
  42.9488525  24.5927429  84.5452271  43.8131332  24.4634266  85.7810516
  74.2017899  20.7586975  44.5008545  74.5877914  21.5006065  44.9664726
  73.6010818  21.1573753  43.8712158  64.3164520   3.5376248   9.7543945
  64.2623062   3.3470132  10.6908598  63.5997086   4.1512027   9.5930328
  78.0479660   7.9868608  66.1751862  78.7591400   8.6268110  66.2056351
  78.2177353   7.4776654  65.3826370  50.8217735  36.9714088  52.6228447
  51.0243301  36.1672173  53.1008377  50.0147171  36.7713585  52.1486397
  10.3531466  42.0387650  22.2867966  10.3056545  41.0830841  22.2612991
  10.8159285  42.2770920  21.4835129  79.4736404  18.6708832  70.6993179
  79.8497925  18.8004875  69.8287201  78.7924423  18.0109577  70.5700989
  76.5148163  26.3329811   8.4486132  77.3470306  25.9992599   8.7837143
  76.7467041  26.7818737   7.6356215   3.4538190  47.8226471  64.5234375
   4.0300918  47.1253014  64.2106247   3.6495514  48.5679092  63.9555435
  54.3977547  64.8170242  61.1871796  54.3318710  64.9244995  62.1360397
  54.1438026  63.9074440  61.0309563  10.2649651  14.4706354  11.1996803
  10.7136784  15.2669086  11.4839983  10.0052509  14.6516190  10.2963390
  20.5089035  42.6336670  49.7130051  21.3179874  42.1244354  49.6650543
  20.4860401  42.9629402  50.6114960  65.2829666  61.0971794  47.8237953
  64.5893021  60.8918991  48.4506378  65.0313110  61.9448090  47.4571571
  60.2194214  51.7853394  45.9160194  60.2878723  51.2570343  46.7112846
  60.3955498  52.6800804  46.2069664   4.5757117  70.3409729  32.3880310
   5.1846371  70.9273071  32.8370895   5.0883484  69.5518646  32.2126961
  56.2301102  29.5188484  35.6355133  56.8435555  29.1739655  36.2843399
  56.3783188  28.9822750  34.8568268  50.6873512  19.8371487  84.8286819
  50.7830276  20.7682514  84.6283646  49.7615242  19.6521435  84.6710281
  16.6073990  19.4890900   3.3108430  17.3761940  18.9947586   3.0265512
  16.0996227  19.6233768   2.5106170  10.6929674  30.9829464  67.6599503
  10.1694632  30.1991634  67.4930420  10.8162212  30.9909954  68.6091461
  43.4979248  53.7219048  68.6368942  43.4859352  52.9011383  68.1445236
  44.3943939  54.0441628  68.5435028  83.4722214  50.3613091  65.5145569
  83.2290649  51.0505753  64.8964767  83.9850159  50.8115234  66.1858139
  79.1945724  15.0865288  40.7459869  79.7025681  15.8973875  40.7199821
  79.8502350  14.3961897  40.8448143  85.2884293  66.0149536  51.8600121
  84.9243164  66.3000031  51.0219193  85.3386459  66.8145981  52.3837204
  68.8162308  62.2158966   6.7890978  68.0050888  62.1671715   6.2832270
  69.2472534  63.0105934   6.4746137  16.2640743  14.9929028  56.0205231
  15.9457550  14.1371593  55.7331085  15.7991772  15.1582603  56.8407402
  24.5643101  39.7067566  83.9930420  24.3115749  40.4489555  84.5421295
  24.3778419  38.9368515  84.5303650   2.0371058  28.9556217  88.8600769
   2.6389923  28.3800659  89.3319855   1.2261872  28.4514160  88.7935867
  60.8291054  40.7535248  71.5176010  59.9763565  40.4364433  71.2200928
  60.7803497  40.7115860  72.4726410  50.5967903  14.2981920  77.1396332
  49.7268486  14.5997934  76.8779678  51.1089249  14.3137875  76.3311081
  71.8090057  71.5573730  40.9485397  72.1614609  70.8313217  41.4631805
  71.2626953  71.1371307  40.2843285  68.7147293  24.7350254  33.6417465
  69.2477570  25.2478771  33.0342102  67.8172531  25.0228634  33.4746780
  42.4781532  70.8334503   6.8778868  42.2641602  69.9779968   7.2502289
  41.7058258  71.0713730   6.3649192  68.6154327  41.7624741  87.5032806
  68.0867004  42.1998482  86.8359146  68.0250092  41.6643486  88.2502747
  44.2019539  20.2230148  74.1067581  45.0017319  20.2060604  74.6323929
  44.0690117  19.3123798  73.8435059  48.7335854  61.8049965  27.8397884
  49.5133018  61.7453957  27.2877712  48.0109901  61.5628891  27.2605896
  72.8688812   7.8520231  34.8458481  73.7262192   7.6220589  34.4876442
  72.4724503   7.0118408  35.0764351  38.7784996  39.3395920  36.5744057
  38.0080833  39.5754242  36.0576134  39.2416763  38.6986504  36.0350609
   1.0805615  57.7135963  51.1488724   0.2706698  58.0834351  51.5003319
   1.7455870  57.9284325  51.8029480  74.6374741  31.4040241  71.0914078
  73.7517700  31.0608673  70.9730911  74.5084381  32.3188324  71.3418198
  64.7884903  19.0780582  57.9860573  65.0574799  19.7191238  58.6440201
  64.6153183  19.5983429  57.2014885  84.1223068  35.1761475  58.9120140
  83.3657608  35.5976524  58.5043373  84.1176529  34.2852821  58.5619164
  69.5142899  70.7352600  67.1711655  70.1184921  70.4110794  67.8390579
  70.0798340  71.1341934  66.5099258  57.0926437  60.4217415   2.0263088
  56.9776306  59.5103340   1.7573353  56.4859886  60.5338516   2.7581787
  57.7048645  60.7002869  12.4888515  56.9455833  60.2658882  12.8774700
  58.1763420  60.0001450  12.0374737  61.2331009   6.6451511  50.7394562
  60.6255684   6.0635824  50.2823868  61.1738396   6.3799400  51.6572685
  36.0256958  58.2001877  59.3519287  35.6024475  57.7197418  58.6404076
  36.8633995  57.7542572  59.4769478  78.4268417  37.9972115  38.6889992
  77.6955338  37.7159004  39.2388039  78.1929169  38.8838730  38.4145241
   4.5668912  37.8110580  23.6436138   4.7179027  37.4833260  22.7570362
   4.9648757  38.6815834  23.6481972  14.8263874   2.4453115  88.6253128
  15.7802496   2.4864764  88.5568695  14.6168652   2.9911342  89.3832169
  45.9885635  16.8009167  62.6837616  45.0731506  16.5335903  62.7661858
  45.9760590  17.4996681  62.0296783  53.8898087  33.4995842  53.8486824
  54.4360542  33.8514938  53.1458244  54.3973236  32.7698936  54.2039490
  76.7608490  13.3908072  47.9070663  76.7673340  12.5870800  47.3872452
  76.4186707  13.1218987  48.7596092  74.7255478  64.2873077  36.4767265
  75.6383286  64.2064133  36.7533379  74.7330933  64.0424576  35.5514030
  52.4133453  54.8839035  43.2609634  52.2753334  55.6594887  42.7172241
  53.0803070  54.3800278  42.7945900  46.6585312  37.3139496  69.2883148
  46.2586288  36.5089989  68.9591293  46.0309181  38.0015640  69.0657883
  50.3558083  42.8795433   1.1244378  50.9607277  43.2998123   0.5131482
  50.2388306  43.5212975   1.8249367  60.3982010  68.5470276  85.4254837
  59.6106300  68.3930359  84.9037170  61.0218658  68.9320984  84.8098526
  64.7763290  13.4131117  44.2652588  63.9447060  13.0225554  44.5337715
  65.4001389  12.6874571  44.2880020  10.2385931  57.0612259  67.3589706
   9.8466043  56.9755135  68.2280121  10.7212048  56.2443619  67.2322845
  13.1688566  49.8954124  11.4815073  14.1200857  49.8117638  11.4151926
  13.0332327  50.5531807  12.1635456  36.1247139   6.7566686   0.4517095
  36.0569305   6.4783840   1.3650522  36.8577538   6.2508297   0.1009771
  84.0623245  33.2630997  85.9963303  83.6164551  32.4899979  86.3423767
  84.3643646  33.7332954  86.7734528  84.1240082  62.8802986   2.0839767
  84.6183243  63.6160355   1.7226216  84.5436020  62.1043129   1.7124689
  29.6035004  54.2742729  25.4418850  29.9071732  54.6250916  24.6046619
  30.3298283  53.7338409  25.7527122  46.8155670  31.2890377  74.3787384
  47.1570778  31.1981926  75.2683182  47.5379295  31.0114918  73.8153610
  27.7753239  53.9881477  80.7390747  27.8060532  54.2147446  81.6685638
  27.6295738  53.0421753  80.7278595  70.1210938  39.5258331  87.6583023
  69.5116882  40.2530899  87.5320282  70.0780869  39.3373260  88.5957642
  77.2278900  68.1511230  39.2072296  77.1521530  67.9649048  38.2713776
  77.5113678  69.0644913  39.2475204  13.4271393  49.5479469  87.8451080
  13.1260004  48.6480827  87.7194595  12.6742249  50.0018158  88.2237320
  12.5993290  19.4637680  79.3406982  11.6518574  19.5360699  79.4560242
  12.7426205  18.5472889  79.1045456  57.9732971  44.2200203   1.3378551
  58.7918243  44.4018250   0.8761291  57.8861885  44.9394341   1.9632267
  49.7901764  15.5227547  39.2057838  49.0877838  15.5092850  38.5556335
  49.4144135  15.9853878  39.9547844   9.1679125  55.6932755  21.5948410
   9.3429422  54.7639694  21.7431297   8.9292698  56.0326767  22.4574451
  11.6829462  30.2621288  24.7020874  11.7898827  29.7252903  25.4873257
  11.7100525  29.6361351  23.9784641   4.2797976  55.6082115  47.3354492
   5.1429963  55.3527527  47.0100861   3.7958291  54.7850914  47.4023666
  57.0929489   7.4505401  86.8597565  56.9695587   8.1508684  87.5004959
  57.9134178   7.6711326  86.4188385  49.1172905  10.1068974  81.7023697
  49.4922676   9.8873568  82.5552673  48.6837730  10.9489775  81.8409195
  33.5778999  52.2159271  14.9099693  33.7020531  52.9283218  14.2828236
  32.8244057  51.7301483  14.5745592  66.0846481  25.4087086  33.0626907
  66.0004883  25.0695248  32.1715660  65.3621902  26.0303001  33.1516037
  81.6982498  39.5205994  47.1066208  81.7396469  39.2184105  46.1993179
  80.8000259  39.8334312  47.2141304  62.1181488  24.2193089  10.2661896
  62.4412231  23.4774914   9.7547588  62.7365875  24.9258575  10.0803022
  22.7698956  46.5115204  68.1047745  23.5197906  46.6698875  68.6781921
  23.0637417  45.8200874  67.5116425   7.0784516  47.2593307  55.3103561
   6.8038020  46.6782684  54.6010132   6.9437442  46.7454872  56.1066284
  42.0461197  57.9874573  74.5721436  42.6993027  58.6786270  74.4632111
  42.5601234  57.1898460  74.6980286  79.2168655  32.7282829   1.7061533
  79.2604218  33.5800171   1.2715416  78.8629227  32.1378441   1.0410712
  67.0104446  20.3143826  79.2090759  67.4314651  19.7823162  78.5338821
  66.4411697  19.7025509  79.6757889  50.9011650  14.0203161  33.0127678
  50.4499664  14.8596411  33.1032448  51.6933289  14.2265005  32.5165863
  76.0916748  32.6577072  45.3026428  75.3532944  33.2620850  45.2267609
  75.7085114  31.7922935  45.1595306  56.5328865  62.4956970  10.7408199
  55.6456680  62.2470398  10.4815044  56.8146820  61.7967644  11.3310013
  16.9932270  58.2300491  64.1464462  17.9065037  58.0056190  63.9681549
  17.0330677  59.1025085  64.5381775   1.5031117  51.0926971   3.2688451
   2.1565297  51.5494766   3.7985888   0.7329624  51.0364914   3.8344800
  12.7107086  54.2832184   3.0563710  12.0261393  54.5781059   2.4558411
  12.4810886  54.6819916   3.8957067  28.4581985  20.4019623  14.4595938
  28.7318897  19.8349781  15.1806030  28.3434658  19.8078060  13.7179432
  64.3918839  47.3248940  69.1618271  64.5223618  46.7313576  69.9013672
  63.4449348  47.4603729  69.1276321  52.2878227  37.8246651  27.8380337
  52.1535950  37.4711342  28.7173691  52.7144051  38.6693687  27.9820385
   1.3681889  52.7844887  34.3128815   1.2166142  52.1860542  33.5813560
   0.5677924  52.7318306  34.8352051  73.7358704  16.1246796  62.5372581
  74.0549774  16.9633694  62.8704338  72.7832642  16.1854725  62.6084862
  10.2680359  32.5565758  25.3105659   9.8641100  32.3161163  26.1443844
  10.6126556  31.7331028  24.9650803  29.3882351  43.7589073  82.7225723
  30.0647278  43.1357536  82.4574966  29.1659279  43.5045052  83.6181717
  52.5668144  33.8201027  38.0525970  52.8498573  33.8640175  37.1392555
  51.8664932  34.4693565  38.1177979  45.5628281  46.1932182   2.8295712
  45.3609085  45.3309784   2.4662519  44.7088203  46.6085854   2.9494584
  68.9242249  19.3371582  33.6039276  68.2225342  18.6861134  33.6039925
  69.1025391  19.4972134  34.5306549  57.1641922  63.0699768  62.4940529
  57.2979012  63.9798393  62.7595749  56.7646294  62.6538200  63.2578583
  38.4955826  35.0997162  26.3715611  38.4397850  34.2924728  25.8602123
  39.4257698  35.1877022  26.5795097  66.9669418  11.8616552  35.7111244
  67.0015335  12.8168068  35.6589508  66.0433044  11.6478710  35.5791245
  27.6671391  62.9722595   3.0581818  27.8509216  62.3364105   3.7496641
  27.2384167  62.4618492   2.3712275  18.9469414   4.1715846  60.1715736
  19.0425167   3.3672426  59.6615448  18.6011333   4.8106341  59.5484657
  25.1036377  67.2764893   7.5136595  25.5164566  67.6362228   6.7285433
  24.4667549  66.6440659   7.1810212  18.5322113  57.3131676  39.6940269
  18.0361042  57.6680450  38.9563484  18.9635468  56.5352287  39.3404846
  18.8976097  20.7980938  73.0163803  19.6453171  20.3897533  72.5800095
  19.0731449  20.6829395  73.9502792  72.8458862  61.8544464  57.7392731
  72.7774429  62.0600319  56.8069229  72.5374069  60.9509697  57.8085976
  76.3150482  46.1826744  79.6235428  76.8759384  46.5550308  78.9431152
  75.4477234  46.1379852  79.2210617  51.5480843  31.0558357  80.0313950
  51.0998650  30.9107666  79.1981506  51.9464226  30.2106800  80.2394028
  20.4702339  40.3149796  45.7360878  21.3065014  40.1959343  46.1863289
  20.0012741  40.9579773  46.2679329  11.3317728  68.0705185  78.9737091
  10.6792326  68.1378784  79.6707611  10.9491491  67.4576340  78.3458481
   6.9029732  54.5402298  75.8417587   6.6349111  55.4216614  75.5820312
   7.5989962  54.3104095  75.2261581  42.1060867  62.3875237  42.5670853
  42.4060898  61.5243988  42.2820549  42.0515404  62.9004517  41.7607574
  68.4112625  58.2125130  83.7776947  69.2553177  57.9752541  84.1617584
  68.0942688  57.4029274  83.3772888  57.6277542  64.3050690  24.5314083
  57.0307503  63.8864975  25.1515846  58.3156204  64.6832657  25.0791607
  39.8127289  53.3759232  63.1841240  40.0684738  54.2981911  63.1999588
  38.8560944  53.3930969  63.1560287  40.8355713  47.2718773  37.6978035
  40.1832275  47.8841438  38.0381088  41.6582451  47.5502968  38.1001968
  69.1060715  12.8229742  32.0598526  68.1717300  12.8885860  32.2571640
  69.1856308  13.1530943  31.1649075  59.2612190   2.1434369  26.0227413
  59.4715652   2.0954528  26.9553108  58.3952980   1.7417580  25.9515476
  44.4608345  34.3223228  13.5323296  44.7803001  35.0144463  12.9534178
  45.0723915  34.3247147  14.2686882  72.1552505   4.0062647  53.9261818
  71.9029388   4.9072776  53.7243195  71.5275879   3.4680135  53.4439392
  84.8263092  34.3762283  75.0399170  85.4825668  34.6848030  74.4151382
  85.2407379  34.4849586  75.8958740  42.4431190   1.2903415  39.3144417
  42.4013634   0.3717431  39.5802689  41.5732689   1.6369435  39.5130882
  14.3813114  70.2045288  13.3715878  14.9918613  70.8629456  13.0400057
  14.9324703  69.4501953  13.5799913   6.0819225  40.9081497  36.7965393
   5.7779326  40.0037994  36.7192535   5.4466171  41.3254929  37.3782959
  68.1696548  50.3574944  48.6432686  68.9546967  49.8146515  48.7158203
  68.4355774  51.0901260  48.0876007  24.9362011  50.5244675   6.4006009
  24.9563046  51.0010147   7.2304978  24.0139675  50.3009796   6.2750230
  64.0992432  64.7808533   7.7075639  63.7303429  65.3296280   8.3996601
  63.6504593  65.0654602   6.9114323  81.9498367  54.4876595  38.6417465
  82.3697510  54.4671516  37.7818146  81.9008331  55.4178314  38.8622398
  39.1876945   6.7433767  10.6469584  39.5645828   7.4511108  11.1697407
  38.2417908   6.8740578  10.7134275  48.6110229  21.3947506  28.1507168
  47.8786507  20.7867699  28.2518177  49.2545471  20.9106045  27.6333103
  85.3828812  54.8795662  77.9640350  85.4176178  53.9230194  77.9572372
  85.1997147  55.1061096  78.8758316   3.7374032  10.3127728  29.7076626
   3.0243542  10.8898802  29.4342766   4.5286736  10.8392277  29.5937843
  60.7496185  17.7130871   6.3675375  61.3571892  17.3071003   5.7492633
  59.9419022  17.2075672   6.2765613  31.5036049  51.2909431  80.9558640
  32.1403465  50.8421516  81.5120850  31.7703304  52.2099152  80.9798355
  80.3265152   3.9108329   8.5371923  79.6405334   3.4021175   8.1049099
  80.6630402   4.4892726   7.8528008  20.0339622  65.5128250  56.7750092
  19.3572063  64.8472366  56.8984070  20.8167858  65.1357574  57.1765594
  74.5354309  10.7516251  10.3438787  74.0208511  10.3743048   9.6303854
  73.9682465  10.6808443  11.1116867  53.1944427  10.6228514  68.6330185
  53.6473427  11.0733986  67.9201965  52.5916748  11.2775764  68.9854965
  86.0949173  19.3278236  38.6780777  86.5015564  18.6800728  38.1024933
  85.1634903  19.1075191  38.6662712  79.3608398  40.7116623  40.8538857
  78.4331970  40.6269836  40.6335602  79.4277878  40.3678284  41.7446899
  55.1526909  59.5699310   3.8953829  55.5301476  59.3364449   4.7434630
  54.5365639  60.2751923   4.0934429  23.3262005  64.2207336  18.2384701
  23.4214134  64.2133560  17.2860451  23.1473045  63.3089333  18.4683628
   9.0173521  38.1579628   2.4511840   8.8430109  38.7638130   3.1714499
   8.9389868  38.6946526   1.6624800  18.3841820   9.1908627  85.8028870
  19.1260605   9.3333836  85.2150726  18.6270294   8.4174395  86.3118820
  65.6674347  67.1834106   0.6482839  66.5033264  67.2163773   0.1830676
  65.8595734  66.7005081   1.4521006  40.8910866  40.1131325  18.4211044
  40.0182953  40.0626297  18.0313435  41.4879227  39.9219513  17.6975899
  48.4025764   7.1245298  39.6330070  48.1772308   8.0436087  39.7770386
  47.6781540   6.7792292  39.1112709  85.4797440  59.8694839  32.0593910
  84.8543015  59.3009033  32.5085793  85.4066086  60.7101326  32.5112648
   9.5423946  30.3240891  19.8239517  10.0641918  31.0877876  20.0703754
   9.2194347  29.9763298  20.6552105  62.7475433  70.5943680  61.8021431
  63.3026466  69.9689178  62.2678795  62.3278046  70.0767365  61.1150360
  23.5651741  47.1989975  28.3711891  24.1679211  46.5957260  27.9364567
  23.2507915  46.7147369  29.1346607  49.5797386  66.6553421  14.7057238
  49.5990982  66.5415878  13.7555046  48.6975822  66.9776993  14.8904333
   3.5276771   1.4210629  79.9098053   3.0283825   1.8764145  79.2318726
   4.2285743   0.9763967  79.4330978  51.7915764  68.5804367  13.9963417
  52.5999298  68.4542542  14.4932070  51.1891861  67.9252319  14.3485718
  17.1910419   1.9628178  15.8279829  16.6079750   2.6778276  15.5729818
  17.8763790   1.9627264  15.1597433  50.3505096  29.4722042  67.4952469
  49.6005211  28.9972649  67.8532639  50.8771400  28.7987576  67.0647049
  53.9635391  65.1661530  64.0161667  53.1012192  64.9852829  64.3902206
  54.5814667  64.8275604  64.6640472  32.5289383  68.3685684  69.5621414
  33.1241684  67.8101044  70.0621872  32.3881607  69.1313019  70.1230774
  42.7782593  58.4656906  60.0627518  41.8930092  58.7178192  59.8000832
  42.7569008  57.5091019  60.0893555  29.3466358  69.7924805  70.0388947
  30.2450294  70.0081863  69.7887115  29.3750744  68.8600769  70.2534943
  25.4050503  11.3459444  88.2396545  25.8684006  11.5725641  87.4333191
  25.0838718  12.1830959  88.5746994  64.5369110  29.9238796  62.8162498
  65.3810196  30.3752384  62.8162308  64.6824188  29.1438580  63.3516235
  46.0442657  54.8333626  68.0586243  46.8602257  54.3972015  67.8132553
  45.9133987  55.4958191  67.3802032  50.6417923  49.3152275  23.6380577
  50.6934776  49.5604591  22.7142487  49.8139801  48.8406754  23.7139397
   0.9747187   2.3595212  86.3801727   1.5788580   2.8963766  86.8930435
   1.5033206   1.6170539  86.0876770  59.4805260  28.9279099  56.8987160
  60.0322075  28.1578827  56.7610970  58.9215584  28.6928139  57.6393356
  24.5089340  56.4432449  79.8350830  24.6655312  57.0880661  80.5249481
  23.5851307  56.5530777  79.6097946  25.0480595  66.7224960  18.9477882
  24.5434151  67.4146652  18.5206203  25.2899246  66.1288910  18.2368965
  26.5798550  68.0487061  51.6268845  27.1486778  68.8184204  51.6124191
  27.1714993  67.3108521  51.4793472  82.2890015  12.4052134  81.2367477
  82.0298538  11.9000139  80.4661331  82.1770630  13.3185606  80.9731216
  71.2187424  21.7297230  11.9001961  72.0898819  21.3639660  12.0536833
  71.3788757  22.5242348  11.3909416  38.2325325   5.1745129  24.5030804
  38.4293327   5.9571738  23.9883537  37.3739929   4.8908663  24.1889324
  80.0807648  44.0741539  73.2858582  79.8751068  45.0052605  73.3693619
  80.9925613  44.0039711  73.5685806  48.0133934  45.4547119  88.0019684
  47.7417488  44.8093338  88.6546021  48.8339882  45.8099518  88.3435287
  33.0858345  38.6655121   2.9826376  32.3578758  39.2557106   3.1775162
  33.2542801  38.2120895   3.8086317  58.5977745  36.5629196  29.8715954
  58.0556183  35.7915268  30.0366669  59.4964676  36.2516174  29.9796314
  29.7135334  65.3643799   7.7999406  28.8726158  64.9890594   7.5387392
  29.5901527  66.3098984   7.7162728  67.0444489  45.3634491  22.1414528
  66.7587280  46.2752190  22.1986637  67.9439926  45.4141731  21.8182144
  21.1510067   3.3457408  51.0488205  21.9780121   3.0017531  50.7112274
  20.5245914   2.6337371  50.9188805  43.0481529  44.3390427  38.0103683
  42.1931190  44.2008095  38.4178543  43.6736526  44.2471313  38.7290688
  77.9572906  70.5259628  49.7547226  77.8255310  69.9205246  49.0251236
  77.7541580  71.3875961  49.3906288  70.1771317  19.5096035  25.1806087
  70.4754791  18.6587181  24.8593407  69.6448059  19.3023891  25.9486752
  74.0541000   5.2259512  75.4768372  73.8153915   5.5823827  74.6211472
  74.5039902   5.9458256  75.9191132  46.3259697  69.3330154  59.0844841
  47.2041016  69.5351639  58.7615967  45.9318848  68.8035278  58.3912544
  13.9362326  24.4869213  84.1402206  13.9653225  24.2781525  83.2065125
  13.0606804  24.8485260  84.2776260  29.5501881  53.2532883  56.5429153
  30.3316765  53.7815475  56.3802872  29.8143101  52.3603363  56.3213043
   9.5343609  30.0517254   3.3130782   8.7208605  30.0110760   2.8102894
   9.2496824  30.1024914   4.2255545  28.7818470  63.0953293  41.0748672
  28.9223690  63.9972954  41.3628769  28.0313034  63.1470528  40.4830589
  82.4235687  13.6490068  58.7177277  82.0803146  14.0449495  57.9167023
  81.8573608  13.9848862  59.4125862  48.3508682  27.8798237  68.2221146
  47.6134720  27.4254017  67.8147125  48.2872124  27.6553555  69.1504440
  36.3286705  60.5421143  58.3020859  36.1378822  59.7024803  58.7202301
  36.6082802  60.3105469  57.4164047  74.3713913  33.0969391  29.4745331
  74.2814789  32.3775520  30.0995350  73.7707443  33.7695656  29.7955170
  47.2400055  70.6565933  73.5958481  47.8678627  70.1409607  73.0897369
  46.4482841  70.6651459  73.0579529  62.9343185  43.5509453   8.0855198
  62.5126648  43.8542862   8.8895254  63.4933548  42.8266640   8.3668165
  74.6018295  40.2154808  48.5328751  75.0024796  40.7155228  47.8217697
  73.8504944  39.7825508  48.1275330  17.2571487  69.0091400  66.6998749
  17.5576134  68.2346954  67.1754608  17.8399277  69.7102966  66.9913940
  80.9665833  48.7204361  57.7387848  80.9741592  48.8436089  58.6879997
  81.3180695  49.5388565  57.3882523  59.6264153  42.4155235  46.1771278
  59.2717438  42.0849609  45.3517990  59.2173576  43.2739258  46.2868843
  75.4521637  24.1912346  59.0666733  74.5185394  24.3459511  58.9230156
  75.8312988  25.0669422  59.1416550  28.8260822  19.1799164  85.1420822
  29.1654243  18.4896145  85.7117844  29.5862865  19.7301846  84.9535980
  36.3446426  71.0394211  11.3807869  36.8031540  71.8417282  11.1311779
  36.7646294  70.7675323  12.1968231  11.4060993  25.8673344  76.6080780
  11.7097778  24.9917812  76.8477020  12.1277046  26.4465294  76.8531265
  27.5177574   1.4275234  88.2678299  27.6769924   1.1137660  89.1580200
  27.2676105   2.3448262  88.3783493  10.4047709  44.1500854  30.5141296
  10.4082050  43.1931114  30.4936275   9.4786978  44.3850822  30.5724010
  28.7646255  33.0503273  15.8530436  29.3967342  32.7617264  15.1947260
  27.9115620  32.8309212  15.4783783  14.8054008  58.3018723  45.7356796
  15.5675821  57.8203773  45.4140053  14.0891590  57.6678543  45.7003403
  49.0633469  30.2349834  27.7372684  49.6761818  30.8881912  27.3996525
  49.5332260  29.4044247  27.6623096  50.2913628  68.1921692  20.5754623
  51.1066551  68.5514755  20.9253597  49.6250267  68.4430695  21.2152100
  47.6433258  45.9496536   8.9965687  47.3952713  45.4421234   8.2238369
  47.1883430  45.5205040   9.7211752  68.8406372  41.3610001  45.2484474
  68.2614288  41.1822968  45.9892654  68.2805176  41.7969093  44.6061974
  51.3221664  46.8699837  44.3842430  51.3325500  47.3239899  45.2268639
  50.4846802  47.1147385  43.9906120  60.1230583   1.0102861  62.0869370
  59.6213264   1.8253425  62.1004410  60.9995842   1.2732251  61.8062363
  74.6006775  11.4837351  65.7908096  75.1807632  11.8429918  65.1194916
  74.9521561  10.6114664  65.9692383   1.3717011   9.5337009  23.0721874
   1.9960991  10.2417116  22.9138184   1.5306813   9.2725821  23.9792557
  45.7275848  55.4469147  33.1705894  46.1573982  56.2709236  32.9414558
  46.4289207  54.9022141  33.5278893  59.6674423  64.7805176   4.8107944
  59.4464302  64.1559906   4.1198945  59.4490128  65.6354065   4.4397306
  34.7906075  13.0792332  85.5353470  35.7424583  12.9950113  85.5911713
  34.6481018  13.9584513  85.1847839  76.2023544  48.8467674  40.9057274
  77.1300888  48.6782150  40.7409935  75.7420349  48.2449341  40.3208084
  73.5688095   2.2800882  33.8666039  73.2100601   3.1497042  34.0435219
  73.2390137   2.0575118  32.9960175  69.8513947  12.9343920  71.8168716
  70.4506226  12.2884626  72.1909485  70.2888870  13.2335854  71.0198059
  40.1665154  29.6736622  85.9149017  39.6507530  28.8757591  86.0314102
  39.9785957  29.9515591  85.0184097  85.9557266  63.1390953  82.3851471
  85.1200027  62.6748047  82.3379822  86.3907623  62.9338837  81.5575790
  25.4254932  23.6359425  17.8229885  25.4033051  23.9867153  18.7133236
  24.5428753  23.2951698  17.6777496  65.1584167  28.5086651  15.1120939
  64.3571396  29.0310612  15.1479168  65.8649750  29.1543293  15.1008930
  17.0877037  66.3905258  89.2313690  17.6723328  66.9103470  88.6798019
  17.6415539  65.6880951  89.5720673  70.9032440  68.2940292  26.3733654
  70.8703232  67.3375473  26.3563213  71.6499405  68.5179214  25.8178902
   6.7009010  27.8729095  21.7018719   7.3863091  28.5369663  21.7758751
   7.0660672  27.1023045  22.1366730  75.1891327  67.1558762   9.7203121
  74.5205536  67.5772858  10.2603579  74.7166748  66.8589478   8.9425917
  44.2116241  14.8857117  48.8499413  44.7244492  14.9173784  48.0423279
  44.7038498  15.4265194  49.4675789  86.1267014   1.8462595  60.5969200
  85.6967239   2.0743504  61.4211311  86.8591995   2.4589374  60.5313492
  72.4563141  63.5927048  54.4790115  71.8670425  62.9334412  54.8455734
  72.1093750  63.7637367  53.6034508  54.0518761  70.3441925  61.8543243
  54.5049210  69.6716003  62.3628578  54.7451553  70.9442520  61.5795097
  65.9225235  48.9685707  56.8798065  65.9367065  49.3248100  55.9914780
  66.3505173  49.6382446  57.4132767  21.6974030  59.2201462  77.7801666
  20.8994331  59.7033463  77.5657043  22.2342186  59.8472557  78.2647247
  30.2461586  40.9346390  60.7901077  30.4405003  40.3681602  61.5368118
  30.9226131  40.7233086  60.1466942  46.1613197  49.0068665  68.5990753
  46.8157959  48.3458824  68.8248901  46.6738052  49.7693405  68.3303299
  69.2415848  57.8142319  54.8603325  69.7448196  58.4139328  54.3095703
  68.3866882  58.2346497  54.9532433  50.5951004  68.4714279  30.3146286
  50.0540962  67.6930008  30.1820011  51.1208954  68.5363541  29.5174103
  18.7792053  65.1240387  17.1418648  18.1559391  64.7753143  16.5045567
  19.4577274  65.5402679  16.6102715  84.1913300  34.1027908  88.6722183
  83.4864044  33.5681458  89.0375519  83.8512497  34.9971886  88.6973877
   6.0497003  31.2558060  81.6556168   5.8692064  30.3655281  81.9573746
   5.5892563  31.3231468  80.8191376   7.8570275  50.8246384  72.6044693
   7.0176339  50.3986282  72.4307861   7.6864991  51.7560120  72.4641342
   5.3601689  40.2405777  20.5712032   5.7337909  40.6146240  19.7732506
   4.4351473  40.4846687  20.5398159  48.3138695  21.9856281  75.0437164
  49.0971146  21.4873543  75.2771301  48.3721733  22.7835560  75.5692062
  60.2947807  19.4216194  84.4978561  60.4034157  20.1100864  85.1539383
  59.5303383  18.9273148  84.7937012  38.7371368  51.5663757  65.7325821
  39.1391296  52.2512360  66.2670059  39.4692116  51.1716194  65.2588043
  12.5671406  63.5595245  74.8797379  13.4763069  63.2604446  74.8656158
  12.5471859  64.2333374  75.5593033  31.5895672  56.6632996  80.9234772
  30.6689262  56.6341934  81.1838684  31.7598305  57.5888367  80.7484741
  73.1959229  63.5375824  47.8587532  72.3825302  63.3235016  48.3156891
  73.8776093  63.0919762  48.3617134  52.0732727  68.6349640  27.9720860
  51.9027672  69.0963593  27.1509438  51.9465904  67.7106018  27.7581997
   1.8216723  46.9792137  48.3330765   1.9024172  47.4000702  49.1889954
   2.7109683  46.9839287  47.9790115   7.1949506   4.7017131  59.0717239
   7.7149076   4.2740288  59.7521362   6.7812204   3.9804351  58.5975723
  66.3213272  18.9094124  51.6654892  66.1330948  18.9625340  52.6024933
  65.8346176  18.1412945  51.3665886  75.5165634  63.2389259  49.2986069
  75.7900925  64.0863647  49.6496887  75.9636993  62.5960274  49.8490486
  25.7432175  23.5035877  83.1624527  25.0987892  23.6156216  83.8613052
  26.3418789  22.8342018  83.4937515  76.7932587  26.4371395  33.3719025
  76.6511459  26.9188538  34.1867561  75.9798279  25.9512711  33.2359161
  57.5228691  35.3999023  86.5291824  57.4509392  35.1895447  87.4602051
  58.2986221  35.9573898  86.4688263  71.1938477  39.6093292  20.1938438
  70.3484497  39.9314232  19.8811321  71.7683563  39.6640472  19.4301834
   4.1481628  42.2656937   1.1960295   3.7743056  42.5074425   0.3486682
   4.0374022  43.0466843   1.7382667  70.4741440  68.6200790  86.9345474
  71.1640091  68.7467575  87.5859070  70.9347534  68.3090515  86.1552353
  30.4578705  53.0728683   0.5817368  30.9491882  53.7444572   1.0548197
  31.1000462  52.3849564   0.4067536  25.2959461   6.0923519   9.5112495
  24.8512268   5.7197962  10.2726021  25.4075012   7.0179415   9.7282095
  27.2261562  33.9710464  79.6022949  27.6925049  34.6528969  80.0858612
  26.4669800  33.7667999  80.1483459  86.0639496  29.9376926  61.7332458
  86.0324707  29.2548981  61.0631485  85.1500626  30.0663624  61.9872017
  45.5056267   4.9315805  83.6639633  46.3951607   4.8824220  84.0140228
  45.3835716   5.8563247  83.4490585  39.6704102  55.1792450  29.8309517
  39.2424850  54.3258820  29.7610912  40.3955269  55.0345268  30.4388123
  42.3584976  18.7644329  71.0818329  42.2865906  18.9529743  70.1461411
  43.2989807  18.7851028  71.2587357  67.7822266   7.9874010  31.3233089
  66.8582306   7.8985453  31.0897026  67.8581238   7.5494938  32.1710777
  38.4229126  66.4889679  32.4726524  37.8728065  65.7937775  32.1116447
  37.9543648  67.2973862  32.2649193  46.0160408  18.2287388  46.5880852
  46.7356071  17.6785545  46.8975220  45.7927666  18.7766266  47.3405457
  56.5553627  70.8185577  35.9446831  56.7988663  69.9537735  35.6143990
  55.5983353  70.8084869  35.9596176  11.9068060  42.1026039  77.8685608
  11.5261755  41.2938538  78.2110214  11.9874506  41.9494896  76.9271393
   7.7188616  33.8534050   6.4543700   8.3151951  33.2089386   6.8355298
   8.2599258  34.3437576   5.8354716  65.1722412  53.9480133  32.1813087
  64.4347916  54.4428177  31.8241501  65.7779312  53.8564720  31.4457855
  81.5242920  68.2460098  88.5259399  81.2386017  69.1331635  88.3078156
  80.9501038  67.6767197  88.0136490  63.0504684   3.7127829  69.8054733
  63.3795357   2.8273416  69.9602051  62.1344376   3.6794474  70.0811691
  42.5881424  64.3195724  80.6474915  42.3227119  63.6638603  80.0026474
  43.5219650  64.1584091  80.7825241  24.5769157  41.4501762  65.5159988
  25.1449184  41.4481850  66.2864532  25.0763359  41.9247398  64.8514709
  10.0295210  58.5681458  54.1420097   9.0734959  58.5733337  54.1891365
  10.2482100  57.6976013  53.8095016  30.8761597  69.0985794  82.1732788
  30.7855320  69.8003540  82.8179016  30.2925873  69.3530884  81.4585114
  17.3563042  40.1506882  23.9491081  17.4835968  40.5080452  23.0702877
  18.0506573  39.4989166  24.0455208  14.7191057   4.1833396   1.5767013
  14.5701599   5.1095352   1.3864157  14.0579004   3.9643707   2.2332766
  55.0312920  51.4919434  35.3806419  55.1740608  50.6937561  34.8719749
  54.1899643  51.3518105  35.8151093  82.6278534  44.0237083  37.0679512
  82.7473602  43.7321014  36.1641197  81.8764725  44.6155930  37.0312920
  45.2869759  43.2325821  75.7341232  45.0580101  43.4179688  74.8233871
  44.6639519  43.7471542  76.2472382  61.7150955  65.5769882  59.6275749
  61.7480011  64.7682571  60.1385574  62.6292381  65.7612152  59.4116173
  80.9876099  50.9548035   2.1899722  80.9109955  51.3194237   3.0716822
  81.4478378  51.6295929   1.6908939  36.5703659  57.7674866  19.9333744
  36.9601212  57.6173248  19.0721130  35.6273575  57.7838287  19.7699661
  66.1317902  12.8357716  58.5418282  65.3655853  12.4610548  58.9762764
  66.7146683  12.0900726  58.3989258  35.4970436  61.8468857  70.4845963
  36.3083496  61.5350151  70.0836563  35.1552315  61.0870361  70.9557877
  78.4215240   3.1617057  87.4688263  78.8269348   3.1584182  86.6017227
  77.9923935   4.0151792  87.5293503  85.2119522  55.9018135  12.9293880
  85.2141190  54.9458885  12.9787416  84.5715561  56.1049919  12.2475958
  36.5994263   2.3927300  43.7515373  35.9174156   2.6394522  44.3762131
  37.0387421   3.2161608  43.5389442  50.5981560  14.0347080  54.1152229
  51.0042191  14.8483229  53.8162613  51.2297897  13.3532200  53.8853378
  35.0432358   0.8206443  73.7813492  34.6787491  -0.0642302  73.8007965
  35.7053833   0.7918122  73.0907288  79.1227264  33.5154915  49.1553268
  78.2616119  33.7950745  49.4660606  79.3950119  34.2059364  48.5508652
  50.5862198  19.4541664  27.8812656  50.3407822  19.1710110  27.0004635
  50.1712303  18.8165398  28.4621696  41.1914597  22.6710339  67.8728409
  40.9721870  23.5702877  67.6289291  41.7828255  22.3728371  67.1817627
  76.1036148  23.3888149   9.7601423  75.5091629  22.9795837   9.1313372
  76.4447937  24.1570282   9.3022404  48.3582764   8.5111532  76.8136139
  49.1884193   8.3184881  77.2494812  48.5806618   8.5554409  75.8836594
  58.1925545  48.0935631  64.3110352  58.0320358  48.8664932  64.8523712
  57.9220352  48.3568306  63.4314079  24.9927998  57.6636810  22.7470741
  25.1743965  56.9080238  22.1882935  24.6825771  58.3387909  22.1435661
  65.4394684   3.3888478  20.4864769  64.8016434   3.2357318  19.7893639
  66.0067749   4.0798378  20.1445236  44.4432220  39.3749466  75.5113907
  44.1674080  40.2408867  75.8119049  44.7499924  39.5185966  74.6161346
  81.8075714  26.7408714  32.0983391  80.9488907  26.3523617  31.9311256
  82.4291763  26.1221237  31.7149391  43.2486572  33.8919258  80.1706543
  43.6389656  33.4164886  79.4372711  42.3049850  33.8221703  80.0262527
  38.6399231  16.3863811  87.4401398  39.4380875  16.0017147  87.0779343
  38.1202774  15.6350327  87.7259369  67.3027878  64.9341431   8.8020496
  66.7308884  64.1942368   9.0062647  66.7081833  65.6789246   8.7127218
  59.8887215  53.5095825  53.2466850  60.0165215  52.6035156  53.5276527
  60.5091553  54.0134506  53.7733841  21.9884911  51.1565781  72.8739700
  22.4518890  51.7995033  72.3371811  21.2302570  50.9059067  72.3462601
  23.7722569  38.5022659  53.7284660  23.2030296  37.7806473  53.9958153
  24.6186104  38.3001022  54.1272697  50.9642143  22.4566765  63.3657951
  50.6525497  23.1926270  62.8390350  50.3623734  22.4224777  64.1093292
  44.0480423  56.7393341  50.9555969  44.9988403  56.7772179  50.8517685
  43.7066727  56.8127174  50.0643539  45.5847054  47.7036591  77.7199097
  45.9053726  47.4525719  76.8536758  45.0102730  48.4514046  77.5551834
  84.0028534  39.8195953  10.4976435  84.1344528  40.6171532  11.0102987
  83.8504333  39.1371384  11.1512909  20.7594357  58.5188141  58.3028603
  21.0798798  59.4015961  58.1178093  21.3839493  58.1651878  58.9362335
  75.8455353  15.4117079  55.8736801  76.1998444  16.3005047  55.9007721
  76.6151581  14.8496943  55.7839432  30.4249897  47.7987442  38.3761826
  30.3144016  47.1793785  39.0975609  31.0543594  48.4402771  38.7056694
  27.0170631  59.7909660   1.3497415  26.6046696  59.0140915   1.7273988
  27.8714657  59.4847221   1.0456964  77.2199631  57.7559891  79.2087784
  78.0807419  58.1667709  79.2896729  77.4099274  56.8345680  79.0323410
  24.4587555  64.7284012  60.7008133  25.0019588  65.4942093  60.8870773
  24.5934887  64.5603027  59.7681732  23.7167645   5.0538616  22.5588226
  23.7870770   5.1551490  23.5080490  23.1974487   4.2585168  22.4406357
   0.1450894  70.7472382  10.9799776   0.1895005  71.4043655  11.6745539
   0.0834528  69.9122162  11.4438496  71.9784317  33.9301682  34.2261429
  71.1724854  34.4191589  34.3921661  71.8360596  33.0831833  34.6487236
  55.4898071  57.4356384  13.5977831  55.7362175  58.2723122  13.9921045
  56.3228951  56.9942856  13.4322453  29.1811008  23.1653538  85.4590073
  28.5138283  22.9221783  84.8172607  29.2925148  24.1089268  85.3428650
  58.5298004  53.4891014  41.6408691  58.3039970  53.1033783  42.4873123
  58.3052177  54.4151001  41.7320824  66.1911163  26.8245430  71.2925491
  66.4816666  26.4526749  72.1253357  65.3229141  26.4469433  71.1515503
  38.3492966  28.4456959  70.5719223  38.2744713  28.9291801  71.3946457
  38.3868408  27.5266342  70.8367767  63.0132294   8.4617968  50.2542038
  62.4155769   7.7291427  50.4034042  63.1702309   8.4543619  49.3099937
   8.1225367  41.0063133  57.1451874   7.3040619  40.9076767  57.6316071
   8.3230534  40.1241722  56.8323822  57.2955322  32.1160240   6.7424722
  57.8805084  31.6647453   6.1338792  57.7135162  32.9640350   6.8921313
  15.9020367  60.0797653  68.2701416  16.0146904  59.4855614  69.0120773
  15.6840830  60.9222031  68.6689301  49.4168282  69.7687225  23.6247025
  48.8820801  69.9142075  22.8442440  49.0435562  68.9850540  24.0281315
  22.4663525  64.3869553  40.9163742  22.4535599  65.3436737  40.8889465
  21.6142883  64.1259155  40.5669785  53.7092361  54.5402184  69.8063507
  54.4350433  54.7331390  69.2128677  54.1246414  54.1417809  70.5711517
  82.0242004  31.5221577  82.6432800  82.1171265  30.6879578  83.1033936
  81.8951569  31.2772141  81.7269897   9.9194441  39.4675255  38.5775681
  10.5620174  39.0042305  38.0402718   9.3355875  39.8861542  37.9450378
  60.7606125   2.1078312  53.6847992  60.7425690   1.9175302  52.7468796
  60.3248711   1.3579251  54.0897713  35.7292252  42.3804169  34.8337173
  35.4581223  42.6973114  33.9721413  35.0799713  42.7419090  35.4370613
  50.9187126  14.0894794  46.5018959  50.8961182  13.1401520  46.3814812
  50.5037422  14.2329693  47.3524475  55.5608978  62.7188606  15.2084284
  56.3649902  62.6383858  15.7214499  55.7629356  63.3826103  14.5489969
  51.5622330  35.5459671  86.5232162  52.4681625  35.4046936  86.2483215
  51.6332741  35.8973846  87.4107361  46.9180565  23.2365170  63.7828789
  47.0040359  22.8135643  64.6372452  47.6163292  22.8512344  63.2535362
  11.2095404  42.1111107  38.9638824  10.5259981  42.6436539  39.3705750
  10.8855581  41.2129631  39.0317154  46.7300644  50.9963531  56.5828819
  46.5430031  50.1066856  56.8824310  45.9180756  51.4779625  56.7408562
  45.4608078  42.6900330  39.5856209  44.9884186  41.9279976  39.2503777
  45.9622650  42.3533478  40.3281937   7.0243130  52.7995415  18.3842831
   6.9030523  52.0450287  18.9606857   7.4261041  53.4652672  18.9425011
  41.5557823  56.2368889  28.0081882  40.9512672  55.8206444  28.6226254
  41.0992355  57.0279465  27.7217903  63.6101036  51.0616798  80.9840393
  64.2905579  51.6926155  80.7492371  63.9131203  50.2332268  80.6124420
  60.5106468  47.7450790  35.2096062  60.1298828  48.6040268  35.3925209
  60.5822105  47.7130508  34.2556229  19.9883652  70.7814178  22.7014465
  19.9131145  71.6202393  22.2465210  19.1201859  70.6336136  23.0764790
   7.0226150  22.4660378  67.0861435   6.9151206  22.9899616  66.2923050
   6.6880975  23.0238628  67.7883987  61.9142494  34.7938538  60.5306816
  61.1386375  35.0922203  61.0056992  62.5749054  34.6606979  61.2104111
   8.6565552  28.9990158  67.2388687   8.1380415  28.3885365  66.7147598
   8.1848602  29.0621872  68.0693817  48.7871704  56.0969849  65.4834595
  48.4331818  56.5329094  66.2586365  49.4964905  55.5492058  65.8196716
  -0.3011420  21.2116108  70.9094162   0.2564988  21.8456383  70.4585571
   0.3085130  20.6709690  71.4116745  24.3696098  67.2349930  24.6616459
  23.9928207  66.9269562  25.4858875  23.9126434  66.7328262  23.9869328
  20.1589546  37.6671715   3.9166026  19.6971798  38.0818672   4.6453180
  20.9161701  37.2448311   4.3221703  43.1214561  12.1105480  73.0408325
  42.7179489  11.8093500  73.8548889  43.1369133  13.0643625  73.1197739
  33.9942741  51.4742546  10.8205385  34.7726326  51.7069321  10.3143253
  33.5564499  50.8061371  10.2931318  56.1348114  14.1330452  11.6852131
  56.6546898  13.3295021  11.6685476  55.6703758  14.1352339  10.8482389
   3.8101985  32.3582039  39.8094749   3.0965493  31.7215576  39.7692413
   3.7774899  32.6984749  40.7035561  73.8194275  27.9643688   5.6696305
  73.4229584  27.0962543   5.5960255  73.3727570  28.3694286   6.4130273
  50.9495583  25.9826412  70.0288086  51.3100433  25.0960407  70.0139160
  51.5378304  26.4898071  69.4693832  23.3030643  71.2648010  48.4787598
  23.4688625  70.4443283  48.9430504  23.0069981  71.8694458  49.1591911
  62.6071587  69.2299500  54.1947365  63.0290413  69.9898758  53.7937889
  61.6747284  69.3514709  54.0157356  27.6093903  29.5057087  18.5378017
  28.1994057  30.2571945  18.4796314  27.7213173  29.1819401  19.4316025
  83.2286224  27.0500546   5.9588380  82.3036270  27.2957096   5.9752374
  83.5368500  27.3348427   5.0985346  80.1386032  49.3619347  11.8798027
  80.8532791  49.9922028  11.9705572  80.2257309  48.7896271  12.6421041
  59.1278610  12.1074600   1.7729578  58.7463112  12.9023457   1.4003863
  59.1913414  11.5029335   1.0335325  10.8163948  18.4891663  88.3936539
  11.1690979  19.3686619  88.5289993   9.8842821  18.6280918  88.2260361
  86.5221405  26.4372444  11.7143736  86.9092712  26.4622097  12.5894403
  86.9770584  27.1272202  11.2314453  16.9885445  67.8549957  72.5692062
  16.0525150  67.7602005  72.7455368  17.1871662  68.7599106  72.8098755
   8.8161364  31.5382500  74.3641891   8.6074314  31.6802883  73.4408798
   8.7441502  30.5911942  74.4830704  22.0003014  15.7605991  17.0165291
  21.3527203  16.4636879  17.0668983  21.8437119  15.2341347  17.8004589
  11.9894638  67.7270203  84.7331619  11.2842770  67.4503632  85.3183136
  11.9435902  67.1164474  83.9974060  20.3925476  59.6131935  49.5175362
  20.0762424  58.7166481  49.6288223  19.6678200  60.1618347  49.8175316
  33.7319870  40.6459274  54.9457321  33.9824905  39.7400589  55.1270561
  34.4689751  41.0037270  54.4507027  10.8977861  54.5859871  70.3283844
  10.0291348  54.6390877  70.7269516  10.7790461  54.9403839  69.4471741
  68.0480423  54.0197716  14.3247557  68.3687820  53.1852722  13.9827538
  68.8021851  54.3996010  14.7755690  73.7059555  25.9469166   8.2472239
  74.5912476  26.3098621   8.2198448  73.4499054  26.0092144   9.1674366
  80.5401382  61.1303635  56.4378586  81.2687836  60.6451836  56.0506744
  79.7568436  60.7040253  56.0901337  44.2616043  56.4928284  25.1393261
  43.4673195  56.3376350  24.6281929  44.9447098  56.6332893  24.4836845
  29.2183323  45.9126816  67.4763641  28.5451279  45.5051651  66.9314270
  28.8930912  45.8157196  68.3713837  51.0814896  53.0516205  86.8098068
  51.6324768  52.5080490  87.3729935  50.1902313  52.7473526  86.9810104
   4.3741999  65.6598434  77.2117462   4.1128635  66.5724030  77.3348923
   4.9951539  65.6846924  76.4837112  70.4604797  47.0136871  36.2591705
  69.8379440  47.7297516  36.3854332  71.1858292  47.2201881  36.8486290
  71.9617996  63.5870781  51.4105530  71.8833313  62.7698174  50.9184608
  71.1068192  64.0068665  51.3155937   3.7065246  61.6445847  59.7767563
   4.0224433  60.9928169  59.1509552   3.5433989  61.1475754  60.5783806
  49.7678261  16.2317352   3.2313313  49.9584732  16.5935669   4.0967588
  49.0186691  15.6531029   3.3733768  44.6871071   7.4623575  63.2403183
  45.5708923   7.5433159  62.8817101  44.1791992   8.1294174  62.7784882
   5.9551725  43.0160789  44.2253838   6.4533353  42.2171059  44.0530167
   5.1880231  42.9473076  43.6570663  78.6366348  40.4114113  21.6405563
  79.5700760  40.5735435  21.7770329  78.4889755  39.5393753  22.0065918
   1.1765789  67.0678787  27.5586796   1.9662060  66.5284576  27.6004543
   0.6481122  66.6659012  26.8692074  80.7916336  39.8407173  35.0663948
  80.9681473  40.7812424  35.0884361  81.3758011  39.4717979  35.7288666
  80.8309937   0.9321222  84.8958359  80.3571243   1.7615376  84.8346176
  81.5666962   1.1190829  85.4789505   3.8781109  26.6098766  17.4793186
   4.0770307  27.4832687  17.8167343   3.0403144  26.3824177  17.8825436
  80.0574875  48.7637634  22.6160908  79.7041702  49.0172997  23.4688015
  79.4880371  48.0524864  22.3227634  12.8311443  22.1666641  68.2675247
  13.7565527  21.9955750  68.4423981  12.3755207  21.4019585  68.6194687
  51.0851173  26.9904766  36.8966827  51.7570229  27.6391201  37.1065331
  50.9986992  27.0346279  35.9444160  52.8714638  32.3937645  12.2332411
  53.7111206  32.0058746  12.4797134  53.0280724  32.7748108  11.3692322
  69.4395981  36.9800720  14.1464214  69.7933807  36.3648987  13.5040646
  70.1290894  37.6349335  14.2559280  53.1473770  60.2711105  80.0881195
  53.8688545  59.6604805  79.9370270  52.6638145  60.2796059  79.2620926
  14.2791796  69.9131012  70.9501114  14.8605719  70.2959900  71.6070786
  14.7972164  69.9087830  70.1452179  46.1535149   9.4775248   1.7584589
  46.2396126  10.3982658   2.0055521  47.0545883   9.1598043   1.7005713
  73.4280472  34.3129539  54.7001572  73.6829300  34.9284515  55.3874893
  74.0222092  34.5046692  53.9745903  53.7979469  48.3642731  67.6679764
  53.1838303  48.6933136  67.0116043  54.6361389  48.7619705  67.4323883
  27.3478584   5.9459500   2.5211234  26.6586227   6.5419636   2.2279465
  26.8807125   5.1587753   2.8010530  38.4543686  31.8507595  20.3081226
  38.2715607  31.1989822  19.6313667  38.3635712  31.3723240  21.1321907
  17.4304218  52.2426758  72.9994507  17.0234127  52.4483490  72.1578598
  17.4294205  51.2862778  73.0386124  68.7937698  44.6956673  76.7437592
  69.4119034  44.4381294  77.4277267  68.2662048  45.3860741  77.1453171
  25.8279438   8.4994993  13.5459938  26.3388672   7.7053947  13.3891830
  25.5342102   8.4200058  14.4535360  16.1249466  19.1197453   0.6539429
  16.1284409  19.4795074  -0.2330693  16.9491673  18.6375427   0.7200780
   4.9022713  11.6545143  12.2409172   5.7336369  11.2385321  12.0128355
   4.9612875  11.8064241  13.1841421  63.9647789  31.0063419  87.3765411
  64.6855621  31.6006489  87.1679764  63.1949272  31.4156437  86.9815369
  57.2461700  52.0470581  60.0830612  56.8154335  52.0384445  59.2282982
  58.0374222  52.5683212  59.9472923  49.9147377  26.1209850  54.4361343
  50.0213852  26.3670387  55.3549995  49.5668221  26.9077225  54.0163383
  10.8846617  54.5887604  49.8634071  10.8944635  55.5279045  50.0481796
  11.6863451  54.4346046  49.3636398   4.6326466  59.2647591  11.8030319
   4.3355684  58.6177483  11.1632242   4.8543973  58.7499886  12.5789633
  37.8167267   3.8759708  60.2445831  37.8385468   3.0246193  60.6815681
  37.6344376   3.6699946  59.3277550   6.1092467  40.9871521  54.3101082
   6.7829452  41.2251472  53.6731453   6.1457772  40.0315475  54.3516197
  52.8958473  64.5355606  47.0565224  52.3134918  64.9178772  46.4000702
  52.6288910  63.6177864  47.1080704  67.9767303  67.8448944  72.3475494
  68.3779984  67.9164963  73.2136230  67.6004639  68.7100220  72.1856461
  78.0909729  30.7045174  73.6278992  78.9426041  30.3535824  73.8882751
  77.6686783  29.9849262  73.1587601  57.9790916   4.4916058  84.9457245
  58.2637672   4.2964139  84.0529251  58.2640114   5.3929257  85.0963058
  20.5316734  63.6801300  25.4278107  20.0761280  63.3819504  26.2150822
  19.8421459  64.0541611  24.8792820  86.0203781  44.7617989   1.1835282
  85.2043076  44.5129471   1.6174967  85.9784241  45.7162018   1.1236227
  84.6765442   6.7252011  27.5122662  85.2802887   7.2262483  26.9639225
  84.6250305   7.2228107  28.3283310  30.5618477  66.5098419  52.9886742
  30.6883907  67.0886307  52.2368584  31.1827850  66.8287354  53.6436348
  45.2197762  34.4489822  71.0759354  45.2134933  35.3969498  70.9434586
  45.5353584  34.3345032  71.9723358  12.1168461  51.0342445  23.9714642
  12.9085903  51.0041046  23.4343739  12.1190882  51.9123993  24.3523464
  30.7345352  69.3816986  77.3566055  29.8434963  69.5365906  77.6701202
  30.8178177  68.4284210  77.3330002   1.1512753  19.6310520  86.0898514
   0.4627196  19.4066467  85.4639435   1.0854391  18.9599228  86.7691803
  59.1847954  47.4456711  84.7834473  58.8776512  46.5780334  85.0463257
  58.7567863  47.6066437  83.9425430  61.7528381  70.0049896  83.7568359
  62.1841164  69.6659546  82.9724274  62.0389099  70.9167557  83.8123169
  85.9008942  37.4092941  70.3750916  85.7739182  37.2192001  69.4455872
  86.1372757  38.3365173  70.3998184  62.5578194  50.1565132  58.7134857
  62.0156441  50.9099350  58.4797363  62.1346397  49.4139709  58.2824631
  78.5310059  20.4421711  36.8245277  78.0947647  20.7564754  36.0326080
  79.2929993  19.9602757  36.5030136  10.2356806  47.7224579  41.6913872
  10.4240189  46.8163719  41.4469032  10.3559046  47.7443047  42.6407585
  69.6187973  51.0723228  11.6464167  68.7187119  51.2851944  11.3999157
  70.1517944  51.4223595  10.9325399  80.4427414  51.5380249   4.9912920
  79.8256149  52.2064247   5.2889957  80.9228821  51.2868843   5.7803588
  61.5714645  62.7344322  88.0901642  60.8711243  62.3921928  88.6457062
  61.9589958  61.9573975  87.6873322  28.0260754  59.8110695  52.3093948
  28.6991482  59.1791611  52.5621719  27.2215672  59.2952652  52.2551537
  18.0361652  62.1686859   8.9542322  17.8006401  63.0791969   8.7761078
  17.6339531  61.9786606   9.8017864   4.0939884  44.1784515  67.7762299
   3.3643324  44.6507149  68.1772232   4.5623660  43.7894897  68.5148468
  55.8296471  23.2032948  63.0583267  56.3036079  22.3740730  62.9952164
  55.3679695  23.2794437  62.2232895  51.1370468  27.6108742  45.1140442
  51.5829430  26.8778114  44.6897469  50.8318672  27.2549667  45.9485664
  20.2790260   1.0105921   0.2633118  19.8246746   0.2381223   0.5995967
  20.6785812   0.7160730  -0.5551292  82.4037323  58.4670639  66.4088974
  82.3454132  58.5666466  65.4586792  82.6282425  59.3411369  66.7279892
  26.8386478  45.4170799  59.1523590  26.1000252  45.0034599  58.7056084
  26.4512787  46.1555748  59.6222496  47.4948502   9.3322039  66.8004837
  47.2877884   8.9681053  67.6611710  47.6735420   8.5672684  66.2535095
  75.3023987  68.6430359  54.3551826  74.7667389  67.8551712  54.2625656
  76.0397644  68.3686066  54.9003525  55.8556786  16.0615292  75.6631393
  56.7480698  15.9676199  75.9963913  55.9452019  16.6242905  74.8940430
  77.6971436  25.0623589  50.4150620  78.1100311  25.7190037  49.8541946
  78.2467270  25.0366802  51.1983452   1.8457906  34.5625114  10.9295235
   2.3903522  35.2452888  10.5377378   1.1290838  34.4410210  10.3067846
  54.2882957  45.6051102  88.9233551  55.2381935  45.7208099  88.9465714
  53.9371300  46.4929085  88.9920883  18.6307945  33.4913216  78.3532867
  18.3310776  33.5478897  77.4459763  17.8572121  33.2142448  78.8442307
  61.9614983  22.3123074  41.8795738  61.6612358  21.4059315  41.8120804
  62.7609100  22.3395748  41.3538094  22.9790401  21.0561123  45.9792938
  22.7107906  20.1449451  45.8607635  23.2553787  21.3397312  45.1078415
  62.6159401   2.9399259  41.7521172  62.7405396   2.3075533  41.0444374
  63.4726410   2.9978898  42.1751213  26.0485249  33.7842102  85.1231689
  25.5672150  33.9281044  84.3083878  26.9630280  33.7081604  84.8508987
  10.7563753  52.7708130  57.6339378  11.0868864  53.0314178  56.7742424
  11.4397488  53.0437737  58.2460861  13.7595491  36.3969345  25.2215519
  14.4543753  36.2423439  25.8615131  13.8357983  37.3261948  25.0050011
  74.6971436  10.0154629  32.7552681  74.7797165   9.0931721  32.9977417
  75.0663376  10.4924889  33.4984894  31.0751019  63.8889847  65.7408066
  30.3462582  63.6855507  65.1546097  30.6578522  64.2245941  66.5342178
  48.4533386  39.5546036  16.0496216  47.5880318  39.1979141  15.8489895
  48.7412453  39.9591942  15.2313013  66.0027695   4.9747686  14.7146673
  66.5757523   5.6162243  14.2946033  65.1632843   5.0730429  14.2654104
  55.7722664  47.1843987  72.6143951  56.1508865  46.7745705  71.8366318
  55.0117607  46.6424484  72.8245163  66.4317551  71.3517990  16.7289314
  65.4793396  71.3253937  16.6371021  66.5888290  71.1562195  17.6526794
  80.4316711  64.9852066  52.5092926  79.8026505  65.1890335  51.8171806
  81.2713470  65.2929993  52.1680603  67.8987732  51.2036514  38.6895370
  68.0948715  52.0094185  39.1675682  67.8203735  51.4799194  37.7764320
  67.0831451   5.8144221  22.2113113  66.6775894   6.6501646  21.9804668
  67.2596283   5.3933640  21.3700066  86.4867706   2.3034985  15.2205963
  86.1626816   3.1713393  14.9796581  87.2780457   2.4764400  15.7306929
  48.3622055  31.9445477  10.7451410  48.7690506  32.2064323  11.5710497
  47.4448929  31.7877350  10.9691486  59.9001732  42.9429550  22.8122082
  60.4406013  42.3570709  23.3422203  60.4026031  43.7564087  22.7665501
  68.6835022  70.9413376   7.7705717  68.3436890  71.8272018   7.6440840
  68.4210892  70.7090607   8.6613111  75.3762360  66.8790817  43.4049530
  75.5068817  66.4885635  42.5408592  75.4377899  66.1420898  44.0126495
  73.5540237  21.1841698  50.5427780  73.9538803  21.7865639  49.9155083
  73.5233688  20.3451805  50.0830116  20.8732624  16.1807308  45.1570702
  20.4682579  15.5747795  44.5365677  21.5209827  15.6506109  45.6214676
   3.1848645  59.8428688  88.1701126   3.6633205  59.6527634  87.3631668
   3.3438425  59.0813866  88.7278824  51.2858009  20.7048817  59.6561661
  50.7302589  21.4372234  59.3891830  52.1701317  21.0705624  59.6778107
  66.0631104  47.5497589  46.6346855  65.5989685  48.3688278  46.4616852
  66.9705505  47.8155212  46.7835464  71.4418259  38.8605270   3.6194398
  70.5229492  38.9169655   3.8815708  71.8809433  38.4607887   4.3701830
  79.3593674  50.8385048   9.4599667  78.9623871  50.2324219   8.8344259
  79.5170593  50.3076668  10.2407198  61.7401924  18.8434029  33.7423058
  61.2713585  19.6600189  33.5703659  62.6098099  18.9829998  33.3674545
  15.7773333  38.2877922  64.3839645  15.0461836  38.5739822  63.8364754
  16.2929764  39.0811195  64.5287933  43.8499336  52.1772614  57.0120163
  43.9828415  52.3370438  56.0776520  43.4544830  51.3064957  57.0522194
  18.0996494  10.1060524  60.5172768  18.6934338   9.4053020  60.2478294
  17.2274265   9.7785559  60.2977180  20.8133965  13.2197351  44.3512344
  21.6762371  13.1947851  44.7648964  20.9489822  12.8239059  43.4903259
  22.4153671   8.2594910  11.1499910  21.7680702   8.5931463  11.7712097
  22.7957211   9.0444040  10.7556877  78.6362228  46.3569641  63.6741867
  78.6671371  45.7522659  62.9328270  79.2941666  46.0225029  64.2836761
  67.2211533  23.3583641  63.0074501  68.1056290  23.7225494  62.9714355
  66.8405762  23.7317524  63.8024178  86.0636444  22.1898632  78.2377853
  86.6608429  21.4503002  78.3501816  86.3105164  22.8042641  78.9290085
  11.3379488  41.1835480  31.5305519  12.0032101  41.1705627  32.2186584
  11.8363218  41.2610435  30.7170086  43.1216316  57.3613434  53.7003670
  43.0981789  57.2727242  52.7475662  43.8904915  56.8583450  53.9688416
  10.9239292  41.1763535  42.1200790  11.5862579  41.8185616  42.3752670
  11.4078999  40.5187263  41.6205482  11.1572638  52.5413857  63.9263458
  10.8354549  52.5413246  64.8278275  10.3988876  52.7972183  63.4013290
  70.2363205  61.2122040  86.3123016  70.8291550  60.8536873  85.6518173
  69.3610382  60.9933281  85.9925919  43.3078232  67.6036377  68.3828506
  43.2858200  66.9844360  67.6532364  42.6360817  68.2508316  68.1680679
  59.3193703  28.0756664   6.1405344  59.3412781  27.3962078   5.4666739
  60.1380119  27.9608707   6.6231151  75.3776855  11.5789595  71.6826401
  75.7355423  10.9592285  71.0469513  75.2970810  11.0729952  72.4911804
  38.0185738  13.8643036  88.3247070  37.2855911  13.3106852  88.5939178
  38.5296402  13.9905224  89.1241531  47.6085281  23.4364605  42.4470749
  48.1630287  22.6648083  42.5624504  48.1774254  24.1748886  42.6645927
   8.0853004  35.7068748  50.8066750   7.3427377  36.2285233  51.1111679
   8.3640537  35.2137794  51.5782890  57.6322365  47.6951942  46.1617661
  57.0658112  47.3248253  45.4848480  57.0307770  48.1324997  46.7644653
   5.6982994  36.3280258  30.9839649   4.8925781  36.3825111  30.4700813
   6.2259793  37.0669823  30.6810894  36.6277008   9.9580088  87.5875092
  37.5758896   9.8922195  87.7008209  36.3783875  10.7284966  88.0978241
   0.3853664  57.0643463  77.6651382   0.1019221  57.7961197  77.1170502
  -0.0767606  56.3054314  77.3091660  60.8961411  27.8582592  82.8078308
  60.4954300  28.3165646  83.5464859  60.2522011  27.1949310  82.5596924
  51.1464882   2.5828390  33.1778870  50.3210411   3.0618939  33.1045952
  51.3463593   2.5918734  34.1139450  23.3743706   0.6584112  89.4881744
  22.7608261   1.3680569  89.2979126  23.8578930   0.5344157  88.6714325
  54.9790840  55.5084991  21.7689018  54.3978844  56.2424812  21.5696373
  55.7616959  55.9164581  22.1394711  38.8057098  69.8163528  12.5482388
  38.9114799  70.2007141  13.4184752  39.5407257  69.2090378  12.4636965
   2.5976367   4.3385487  87.1842728   3.3995647   4.5056357  86.6890717
   2.2045319   5.2032704  87.3024139  76.5827560  15.7609367  46.7850418
  76.7191696  14.8990030  47.1783562  77.4647980  16.0776138  46.5902252
  74.2909241  40.4551201   6.1997132  73.8708725  39.6221504   6.4140840
  73.8133850  40.7740822   5.4339118  55.2871857   9.9959869  28.7159691
  54.8008270   9.5285149  28.0368824  55.5947800   9.3084002  29.3065987
  35.7221260  31.3147507  86.6394958  36.2049789  31.4543686  85.8248825
  35.1968765  32.1079102  86.7455368  21.2480583   9.4409456  51.8071442
  21.8176346   8.9406977  52.3915787  21.3757191   9.0400953  50.9473457
  17.7270336  24.0935040  69.8512115  18.0363903  24.2240524  70.7475891
  18.1165619  23.2615662  69.5821838  69.1077118   5.4853649  27.7473793
  69.7525635   4.8966756  27.3551502  69.4147720   6.3629050  27.5196285
  73.7721405  28.8368473  82.4007874  73.7011642  28.8823719  83.3542633
  74.0144958  29.7241993  82.1360092  50.9810867   5.3605013   5.7588840
  51.6962929   5.8901429   6.1112914  50.6718063   4.8481998   6.5059614
  50.3185043  10.9810266  25.3097801  51.0398140  11.1464624  25.9168854
  49.6732559  11.6578112  25.5143547   9.1539526  25.7940693  82.1285477
   9.1887589  25.2011585  81.3778915   8.9826441  26.6547184  81.7462234
  74.7135544  35.2102318  43.4680176  75.2557602  34.8471565  42.7677231
  74.9510269  36.1369972  43.4987755  23.6353283  66.9192429  48.4792099
  22.8597164  66.9181442  47.9182663  23.4663677  66.2312164  49.1228790
  54.8187218  11.1064682  88.3811035  54.4900742  10.9167032  89.2598572
  55.6969604  10.7260523  88.3665161  17.7952824  13.3107710  70.1010895
  18.4796162  12.6878414  70.3457870  17.1745663  12.7947960  69.5865860
  18.0627670   8.0175152  75.7933121  18.6130371   8.7989235  75.7400589
  18.2329197   7.6637940  76.6663284  81.7033386  21.8665638  83.4776535
  81.7957077  22.8106136  83.3493271  82.4221573  21.4848957  82.9738007
  18.5851440  36.9850883  70.6918411  17.9573269  37.0723495  71.4091034
  18.5412407  36.0609856  70.4462051  63.3304825  47.9537468  49.8124237
  63.8308678  47.6117439  50.5532875  63.7675934  48.7748833  49.5867996
  16.8651505  64.6808701   5.3289504  16.1339111  65.2538910   5.0983686
  17.6360588  65.1199341   4.9695668  66.0641785  71.0643997  25.8220501
  66.0174179  71.5039597  24.9730320  66.9605560  70.7321930  25.8707218
  85.4369278  51.9221230  77.6790314  84.4843292  51.9945679  77.6194687
  85.5877609  51.0605583  78.0678482   6.9705925  70.6894455  16.8720169
   6.1163468  70.3047256  16.6758366   7.5973339  70.1236420  16.4211407
   6.3575602  38.1770706  62.5241013   6.4472814  38.0199776  61.5841522
   5.6254687  38.7895584  62.5957642  71.5857010  57.8291626  29.0603104
  70.9666977  57.5875053  29.7492733  72.3484573  57.2726784  29.2176666
  55.7674561  45.2225761  81.5927582  56.2611809  44.5152550  82.0076828
  55.1457634  44.7757301  81.0182495  82.9243774   8.3788118  67.6762619
  83.1180496   8.8338385  68.4958191  82.3761215   7.6387577  67.9369659
  23.9365158  70.0278931   5.2677855  23.0625267  69.6436386   5.3365054
  23.9872894  70.3479691   4.3671169   1.0737904  71.3161316   1.1916969
   0.4456175  72.0379486   1.1668087   1.0923967  70.9837646   0.2942474
  17.8207703  54.2826576  17.0260601  18.6145782  54.5800095  16.5814419
  17.9756317  53.3536377  17.1968670   3.8282647  49.1345482  10.5489340
   3.2156680  49.6037369   9.9825239   3.7749970  48.2243881  10.2573729
  58.0883751   3.1361547  39.8060570  58.6529732   2.3975940  40.0340691
  58.5736618   3.6087651  39.1297684  30.2286396  56.7352066  12.0432549
  30.2437325  57.5971413  12.4592752  29.9772091  56.1348686  12.7451134
  79.2532120   1.7684296  44.3563957  79.9341812   2.3505332  44.6935310
  79.6340408   0.8925198  44.4194946  84.8207169  26.1413765  64.0607758
  85.0083542  25.2027740  64.0540314  84.1826172  26.2631168  63.3577538
  42.5718193  19.6153431  81.5764618  41.7907028  19.0904789  81.4015121
  42.4545441  20.4034748  81.0460587  66.7685318  30.8889313  14.6568928
  67.4294128  30.6233883  14.0173988  66.3411865  31.6473312  14.2588444
  73.7662811  10.0022230  86.2525787  73.6257019  10.7433758  85.6633759
  74.6326370  10.1566191  86.6291809  31.5224476  46.1841087  71.4776230
  32.0869980  45.4573441  71.2143173  31.6094532  46.2220726  72.4300995
  17.3995323  40.4404335   8.6503401  18.2211609  40.7733574   8.2893419
  17.1786346  39.6935768   8.0938826  63.0826683  17.0215740  70.1633377
  63.9663353  16.7315331  69.9369888  62.5216904  16.6213551  69.4989929
  18.4820385  37.7844276  63.3529015  17.5390415  37.6303024  63.2960205
  18.6263504  38.5787582  62.8386612  80.9296341  22.5309486  17.8145905
  81.6730728  21.9979286  17.5327816  80.7405548  22.2278366  18.7026234
   3.0807264  68.4916077  74.9277115   3.4728017  68.7294540  75.7679138
   3.7970853  68.5716476  74.2979050  11.4008017   1.0788157   5.1427093
  10.9904156   1.9417790   5.1984763  11.5178671   0.9294488   4.2045102
  83.0234222  41.5026016  27.9184971  82.1562195  41.3941040  28.3089142
  83.4198532  40.6328850  27.9701443  10.9700060   1.5436059  64.8792496
  11.6612806   0.8879957  64.7868042  10.2557592   1.0787350  65.3151093
  53.9777107  19.3766193   8.4665308  54.5362816  19.4780693   9.2372055
  54.0965233  20.1898727   7.9758825   0.1366552  56.2083092  69.1151581
   0.9981366  56.5793152  68.9242783  -0.3087069  56.1886940  68.2681046
  48.8925514   1.3955983  36.2671051  48.2795563   1.3201997  36.9983902
  49.4867630   2.1005492  36.5243759   2.9677744  22.8511333  19.8783970
   3.1638336  23.5685329  20.4810009   3.7484245  22.7795944  19.3291264
  18.3672276  63.3067169  12.8909721  18.0430145  62.8312378  13.6558495
  17.9311676  62.8903046  12.1475439  39.4725304   2.2472222  57.1300507
  39.9681587   2.1595170  57.9442329  39.8852844   2.9820921  56.6763649
  85.6583710  36.8554268  12.4955740  84.7628250  37.1774597  12.3929596
  86.1790543  37.4047890  11.9096394  26.3726177  63.2764664  12.2472057
  26.7425022  64.0314255  11.7895432  25.8883400  63.6549072  12.9810238
  70.4668274  58.6348038  31.6904221  71.1065826  59.2908211  31.9671555
  70.1093216  58.2889862  32.5082436  69.7459335  21.7392197  40.8274841
  70.3744125  22.4347134  40.6337547  69.7932816  21.1558228  40.0700951
  46.2417107  48.1365623   1.0695817  46.2047691  47.3033867   1.5393550
  46.3692894  48.7924957   1.7549335  56.8819656  50.7625198  64.5432739
  56.2742767  50.8322830  63.8070145  57.5469818  51.4285355  64.3688812
  86.5002518  27.5333958  53.8553123  87.0371323  27.1738186  54.5615005
  85.9704285  26.7941074  53.5570335  48.8603554  61.8236732  12.0273857
  49.7340965  61.4437065  11.9355650  48.4007988  61.2274208  12.6185894
  70.2047348  64.4718704  44.4675560  70.6609650  65.2984390  44.6252403
  69.6996918  64.3208466  45.2665329  68.7629929  24.6092968  42.6265602
  67.8095551  24.5545387  42.6912155  69.0772629  24.3450317  43.4912186
  13.7042513  55.2349701  50.6270561  14.5573616  55.6690331  50.6319542
  13.6694632  54.7846947  49.7830963  59.1463509  65.2856979  73.7640228
  59.1470413  64.6571960  74.4859772  59.6146507  64.8400726  73.0580826
  80.1281204  52.4558830  63.1062202  80.5959854  52.9415245  62.4268951
  80.6638947  52.5663834  63.8916931  16.6756001  45.9201202  47.4825478
  17.5214748  45.9025192  47.0348663  16.5157261  46.8477783  47.6561089
  49.5470352  18.7286282  14.5726004  49.0655365  18.1105442  14.0227242
  50.3839264  18.2962894  14.7426720  66.1080399  21.3506031  58.5421295
  65.9802399  21.5437393  59.4708900  67.0571594  21.2790260  58.4407654
  81.3278580  20.4129581  87.0585022  82.1001434  20.1655941  87.5670395
  80.6757431  19.7460995  87.2736282  43.8622093   1.5151038  27.2819901
  43.2097244   2.2143273  27.3217888  44.6877556   1.9674580  27.1085453
  62.4300766  37.9460411  29.2869110  61.7133598  38.1700172  29.8805332
  62.9902954  37.3615952  29.7976055  42.2262268  40.5647011  72.9594040
  42.1883011  40.7427406  73.8991394  41.4315338  40.0627441  72.7784653
  21.9091644  42.5898399  13.7313347  21.4694061  42.2996979  14.5304976
  21.6464252  41.9515724  13.0681524  73.4288635  39.4738655  60.5736847
  74.0634995  39.7134628  59.8983574  73.9363098  39.4602089  61.3851891
   5.3339663  30.2825832   7.2466388   5.1581030  31.2112045   7.0950937
   5.2923174  29.8858185   6.3765383  73.1347885  17.9131374  81.7332840
  73.9437027  18.3833675  81.5313416  72.5988998  18.5502872  82.2056122
  45.7218170  64.3402481  53.4522934  45.2077065  63.5384407  53.5473137
  45.0687485  65.0342789  53.3625565  76.7884216  27.2751713  16.1717491
  76.2598877  27.3863964  15.3814859  77.5586929  26.7885990  15.8782120
  64.4862518  31.0242100  80.5907440  64.8044434  30.2613621  80.1079941
  64.7091446  30.8402424  81.5032730  54.8892326  37.6813507   7.2700939
  54.8000565  37.7995033   8.2157784  54.4649124  36.8419113   7.0925322
  36.4885483  61.1516876  18.1066265  36.5514488  61.1158867  19.0610867
  37.2750282  61.6232986  17.8322887  29.1469460  25.1078930  19.0184746
  29.0730057  26.0067043  19.3392563  28.6601849  25.1069279  18.1942825
  56.6379280  41.2680359  54.7985916  56.3585587  40.4624329  54.3636284
  56.8883896  40.9900703  55.6796341  28.7006416  26.7674904   9.1558323
  29.3697624  26.8215847   8.4734955  27.8855000  26.9993820   8.7108574
  45.5008736  10.2063370  53.5474091  45.5024033  10.8972807  52.8849678
  45.9950027   9.4904499  53.1479454  43.7242241  31.7003136  40.9621811
  43.3933372  31.1895618  41.7010155  43.8341064  31.0604820  40.2587814
  44.6406212  23.8891182  37.3664818  44.7748413  24.4655361  36.6141777
  43.6960678  23.7351017  37.3847008  14.6108980  49.4658470  72.7180481
  14.2154455  49.2678452  71.8691406  14.0397320  50.1330948  73.0985489
  19.3301392  50.7476578  61.3824120  18.9829865  51.2977409  60.6801834
  20.2015896  51.1032562  61.5566330  38.4724808  48.6574707  67.3126221
  39.3453445  48.7139091  66.9238358  38.4084396  47.7558670  67.6276474
   3.0148308   7.4147067  61.5131874   3.6603560   7.0204792  60.9265785
   2.8615854   6.7484345  62.1831360  66.7246552  54.7012939  49.1828346
  67.6728516  54.8264656  49.1443520  66.6138306  53.7747154  49.3959160
  42.5948410   0.7931016  57.3271599  43.5105858   0.5182155  57.3727646
  42.1011314  -0.0255498  57.2792931  53.8146362  45.1927567  41.2958488
  54.6377525  44.7347870  41.4660721  53.8311539  45.9436226  41.8892784
  47.3991585  55.7752991  48.0935249  46.9739571  55.0108147  47.7049408
  48.3357735  55.6052055  47.9932632  62.9067039  26.2496529  81.4805908
  63.8280792  26.3698750  81.7104645  62.4377975  26.8707924  82.0378571
  71.2507858  47.5125198  12.3087502  72.0474472  47.0617828  12.0287352
  70.8154755  47.7587814  11.4926071  16.5817623  42.2939796   2.6538723
  16.7287216  41.4848328   2.1640639  15.6302891  42.3517685   2.7409945
  67.4113770  66.4504929  24.0829964  66.6144333  66.9138260  23.8252468
  67.9596024  66.4622040  23.2984314  33.7587090  55.5108070  62.3786354
  33.7627182  56.4062576  62.7168427  33.3467293  54.9948616  63.0716743
  54.8076096   7.7242022  33.9803162  55.1606903   8.5939465  34.1676979
  55.0212326   7.2066259  34.7566605  65.1632767  39.4069786  88.4501114
  64.6547546  38.6005554  88.3645630  66.0130081  39.1199646  88.7845078
  34.4954872  63.2221375  25.3029022  34.5594368  63.0182838  24.3698502
  33.5904999  63.0113029  25.5326481  16.3131447  59.6655121  25.2952251
  15.4117260  59.7999268  25.5878181  16.2724400  59.7587357  24.3434467
  31.2813778  70.6533356   5.6589637  30.3949509  70.2925339   5.6764231
  31.5432205  70.6899719   6.5789247  78.8289871  18.5836029  87.5729523
  78.1233292  18.1174831  88.0212936  79.3628845  18.9468307  88.2795334
  53.8763390  38.1467133  18.6427402  54.5546570  38.8085403  18.5081997
  54.2991867  37.3198204  18.4110451  77.6546249  52.9035263  44.6839714
  78.0891876  52.3380814  44.0454903  78.1017303  53.7458458  44.6013908
  72.4364471  40.3621521  68.0914764  71.8890839  39.5770531  68.1071548
  72.6240311  40.5417862  69.0127640  36.8659096  11.1698608  47.0555038
  35.9118767  11.1333656  46.9867897  37.1750832  11.0633745  46.1558914
   6.8871250  12.7934542  72.9965286   6.9408450  13.5907040  72.4695129
   7.7076058  12.3334303  72.8192673  43.3020897  -0.0944536  75.9163437
  43.6114273   0.8067850  76.0075073  43.9338188  -0.6157750  76.4116974
  76.7454224  70.9249420   5.9066949  77.2004852  70.3533478   6.5251040
  76.8896637  71.8082047   6.2462225   9.4674492  41.2198944  33.6148453
   8.7276649  40.6484146  33.4090195  10.1549788  40.9503975  33.0058212
  23.6637878  52.1806679  63.3795395  24.4548130  51.6755142  63.5674934
  23.8475628  53.0524673  63.7294350  61.5951118  70.2380066  12.9959173
  62.0204163  69.4053497  13.2009439  60.7028313  69.9964218  12.7475195
  68.4608536  41.7222519   2.4207442  68.1381912  42.0545654   1.5830781
  68.2626190  42.4184799   3.0470009  28.8285275  52.1993027  14.3459835
  28.0084667  51.8041115  14.0500813  28.6137047  52.5915260  15.1922960
  73.1666946   0.3627547  74.5615005  72.7643051   0.2323391  75.4201660
  72.4663696   0.7299188  74.0220871  47.1516838   2.7596922  46.0935898
  47.6313858   2.1483817  46.6525345  46.8014412   2.2152202  45.3885269
  59.0538750  52.2306938  72.9947433  59.9722900  52.4519196  72.8404541
  58.9384346  51.3793221  72.5727539  69.6689606  52.7757149  41.9733086
  70.0774460  53.4705429  42.4896317  69.1283646  53.2390099  41.3335037
  73.2782059  32.2330055  56.5609627  74.1573410  32.2844810  56.9360695
  73.2295074  32.9778214  55.9617081  45.1484375  69.4987946  71.5225983
  45.5256844  68.7112427  71.1305847  44.4164848  69.7249451  70.9487228
  12.5069094  56.0079422  79.0399628  12.8051891  55.1477623  78.7444229
  13.0723915  56.2149086  79.7840271  58.9950142  44.1963501  39.0914497
  58.6861458  44.9325638  39.6194839  59.0631104  44.5496826  38.2044601
  35.5896835  55.4532013  72.8066025  36.0197678  54.7083549  73.2266693
  34.6826973  55.1708412  72.6887741  39.0627861  62.1988525  17.4458141
  38.8674927  63.0385094  17.0297947  38.9580879  62.3655815  18.3825493
  34.9793854  34.4569016  32.3764153  34.5492706  35.2958221  32.2107353
  35.8313942  34.6929054  32.7433090  25.8026676  62.0831070   0.5963909
  26.2840233  61.2953796   0.8493972  25.1680489  61.7780914  -0.0520346
  53.2651749  45.0734558  10.8364697  53.7171288  44.5792847  10.1525354
  52.3404732  45.0281448  10.5933609  35.0882072  44.6646500  49.6172485
  35.7414703  44.8326645  50.2964058  34.9745712  45.5086288  49.1801949
  67.3844223  12.0875769  63.8051758  66.6616364  11.5332317  63.5110435
  67.0818863  12.4549627  64.6356735  48.6486053  53.5641899  39.9017448
  47.6985245  53.6687851  39.9531441  48.9990387  54.3426895  40.3346024
  54.7885246   8.3992605  62.9174614  53.9203224   8.2277775  62.5527000
  55.3607140   7.7683496  62.4806747  65.0467224  20.4157982  35.5838966
  65.1307907  21.3646183  35.4895439  65.7095718  20.1799831  36.2329330
  19.8825703   5.6204877  52.4522057  20.3180904   4.9031873  51.9917336
  19.5391083   5.2191362  53.2504425   4.1547265  13.7272224  72.5061188
   3.4821155  13.1200562  72.8146286   4.9818931  13.3156729  72.7564316
  68.9542923   8.7303047  20.6892662  68.8339386   9.4504299  20.0702610
  69.4353333   8.0669975  20.1944389   2.7011898  57.0155640  14.5293045
   3.5990570  57.3246956  14.6497393   2.3860862  57.4890900  13.7594242
  84.3822021  64.8203506  12.8323383  85.1031342  64.2846909  13.1633320
  84.7159119  65.7169495  12.8638430  63.3880272  62.3848724  78.0743942
  63.9059830  62.0270729  78.7954559  62.7160149  61.7231522  77.9108124
  36.0639076  29.3606281   5.2249980  35.1280632  29.5366802   5.3221092
  36.4914589  30.1559677   5.5425911  53.7505951  52.9582672  21.8832073
  54.2038574  53.7852478  21.7192173  54.0244980  52.7057648  22.7649403
  50.8319931  13.4284830  16.4015083  50.2619476  12.8093548  16.8575325
  51.3604774  13.8231268  17.0951881  16.7552605  55.4554443  71.3622360
  16.8068047  55.4391060  70.4065628  15.8184128  55.5106468  71.5506592
  38.2880516   4.4097080  69.8962555  38.1255417   5.0618877  70.5777893
  39.1925087   4.1319609  70.0413208  54.0058098  20.0600090  82.2357559
  53.3276062  20.6148262  81.8504715  53.5507393  19.2497063  82.4649963
  70.7025070  61.6206665  45.8165703  70.3215637  61.4920616  46.6852303
  69.9476852  61.7173004  45.2359352  83.9104691  40.9458389  32.6094398
  84.5372620  41.2538300  31.9548416  84.3281555  40.1772041  32.9979782
   5.6908116  32.9195328  73.8854065   5.6468177  33.3751717  73.0447540
   6.3980246  32.2837448  73.7765121  63.0310402  43.5113373  51.9327354
  62.2265892  43.3225861  52.4159126  62.8298378  43.2693863  51.0287399
  62.1733780  29.4894295  29.2773418  61.9225006  29.0473919  30.0884476
  63.0828514  29.2279110  29.1334705  42.8694191  65.2312851  21.9897251
  42.2162018  64.6491089  21.6016407  42.7238998  65.1595154  22.9330730
  46.6276894  56.8873405  23.5022812  47.5381660  57.0392838  23.2489491
  46.1912766  56.6362495  22.6882000  20.1249943  23.1474972  80.8374939
  20.3963642  23.6223717  80.0519485  19.8006992  22.3085098  80.5101318
  55.9823303  43.5573692  17.3936157  56.2831612  44.0782166  16.6490002
  56.6128540  42.8397369  17.4542713   5.5817375  12.0803127  54.2004547
   5.3694444  11.2903318  53.7033691   5.5151725  12.7902403  53.5618591
  83.9851608  33.3952065  56.9809532  84.3226624  33.2875443  56.0917206
  83.1076584  33.0139351  56.9518852  17.8960133  12.5142660  61.6603241
  18.2310905  11.6671953  61.3663406  17.0623016  12.3083839  62.0831337
  82.3827820   2.3483853  14.6018257  81.8866196   1.7412412  14.0528002
  81.8852081   2.3943443  15.4182444  67.0357132  51.0177536  42.7002449
  66.8160095  50.1006660  42.8642998  67.8861008  50.9856262  42.2620239
  52.1975060  51.6845207  59.3659859  51.9039421  52.4211845  58.8299103
  52.6224060  51.0916023  58.7461967  16.2270756  26.1392212  76.4174728
  17.1304855  26.3655224  76.1964035  16.2909870  25.6988983  77.2649765
  85.6682281  19.6904392  54.5653572  86.4796982  20.1634712  54.7497292
  85.3806458  19.3664246  55.4189034   3.5221276  35.9081421   7.0867095
   4.2801409  36.4097748   6.7866888   3.4896762  36.0646057   8.0304775
  40.5295753  36.3575134  70.2026749  40.3011627  35.4918518  69.8640137
  40.0073357  36.9650726  69.6788712  79.5447922  40.3599281  43.6949348
  80.3509445  39.8535995  43.7948303  79.6806564  41.1362114  44.2382202
  51.9437599  60.2384911   6.4244576  51.7802391  61.0797882   5.9981818
  52.7738609  60.3607445   6.8851323  10.3672857   6.2283630  22.2158318
  10.6636009   5.5028181  21.6662731   9.5824852   6.5563626  21.7768135
  69.1134491  43.6996498  71.8815079  68.1658173  43.6192131  71.7731094
  69.2894592  43.3175430  72.7413025  63.3653450  37.8762779  60.1253586
  63.6668015  37.3588295  59.3786316  64.1693726  38.1588936  60.5611305
  73.5868149  45.0126572   1.4663795  73.0635681  44.4966049   0.8530812
  73.2196655  44.8073425   2.3261936  22.7301884  29.6519814  76.1268997
  22.7415810  29.8504429  77.0632248  23.6534824  29.5690746  75.8883896
  52.3663521  16.2221203  73.8868027  51.9206581  16.3715801  74.7206192
  52.8130112  15.3832560  74.0009613  40.8037224  23.8722324  84.0254593
  39.9279900  23.7036991  83.6777267  40.7396927  24.7393532  84.4257507
  81.2184143  45.3688469  60.5388374  80.4021912  45.7909851  60.8068199
  81.8165359  45.5172882  61.2712669  10.1483526  49.8210602  72.5188522
   9.2385626  50.1067619  72.6018372  10.6500378  50.6339531  72.4576340
  17.0631256  68.2139359   2.4631035  17.5334053  68.7890320   1.8595022
  17.6179523  67.4372787   2.5352256  32.8054657  53.1907082  55.6293068
  32.3664970  53.8322563  56.1878357  32.7436104  52.3681984  56.1149864
  69.6497955  52.2459831  31.5385036  69.5187912  51.4089546  31.0930233
  70.4014206  52.0969429  32.1121483  34.6486855  53.9322243  85.3671875
  35.3988304  53.7296066  84.8082047  33.8861351  53.6895485  84.8419647
  29.7034664  24.1083641  10.1843109  28.9905224  24.6086082   9.7871962
  29.3204689  23.2507744  10.3689232  56.6694412  21.8912735   8.8659115
  57.4961586  21.7931423   8.3935328  56.1606636  22.5029831   8.3337545
  43.5952034  69.1504059  42.5872726  43.8748245  68.2352753  42.5633507
  42.8666763  69.1621017  43.2080345  72.1407089   9.3033295  32.6596184
  72.9869766   9.7126970  32.4793930  72.3555603   8.5263796  33.1757774
   2.9179709  13.3353729   2.4079728   2.1206732  12.9213657   2.0775995
   3.1409554  13.9887772   1.7449700  67.9875031  22.6924915   5.8518195
  68.6555862  23.2943020   6.1800151  67.5203552  23.1943779   5.1838994
  42.3616982  22.7061558   6.7615700  42.4850044  22.1581860   5.9864855
  43.1633606  22.5851765   7.2704234  11.4171591  26.3612556  85.9322968
  10.8028831  25.9317474  85.3369675  11.8241177  27.0469761  85.4027710
  54.6533546  22.3486919  50.2681389  55.2739067  21.6490288  50.0641365
  54.3748283  22.6784363  49.4137802  73.2604218  38.4855003  34.0925598
  73.1190948  39.2761803  34.6132202  72.4058914  38.0545883  34.0746689
  56.4729729  16.1318130  23.1266880  55.5525818  16.3931274  23.1554260
  56.9401855  16.8538647  23.5469093  82.8436584  35.5086327  76.7707825
  83.4322586  35.2147331  76.0755081  81.9975052  35.6196404  76.3372650
  84.8458099  22.3385277  11.6799679  85.6291275  21.9720039  11.2697296
  84.6916351  21.7809601  12.4425840  23.7046337  34.9189491   3.2353418
  24.6536369  34.9402046   3.1121664  23.4661655  34.0017128   3.1010242
  48.5075378   9.6406403   8.1806641  48.3708000   8.9045763   8.7771072
  49.4282303   9.8752565   8.2968922  23.9202862  49.6572609  28.8868065
  24.8546333  49.7329483  29.0804520  23.8191814  48.7721596  28.5366592
   0.2236657  10.7934427  27.5938358  -0.5288066  11.2709961  27.9430618
   0.9089163  11.4561825  27.5075817  49.0008049  64.0580368  46.0828590
  48.3481979  63.9654160  45.3887711  48.4921074  64.2856674  46.8610878
  63.3512383  30.6383133  11.4220953  62.4021683  30.7123947  11.3220472
  63.5375786  29.7133446  11.2610350  43.2172661  34.4874153  20.8924313
  42.6147194  33.7635384  20.7216301  43.3675613  34.4560928  21.8372383
   2.2791810  41.4392967   7.4979386   1.3642542  41.3497276   7.2312584
   2.3006582  41.1072731   8.3954535  86.0738983   8.9822540  36.9187584
  86.9944992   9.2437296  36.8997650  85.6798553   9.5414267  37.5882988
   5.9305749  49.9455490  51.3659210   5.1370983  49.6492462  50.9200134
   6.2250786  50.6995125  50.8549995  38.8485909  57.4713974  59.8610001
  39.2926826  56.7981873  60.3765602  39.1001663  58.2961617  60.2765770
  86.2789536   9.3137093  12.9107075  85.8470001  10.0227623  12.4343758
  86.9509048   9.7510281  13.4336395  66.7788162  55.3230629   8.0567656
  66.4310455  54.4320526   8.0939960  66.5379944  55.6379585   7.1855159
  57.0045433   4.4761896  52.4534683  56.0767097   4.7107806  52.4355507
  57.0640106   3.6923914  51.9072495  82.5021057  24.5799656   9.3611393
  82.7687149  24.9096394  10.2193165  82.3395767  23.6473541   9.5027504
  52.8278465   7.5956774  20.8572083  53.5822716   8.0914021  21.1755352
  52.0951958   7.9067988  21.3888626  21.9649658  63.0811844   0.3730068
  22.2012310  63.9457817   0.7089880  21.9791965  63.1819878  -0.5787641
  55.7827835  41.0237961  60.1207123  55.7700272  41.3843117  61.0073318
  55.9233856  41.7832832  59.5553398   0.5906603  35.6747284  17.2056255
   0.1800787  35.9859581  16.3989105   0.3704323  36.3393555  17.8583145
   2.5789855  13.9921818  75.2436905   2.7194619  13.1092052  75.5855255
   3.4461393  14.3970566  75.2624741  65.6348953  11.6234694  39.2925835
  66.1476212  11.8311710  38.5114326  65.9750290  12.2126083  39.9659767
  43.7958565  54.5079346  31.6891346  43.8780899  53.5801544  31.4684658
  44.6304550  54.7309723  32.1013641  75.7000885  32.4648590  57.4957008
  75.9964828  32.8282776  58.3301506  76.1165161  31.6043224  57.4478188
  34.0334892  60.6672859  50.7761688  33.1619835  60.8597069  51.1221161
  34.4786987  61.5145569  50.7637749  42.5885773  14.0073109  20.8363438
  43.2999573  13.8078175  21.4449253  41.7940216  13.7501993  21.3041153
   5.2118053  25.3913937  79.9678345   4.8464050  26.2476845  80.1902695
   5.7560010  25.5559196  79.1977615  66.0540466  61.6999512   6.3498888
  65.1812439  61.4403343   6.6449156  65.8935699  62.2567368   5.5880046
  85.9404831  48.1221733  66.8605576  86.8413544  48.0573578  66.5435944
  85.8087540  49.0570526  67.0182877  63.6307182  62.1891747  52.2120018
  63.8705444  61.3742828  51.7707939  63.5493622  62.8293419  51.5050392
  52.2363586  65.2298584  52.4124069  52.2380562  65.1828308  51.4563637
  52.1314735  64.3218842  52.6966820  52.3369904  51.0019226  43.5748062
  52.2210045  51.6031723  42.8390923  52.9897156  50.3721733  43.2688675
  30.7754936  41.0663261  74.3237457  30.5055027  41.9697990  74.4882812
  29.9576569  40.5689812  74.3193207   0.0163864  64.3398438  36.7536125
   0.2045227  64.1295013  35.8389587  -0.2024882  63.4978752  37.1528740
  68.7887192  25.3007202   3.8974674  69.2548981  25.5952854   3.1150732
  69.2145309  24.4767189   4.1339774  80.2326202   5.3874741  62.1202126
  81.1040802   5.7765150  62.0464821  80.0350266   5.0735617  61.2378044
  84.0617599  32.5017624  18.4505138  84.2818909  33.4332962  18.4551868
  84.0804977  32.2465935  19.3728848  76.3500977  53.6997414  65.8092117
  75.5103378  53.3179398  66.0646973  76.1630630  54.1666145  64.9947968
   6.3679876  59.7332726  65.1786270   5.6554189  60.3019829  65.4702606
   6.1571016  59.5336304  64.2665405  62.5949097   5.5406232  78.5108566
  61.8435059   5.9703879  78.1022949  63.2396164   5.4655614  77.8073273
  72.7522202  25.0951748  80.6072922  73.6964874  24.9659271  80.5184708
  72.6472092  26.0427017  80.6932907  38.9055939  34.3005257  48.0166893
  38.4634285  33.5233383  48.3583107  38.3497276  35.0310211  48.2880173
  64.3057709  68.5722122  63.2208557  64.3313141  68.3038559  64.1393127
  64.5177994  67.7765121  62.7328568  10.5090733  12.2286386  75.4416656
   9.7938528  11.6586523  75.7241669  11.1906328  11.6270828  75.1419296
  62.4008560  35.7831726   4.0678053  62.9472618  36.4114571   4.5399642
  61.8468513  36.3234634   3.5044253  10.2284470  36.2514305  82.4177704
  11.0601473  35.8305969  82.6354904  10.4556255  37.1697922  82.2720413
  81.8746262  67.0620728  54.5479012  81.6067123  66.1878510  54.2647133
  82.7631226  67.1626816  54.2063141  80.9669418  29.6030540  73.6774979
  80.9168625  30.1285000  72.8789749  81.9013138  29.4295616  73.7918396
  31.6526966  32.1577263  86.3229752  30.9168262  32.6159782  85.9170990
  32.4282570  32.5354309  85.9081497  63.1733017  55.4935379  44.3808098
  63.4135933  55.1876488  45.2554092  62.4473572  54.9268227  44.1199150
  50.4655838  56.6065369  79.3261566  49.8483772  55.8965378  79.1495514
  50.0506706  57.1172028  80.0213547  31.3526897  51.0025177  13.9149132
  30.5124664  51.3162079  14.2493649  31.2745514  51.0764580  12.9637775
   3.3525438  67.4959183  81.2130280   4.0336704  66.8239746  81.2410583
   2.6458116  67.1432800  81.7537689  23.3808384  68.7172852  18.1023407
  22.5523567  68.3265533  18.3801613  23.3759575  69.5915222  18.4921055
  74.9899902  56.9003792  69.8264008  74.9425049  57.1790695  68.9118958
  75.3159332  56.0012779  69.7861710  32.0004387  60.2076607   1.7154243
  31.1932373  59.7298813   1.9061614  31.7428093  61.1293907   1.7320142
  21.1125832  16.2858047  74.5324249  21.0150928  16.3199711  75.4840393
  21.5550232  17.1042576  74.3074493  48.6436501  24.4867325  12.5731421
  48.5438004  23.5402317  12.4711752  48.9931488  24.5968170  13.4574289
  26.4465523  69.4913864  69.5896606  26.3565998  68.5423126  69.6756821
  27.3911076  69.6452026  69.6093063  58.8536377   6.4146171  40.8782539
  58.2471161   7.0536776  41.2523766  59.0892029   5.8489437  41.6136169
   8.3644638  19.0710106  87.7519684   8.2936974  18.3609142  87.1140137
   7.8605838  19.7887535  87.3683243  75.3527985   8.9253321  40.4928093
  75.6895142   9.7106419  40.0613708  74.6984406   8.5802555  39.8853798
  63.4639664  48.0738602  85.6859131  62.8766365  47.8447113  84.9656525
  63.0599327  48.8421745  86.0892410  70.6215210   9.2730703  82.4882965
  70.8831253   8.9307966  83.3430710  70.5079346   8.4945459  81.9431076
  63.8928757  17.0715027  51.6524277  63.2130089  17.7447453  51.6249809
  63.4182854  16.2588406  51.8272972  60.3329849  15.5762129   3.0622947
  60.0005341  16.4732952   3.0314517  61.2850151  15.6726427   3.0384007
  61.6390648  26.2185097  70.2451324  61.2671623  25.3498058  70.0925751
  61.1534729  26.5583115  70.9967728   9.9499865  67.8617859   9.0119190
  10.8176546  67.5471802   8.7581348   9.4954672  67.0812836   9.3288746
  48.0639229  26.6262856  17.1020718  48.1582718  27.3592777  16.4937515
  48.3764343  25.8661137  16.6114540   6.2179937  48.4410210   0.6667325
   6.8258314  48.4301987  -0.0726239   6.6171861  49.0415573   1.2962060
  67.5573120  51.7445412  36.0419579  68.0108414  52.5164986  35.7034035
  67.0817719  51.3961906  35.2878036  24.4142151  45.2276917  86.2384567
  24.5081615  46.1042213  86.6114197  24.9918823  45.2289734  85.4752197
  72.1730576   6.2485538  65.8169250  71.5011292   6.8362746  65.4714737
  72.5140457   6.7015991  66.5880966  80.2609787  12.8405333  17.7973156
  79.8750534  12.3420534  18.5175991  79.8851700  13.7166004  17.8839569
  52.8571358  49.1811867  65.3278503  52.6362915  49.9664421  64.8270187
  53.4793053  48.7104874  64.7732468  19.9317112  33.8926849  87.2284012
  19.6343670  32.9854279  87.2969437  19.2627506  34.3994102  87.6887894
  83.5943222  59.4535294  40.8054237  83.5251160  58.6203766  41.2715759
  83.5639114  60.1169281  41.4947777  78.2369156  28.8605137   1.5947324
  78.3390121  27.9864063   1.2182447  77.4481430  28.7986202   2.1334703
  64.4248581  42.8643150  79.9272995  64.3641891  41.9734688  80.2721863
  64.5762024  43.4100990  80.6989594  75.6575546  60.9869919  68.9173965
  75.7055206  60.9976273  67.9614563  75.0136185  60.3075867  69.1173553
  64.8651962  51.7394180  12.2253952  64.0142441  51.6450119  11.7973690
  65.3847885  52.2603607  11.6131258   8.7322979  69.0046844  88.4486237
   9.3366432  68.4320755  87.9762650   8.4468384  69.6430130  87.7949524
  38.3217163  15.2849684  83.9120331  37.5603333  15.8562050  84.0131073
  39.0696640  15.8822269  83.9025116  39.8924789  54.5064545  22.0726814
  39.8516235  55.2690125  21.4955597  40.6178131  53.9847527  21.7292500
  27.1934452  44.4111366  68.9287262  27.6144238  43.7163467  68.4224854
  26.2754669  44.3812981  68.6591721  17.4639740  58.3090515  37.3788033
  16.5300770  58.1280098  37.4850655  17.7000351  57.8761368  36.5583801
  58.6608543  14.8573694  22.5988960  57.8281860  15.2659111  22.8355179
  59.2860680  15.2007933  23.2371750  55.7726326  64.3848343   6.7217340
  55.3711891  64.2987900   7.5864124  55.2909203  65.0987473   6.3039899
  16.5044117   3.8911896  83.6515732  16.4820385   4.0735054  82.7121658
  15.6504507   3.5022161  83.8404694  18.9823341  16.5899963  15.1235781
  19.5550213  16.9765053  15.7860518  18.1259460  16.9849567  15.2873964
  16.1900444   0.6643405  78.9508591  16.4123974   1.5024331  78.5454102
  15.9394798   0.1024943  78.2175293  33.7029953  27.9986744   1.9727629
  34.5193710  28.0787334   2.4660692  33.8247223  28.5693188   1.2139615
  86.7278214  13.8186922  31.1672764  86.5968857  13.1437254  31.8332386
  86.0077057  13.6891365  30.5501251  26.3942146  36.3023300  82.0413971
  26.7800579  37.0137024  82.5525818  25.5532818  36.6497650  81.7441483
  48.8722382  47.1253319  65.5722580  48.2683067  47.0555305  66.3115921
  48.3161964  47.0300865  64.7989655  24.0542107  53.0940590  14.1388655
  23.9883823  52.4329262  13.4498062  24.2016678  53.9152145  13.6696186
  10.5888548  70.8805237  59.3825455  11.0337105  70.4178772  58.6724052
  10.1750364  70.1877975  59.8974495  51.9535942  29.9067287  73.4552460
  52.4911232  29.6038361  74.1870575  52.4847183  29.7301083  72.6787491
   1.6737086  19.2721863  62.5159225   1.5334355  20.2186413  62.4879875
   2.0004232  19.1044693  63.3998680   9.2240849  65.2556305  42.0853615
   8.8234501  65.2600555  41.2160492   8.5095711  65.4850616  42.6795502
  43.7488708  63.0526352  65.6944733  43.2235336  63.4756813  66.3736572
  43.8497810  63.7222023  65.0179138  83.4086227   7.9308443  40.1637993
  82.5837479   7.7012749  40.5917053  83.2539978   8.8013363  39.7969666
  34.2409325  42.9464378   8.9024153  33.8926468  43.8272896   9.0403872
  34.0025101  42.7332077   8.0002403  57.8723679  32.8193970  30.8253250
  57.3255959  32.0691376  31.0585213  57.3475876  33.5825539  31.0670547
  77.9050522  58.9591751   5.1993341  77.7690048  58.0319290   5.0045495
  78.4405975  59.2802505   4.4738450  34.3640251  62.2217865  43.5682678
  33.6418114  61.6829109  43.8911476  35.0611000  62.0991058  44.2126808
  54.2458344   4.1623263  48.3507919  54.3754120   3.2149348  48.3073082
  54.1282501   4.4300690  47.4393539   4.7528367  47.6275139  48.8057442
   4.3919520  48.3709068  49.2888145   4.9283986  47.9730721  47.9305305
  80.2517548  11.4876728  11.0019865  80.7369461  11.5510187  10.1793013
  79.3316193  11.4905977  10.7382250  28.4375153  40.3811493   2.3252652
  29.3429241  40.6553192   2.1793327  27.9932919  40.5722542   1.4992046
  12.0558729  58.6997414  70.7961426  12.1077032  59.3183861  70.0675583
  12.8583422  58.1823387  70.7285614  26.8756237  39.2035027  79.3718414
  26.7981453  39.6914711  78.5520172  27.8178577  39.1541214  79.5330505
  58.8204460  32.9300156  65.0452194  59.4619102  33.3573723  64.4776611
  59.1035271  33.1479874  65.9332428  75.7364502  22.2356682  76.4590073
  76.3506088  22.8646507  76.0802917  74.8788376  22.6491852  76.3603668
  56.3777924  26.8665619  64.8805847  57.1196976  26.3324852  64.5967407
  55.7814636  26.2453194  65.2985382  83.9502182  64.5355377  39.0945549
  83.7864075  65.4156952  39.4332695  84.3354492  64.6793976  38.2301865
  71.6630020  45.8750687  84.4756699  71.7503815  45.4950142  83.6015091
  72.4387207  46.4269028  84.5755463  33.8764687  69.5726013  38.2524376
  32.9235764  69.6246567  38.3267365  34.0995865  70.2146072  37.5784378
  33.6499939  15.6108799   7.2886581  34.4453049  16.1220512   7.4383826
  32.9353981  16.2164249   7.4858828  52.8171425  40.9654350  19.1159267
  52.1476517  41.3047562  19.7099590  52.5465317  40.0643501  18.9397202
  72.1727295  34.4193077  63.4011307  71.6468582  34.9256668  62.7820206
  71.5821609  34.2509651  64.1353836  14.8650379  59.7989311  30.2304688
  14.1910801  60.3041649  30.6851673  15.0913639  60.3325920  29.4687519
  67.8293762  56.6310463  40.9966316  67.1633377  57.3060722  41.1268845
  68.0759430  56.3638420  41.8820915  36.2059288  40.8175316  28.2143688
  36.4048576  41.4057693  27.4859219  36.8712349  41.0180397  28.8726959
  31.1053276  43.2818642  19.3569813  30.2420483  43.1334305  18.9710426
  31.2731400  44.2138176  19.2172146  42.6257019  41.1224899  28.5981693
  42.6373062  42.0015259  28.2194958  42.8999481  40.5495796  27.8820744
  72.6348724  58.6344795   2.1068101  72.9764099  57.7881355   1.8182107
  72.0004044  58.4165077   2.7895741  48.3217773  67.6062546  12.3365927
  47.5661087  67.1692657  11.9438620  48.8307877  67.9217758  11.5898733
  13.0161247  70.2758408  17.7996826  12.1156950  69.9919357  17.6420288
  13.5491734  69.6930695  17.2588787  84.5638733  19.5508327  25.9575253
  84.0440903  20.1440430  26.4998913  85.4457016  19.5995770  26.3266163
  33.1671524  38.1024017  61.0375633  32.6845474  38.1144714  61.8641090
  33.1744270  37.1811295  60.7778854  55.5672722  60.8650322  19.0532169
  56.1498947  60.4863586  19.7115402  55.7131233  60.3338928  18.2703705
  27.7665615   4.3234253  15.0282230  27.7285366   5.1193309  14.4978266
  27.5451851   4.6143312  15.9128685  86.6285172  70.1950607  50.7439346
  85.9360352  70.8515320  50.8197441  86.3800507  69.6717300  49.9819489
  43.4885139  46.1059685  23.0264778  43.1434746  45.2606430  22.7390766
  44.4319000  46.0428543  22.8772316  82.6594696  56.3182869  83.6367722
  81.8988724  56.0068817  84.1274338  83.4086151  56.0952988  84.1893082
  45.2521172  27.2377567  12.8745689  45.8373184  26.5041256  12.6859951
  44.7858772  27.3896503  12.0525122  21.2316284   5.0290403  81.2246552
  21.4530373   4.8230085  80.3164902  20.7484303   5.8536625  81.1722183
  54.2450562  25.3915920  15.8891506  54.8699837  24.9560661  15.3094835
  54.3167458  24.9179115  16.7178364  80.4713745  70.2047348  11.3846922
  81.1427078  69.7496490  11.8930626  80.2631607  69.6029892  10.6700039
   9.6217623  37.8940811  33.9297638   8.8613482  37.9670563  33.3529816
  10.1366177  37.1779480  33.5578690  33.8145714  40.7123184  79.1806946
  34.5450554  40.0961685  79.1260300  33.4128647  40.6851997  78.3122940
  85.8010712  32.2754059  37.9384727  85.1208038  31.9277802  37.3617439
  85.8787231  31.6249847  38.6364365  57.4902802  31.9100819  72.1867676
  57.2083321  31.0207767  71.9725800  56.7322617  32.4575272  71.9819565
  49.7839584  12.3379774  30.9800167  50.0363808  13.0230598  31.5990314
  48.9970932  11.9486227  31.3614330   4.2164259  42.1689758  61.7265892
   4.8367610  42.2076187  60.9986305   3.6700311  42.9472580  61.6172218
  28.9979610  49.2138634   9.0988140  29.5129604  49.9667702   8.8087568
  29.0573845  48.5899811   8.3752995  35.5851593   4.2477674  78.6253510
  35.7786560   3.4274223  78.1716766  35.1710281   3.9764912  79.4445801
  37.2457314  30.6307907  72.2615509  37.8847847  30.7165394  72.9690094
  36.4553528  30.3036499  72.6911011   2.7623429   4.8570590  58.2004585
   2.8810735   5.0072565  57.2625999   2.0384874   5.4334121  58.4455757
  22.1737900  44.5462265  80.5121689  21.5030231  44.6045303  79.8317947
  21.8381290  43.8909836  81.1239014  74.6038589  19.7518864  31.9875774
  75.2378998  19.1278095  32.3407822  74.5324478  19.5223236  31.0610600
  61.1709137  68.4524231  64.8281631  60.8960991  69.1468735  64.2294617
  60.9400558  67.6410141  64.3758926   1.8323309  28.0725040  24.6299877
   2.7205524  28.1494083  24.2815914   1.8892800  28.4363060  25.5135250
  69.8691177  57.1067963  76.5602798  69.2460403  57.8277702  76.6508331
  69.5720367  56.6293526  75.7856674  52.8465080  47.5896797  53.6531754
  52.4352837  46.7340736  53.5304451  52.1247673  48.1697006  53.8958702
  53.0835304  42.2046127  31.9207363  53.7737656  41.5911407  31.6688251
  53.0207062  42.1170769  32.8718529  29.4033184  69.9265442  48.8737221
  30.2909679  69.8568268  48.5223656  29.3982601  70.7576599  49.3485374
  68.4131775  32.8265305  39.6467628  67.5353088  33.0605316  39.3453827
  68.8926544  33.6549530  39.6540565  37.6850281  16.9215736   8.8211422
  38.1176109  16.2342110   8.3145494  37.0093155  17.2619801   8.2348251
  13.5366678  11.6537151  10.1624603  13.3839445  12.5362015  10.5002861
  13.6106482  11.1072273  10.9448347  39.2430801  69.6994019  22.8923302
  40.1065559  69.8743439  22.5181141  38.8311958  69.0969543  22.2729435
  54.8977623   3.4934578   1.7060380  54.6602173   2.6698391   2.1320143
  55.7449989   3.3161159   1.2974119  37.6413498  13.0944986  85.5168457
  37.7178192  13.4172726  86.4147263  37.8420372  13.8548355  84.9710922
  25.8445530  33.8766022  77.1762695  26.1865654  34.1061172  78.0403214
  24.9562454  33.5629501  77.3458633  14.2125807  20.7719173  14.5586214
  14.7083521  21.5783348  14.4167318  14.5414791  20.1682301  13.8925753
  50.6157722  10.6430368  75.1023254  50.3397675  10.6350393  76.0188370
  51.3885918  10.0786934  75.0799866  70.6002960   6.6354723  71.2174072
  70.1030045   6.4194317  70.4285736  71.0609970   7.4447608  70.9959641
  70.6842041  18.3951054  58.5282555  70.4848022  17.5096397  58.8322639
  70.0139618  18.5789757  57.8700714  33.8162117  37.6108093  73.7295685
  34.4943657  37.0892372  73.3002625  33.5440712  37.0802269  74.4783325
  59.2516975  23.2236500   8.2330818  59.3188400  23.7089958   9.0553732
  59.8248367  22.4666462   8.3542871  54.0928802  28.7165852   9.8432941
  53.9023857  29.3685513   9.1688423  53.2581825  28.5867577  10.2934694
  83.0907898  42.1739807  47.9576912  82.5433655  42.5521431  47.2695389
  82.9266281  41.2324905  47.9040527  22.2582970  33.9702873  85.5486069
  21.4561520  34.1800728  86.0269241  22.5326958  33.1236000  85.9008255
  86.3256454  18.3996410  80.7185669  86.7070160  17.9521008  81.4738693
  85.8240433  17.7213001  80.2663651  39.9734726  49.3916740  11.7396364
  39.3882027  49.0246468  12.4021940  39.6099243  49.0919456  10.9064341
  85.9616928  25.9193516  71.6682053  86.3390274  26.6564445  71.1880569
  85.2669067  25.5919037  71.0969925   5.5209517  36.4875412  43.7976074
   5.3857150  36.5285873  42.8508987   6.4319739  36.2113914  43.8976631
   8.1171837  47.0890503  80.6095581   8.0728483  47.7538757  79.9223328
   8.0636568  47.5850639  81.4264603  79.5860825  30.0063496   6.9914045
  79.9473572  30.8869953   7.0922618  78.9887466  29.9061775   7.7326159
  81.5683899  25.0024052  12.5602369  82.5204544  25.0719395  12.4897947
  81.4231491  24.1972446  13.0570812  21.0083847  38.0787392  27.4531670
  20.6517372  37.6896439  28.2516899  21.3137589  38.9444580  27.7242889
  68.2453079  36.3628654  50.2427559  67.8808975  36.9770966  49.6054497
  67.9039917  35.5095444  49.9752274  34.5239677  32.3769531  15.1601477
  33.7774696  32.7925453  14.7285757  34.2540054  31.4666996  15.2817755
  59.6652336  64.0209274  78.2436981  58.9179001  64.6146469  78.3159714
  59.9057350  63.8272247  79.1497192  15.9470148  54.7956276  27.8993416
  16.6338158  55.3009338  28.3343163  15.1956139  55.3879166  27.8706455
  48.7612228  16.6162548  43.8785858  49.3833275  15.9502630  43.5858841
  48.5490112  16.3669529  44.7780533  23.6001339  37.3634682  24.4477787
  24.2337227  37.8340645  24.9893818  22.9046059  37.1129417  25.0558147
  38.5431061  42.5159798  33.5656013  38.3931198  43.4612083  33.5822449
  37.8990784  42.1604576  34.1780281  12.0446348  62.9554443   2.9226918
  12.2557335  63.6410789   3.5563917  12.7836533  62.3490105   2.9708626
  56.7734375  28.4946861   6.9616070  57.6618538  28.4242287   6.6123419
  56.8840561  28.4384727   7.9107304   3.3947740  29.4983597  86.6706543
   4.2461348  29.2740192  87.0462723   2.7693088  29.3243790  87.3740463
  51.9381218  33.3719978  30.8655949  51.0306625  33.6715279  30.8105183
  52.4560471  34.1769447  30.8722591  19.9637184  42.2704048  27.4114571
  20.6176872  42.5026436  26.7521992  19.3552341  43.0092964  27.4159012
  37.5375557  25.3100681  68.2226410  36.6781693  25.7232265  68.3062286
  37.9879990  25.5269566  69.0389023  63.5073509   1.1240139   0.5979949
  64.0383987   0.3433705   0.4404721  62.7369576   0.7995262   1.0642935
   5.2172818   1.4111893  85.8055115   5.6785159   0.5840840  85.6662598
   4.4330258   1.1681890  86.2975769  79.7889023  32.6568527  85.4574051
  80.5408401  32.9084702  85.9936066  79.8567352  31.7050953  85.3813324
  24.7543755  70.0370255  63.4501190  25.3064156  70.4500122  62.7860985
  24.1956940  69.4361038  62.9571762  74.3546066  33.1416779  14.8536062
  74.5009918  34.0797348  14.9754667  74.3643723  32.7806015  15.7400370
  13.3739414  12.6510916  25.2953091  12.7849426  13.3719177  25.5182934
  12.9359322  11.8703270  25.6341133  53.3222809  22.1485710  85.8888626
  53.3446693  21.8896084  86.8100967  53.4868393  21.3374519  85.4079895
  62.0737000  53.1606026  33.1197701  62.5875092  53.1982498  32.3130379
  61.9203835  52.2266350  33.2627220  17.3648567  50.9651375  24.3014202
  17.6936226  51.8620071  24.3628120  17.2396126  50.8196144  23.3636742
  31.5436420  24.1514912  75.2130966  31.8083210  24.6905499  75.9584808
  30.6576214  23.8613701  75.4299545  80.3771439   7.5309043   3.9183035
  79.8066101   8.1699286   4.3453484  79.7975082   7.0486827   3.3286340
   8.1981077  57.4572372   2.5564222   7.6660929  57.6501007   1.7844143
   7.8368535  58.0184555   3.2425435   4.0378256  62.3135338  22.4372253
   3.6177969  62.3674622  23.2956524   4.0900807  61.3753586  22.2546635
  67.5363693  64.3527145  31.5057354  67.8356400  64.0194702  30.6597958
  67.2071991  65.2309265  31.3143406  58.2229004  70.0185242  45.0504227
  58.1503906  70.9437866  44.8162003  59.0873985  69.7580338  44.7325859
  59.6145401  39.8039665  11.8777523  60.3464012  39.8214531  11.2610645
  59.4086342  40.7260628  12.0312986  19.5991039   0.5219418  37.3091965
  19.2070808  -0.2182748  37.7724762  19.1717091   1.2922951  37.6835251
  23.9994411  38.5470657  59.9627266  24.8205261  38.9537125  60.2396507
  24.0232716  38.5862694  59.0066261  31.7620964  46.9921989  35.5742683
  31.0032082  47.2403603  36.1022263  32.2602348  46.3978806  36.1354065
  31.6341419  55.2547035  57.0994644  31.5363541  56.1982765  57.2272720
  32.0199165  54.9409256  57.9173584  73.1758118  36.0462151  25.3524380
  73.2618408  35.1038857  25.4968109  72.4848633  36.1256714  24.6947842
  45.8794060  60.3309364  32.7331009  46.3251686  59.6431427  32.2386589
  44.9722710  60.2943954  32.4297829  76.6654282   1.6437696  24.9027805
  75.8704071   2.1569936  25.0469055  77.3376999   2.0951238  25.4132290
  52.0381546   2.2436173  45.6621513  52.3257103   1.5245594  46.2247353
  51.4454231   1.8329253  45.0326805  81.3568420  21.7482948  74.6647949
  81.1093597  21.0343323  75.2523651  80.5914383  21.8729343  74.1036758
  29.5301151  42.7787819  15.2595606  29.7869682  43.6042671  14.8486633
  30.3482437  42.2894516  15.3458700  79.3006668  15.5676003  18.0531673
  78.4984741  15.3765450  17.5671444  79.9589539  15.7252312  17.3763828
  84.7534409  67.0861282  26.2874908  84.9691162  66.1789093  26.5035038
  83.7995682  67.1281891  26.3551941  10.1117382  14.9660978  74.4759903
  10.5300388  14.1343765  74.6984634  10.8384066  15.5819387  74.3815155
  16.5681267  44.6887817  64.7445984  16.3183460  44.9073792  65.6424103
  17.5199108  44.7893486  64.7295609  48.3302841   1.9795289  79.2877655
  48.3506012   1.4750931  78.4745255  48.9413147   1.5244410  79.8672256
  63.2283821  44.1098251  59.7875938  62.7063065  43.8809242  59.0186501
  62.9505310  43.4874458  60.4596634  11.0123196  26.0605907  14.6866817
  11.4882669  26.5867443  15.3292294  10.4252834  26.6819344  14.2559223
  36.2156677  17.0392609  85.8730850  37.1551437  17.1994267  85.9623184
  35.9372787  17.6304722  85.1736603  47.0255394  68.0351562  66.1134109
  46.2908783  67.4231720  66.1580048  47.0324974  68.3351974  65.2044830
  74.4004135  43.6884727  10.3744287  74.8283997  44.0495834   9.5981188
  74.2704697  42.7629623  10.1676016  42.2672882   3.0463691  44.2430534
  42.3397331   3.1528704  45.1915474  41.3665504   2.7543628  44.1029282
  58.3404579  52.6656685  84.0396957  59.2768898  52.8003769  84.1852188
  57.9142952  53.2739601  84.6435242  60.7988815   3.8237133  23.9288540
  61.6312370   4.1435337  24.2768879  60.2321587   3.7465720  24.6963844
  42.2959900  68.0807190   8.0075417  41.3439140  68.0904846   7.9091096
  42.4425850  68.2591553   8.9364662  17.0424786  35.7584953  55.9743690
  17.7312031  35.0938606  55.9620743  16.4459724  35.4725151  56.6661987
  63.4035873   3.1832581  46.3913269  63.5316391   3.3437228  47.3262520
  64.0222168   2.4836242  46.1814575  59.6970253  61.9996605  67.2354736
  58.8155632  62.3671074  67.3005295  59.8028183  61.7939796  66.3066330
   0.4191379   5.4978991  45.3528442   1.3169668   5.1832089  45.2474632
   0.4006124   6.3311853  44.8821831   0.1246435  11.6337652  70.1998215
  -0.2603446  11.8516550  71.0486679   0.6231908  12.4135599  69.9556808
  26.2388172  67.6028519   2.3281548  26.7528934  67.8623352   1.5635459
  25.3303204  67.7584610   2.0699859  34.0364799  62.1770897  12.7394571
  33.1502838  62.5061150  12.5890036  34.2599678  62.4840431  13.6181288
   5.3917365  18.3537235  78.9053650   4.9824843  19.1746330  78.6317749
   4.7507133  17.6796494  78.6796494  77.5851364  30.4669857  35.0153084
  78.3328018  29.9197121  34.7750626  77.1992569  30.7260704  34.1785240
  84.3713379  16.6315708  46.6492386  84.3341904  17.5524273  46.3906326
  83.6193619  16.2300167  46.2139015  27.5968246  44.2157059  33.9498749
  27.8119297  43.3955460  33.5056839  27.6375237  44.0011711  34.8818359
  52.8884811  25.8363838  19.9374352  52.3662109  25.0515766  19.7714729
  52.3580971  26.5544891  19.5921040  54.1903305  14.1535130  61.0824051
  54.3501625  15.0516777  61.3722076  54.0718575  14.2249489  60.1352577
  51.2051315  10.2550240  31.8140907  51.7842331   9.8213720  31.1873379
  50.9046860  11.0412760  31.3582706  61.6295586  27.4699497  75.7894592
  61.1420059  26.8004169  76.2692947  61.3968735  28.2916470  76.2217789
  14.9810247   6.3963795  11.7815685  15.4090700   6.1549149  10.9601650
  14.8212633   5.5620418  12.2226896  63.6575890  59.4970970  42.5637932
  63.5668259  60.3432159  42.1255264  64.5884857  59.2872086  42.4889030
  76.1455688  43.8420029  81.2941284  76.5517349  44.6129417  80.8980026
  76.7745209  43.1362000  81.1441422  61.7340736  42.9750824  39.1885948
  60.8003883  43.1616936  39.2867699  61.8882637  43.0145798  38.2447205
  66.7764130  64.1363220  78.8869171  67.3035431  64.4923477  79.6021881
  65.9719620  64.6548615  78.9011383  36.5224037  29.4669762  12.0449409
  35.6066818  29.2206173  12.1752911  36.5851669  29.6705227  11.1117411
  -0.0084342  39.1838455  51.0273132   0.3980148  38.7015533  50.3072968
   0.6778499  39.2456818  51.6917076  39.7625465  44.2064743  63.3272781
  38.8206482  44.0646667  63.4219093  40.1395874  43.3267403  63.3390999
  72.0801620  48.8207016  17.9750042  72.0893173  49.6715317  17.5365601
  71.4070282  48.9063873  18.6501236  67.2956085  55.8596916  85.9844894
  67.0775452  55.7068024  85.0650787  66.4528503  56.0290451  86.4055634
  76.6132126   2.2700579  67.3810272  75.7161484   1.9636554  67.5138016
  76.5344849   2.9661133  66.7286911  55.1110153  50.8338890  89.2932358
  55.0711403  49.8779793  89.3229523  55.5617332  51.0293884  88.4717407
  44.6269760  37.7706795  33.5076027  44.0688133  38.2834129  32.9229736
  44.0505714  37.5186806  34.2290497  65.3495865  12.4448423  21.9105053
  65.6671829  13.2563095  21.5144138  65.0510864  12.7045813  22.7820930
  85.7944260  33.1128578  48.6418533  84.9746170  32.6575661  48.8338318
  85.8048630  33.8533401  49.2483253  25.6152153  45.9937592  83.2336273
  26.2859840  45.5704422  82.6978073  24.9215717  45.3386650  83.3107071
  77.4729233  53.0245323  85.9313354  76.7619324  52.6437645  86.4468231
  78.2566605  52.8815422  86.4619446  48.2235718  36.4929276  83.3333206
  48.1702042  37.4417763  83.2190018  49.1622200  36.3074760  83.3612976
  86.1511841  30.6058636  87.3905029  85.2742844  30.3816338  87.0790482
  86.2535553  30.1044121  88.1993942  84.1709290  23.3932076  48.1379433
  83.5940399  23.2874889  48.8944168  84.8396835  24.0120049  48.4313507
  41.8599739  46.5577888  27.4090042  41.6685524  47.0017700  26.5828896
  41.1926613  45.8746300  27.4739971  51.8199921  24.5430832   6.4980612
  52.4042931  24.6460094   7.2492142  50.9417610  24.6621017   6.8596916
  62.2047958  35.2014160  55.7755241  61.7182922  35.4037514  56.5746536
  63.0968781  35.0274353  56.0757751  71.7342224  13.0866261  79.2563629
  72.3295898  13.7859430  79.5260468  71.8876495  12.3844004  79.8884811
  74.8436432   5.0330749  67.8615952  73.9890213   4.6024365  67.8414917
  75.0431442   5.2124324  66.9427643  86.2420349   6.0133352  70.7837296
  85.5668106   5.6011624  70.2448273  86.1482620   6.9500008  70.6102448
  23.3347301  30.5089455  68.1543655  23.2394066  29.5732861  67.9763565
  24.2626286  30.6200333  68.3614807  56.6506805  46.4357071  16.6125183
  57.5685043  46.1680756  16.5655746  56.4833183  46.5543900  17.5474701
  34.2572517  57.9249191  67.8463593  34.3174400  57.4481621  68.6741943
  34.9360085  57.5349655  67.2954865  46.7481766  18.3042240  21.4551411
  46.4992599  17.3811798  21.5026951  47.4300613  18.3341427  20.7840481
  26.2054901  58.2760353  11.1953983  26.9532223  58.6806679  10.7556248
  26.1820755  57.3819847  10.8542919  65.7854919  24.6622887  41.8456306
  65.1966019  24.0977936  41.3448372  65.2502213  24.9827900  42.5715752
  11.1357918  59.0665779  28.0010643  10.2854986  59.5055161  28.0248451
  11.3691454  58.9464417  28.9215775  55.5615654  21.8681068  80.1095581
  55.0410118  21.8780823  80.9127731  55.1422157  21.2055340  79.5605850
  79.5675430   3.3092587  84.8107224  79.3659592   4.2418137  84.7336807
  78.8105392   2.8679509  84.4254532  47.0114784  28.0048084  63.7740250
  46.4620361  27.3892708  63.2887878  46.5720215  28.8491478  63.6730347
  24.2844982   1.8897220  63.1581802  24.8182774   1.4516919  62.4952774
  24.5050850   2.8168793  63.0690002  47.9267082  63.0916367  22.9924717
  47.1469803  62.7508888  23.4308186  47.9329681  64.0247116  23.2059155
  58.3242760  37.6236954   0.5845642  58.9222107  38.3468666   0.7735915
  57.4529686  37.9838943   0.7498361  40.6688728   1.5475254  75.9575958
  40.2455864   0.8841131  76.5025253  41.5768509   1.2535383  75.8842621
  79.6998444  60.3251915  18.5645466  79.6662827  59.7509384  17.7994709
  80.4477692  60.8995247  18.4003124  41.4494553  28.6211929   1.6300592
  41.7670135  27.8958664   1.0922005  42.1611633  28.7912865   2.2471256
  58.9887848   5.9083285  82.3324051  58.0575485   6.0693469  82.4844284
  59.0135956   5.3832326  81.5324783  43.9761810  43.0899506   6.9844031
  44.0558510  43.8100853   7.6099334  43.8137474  42.3182793   7.5269637
  74.4675064  30.4775772  64.7327881  74.4294968  31.2742691  64.2035751
  74.9489746  30.7350368  65.5190048  78.3037567  11.2044497  64.8041458
  78.5856018  11.7774687  64.0910950  78.7332840  11.5607910  65.5818100
  72.4934006  37.2996101  87.8583984  72.9838409  36.5175056  87.6054001
  71.5817566  37.0850410  87.6606369  69.3541183  57.8589745  50.4932251
  69.1448669  58.7502441  50.7726631  68.8007965  57.3006020  51.0393867
  51.5705261   5.6173987  87.8139801  50.7685280   5.4096594  88.2934341
  52.2685966   5.2105670  88.3272247  17.8195877  17.5057144  12.3304644
  18.7307129  17.6120491  12.0570154  17.8664188  16.9512024  13.1092806
   4.9127483  59.7063141  22.1090336   5.8541589  59.8457184  22.2117214
   4.8373327  58.8079147  21.7874374  57.5468864  10.2868814  23.8627129
  58.0100822  11.1213121  23.7891903  57.7713509   9.8167734  23.0596905
  73.9055939  53.5605125  10.6941977  74.1790771  53.1018333  11.4885883
  73.1999664  53.0212288  10.3371429  35.6514244   0.9068181  41.6938362
  36.2621155   0.2361729  41.3880157  36.0954361   1.3137240  42.4378204
  63.6826172  45.8727379  12.0196533  63.2741165  45.0517845  12.2942390
  64.5991898  45.6442070  11.8650522  48.6449356  56.5117493  39.1483192
  49.5370903  56.3997269  38.8200798  48.6144753  57.4180908  39.4546776
  43.2698593  50.9226074  16.3777447  42.4209404  50.9553604  16.8187618
  43.4291191  49.9897995  16.2337379  25.8135929  44.8363152  50.1862946
  26.0329781  45.3617554  50.9557190  24.9434071  45.1406403  49.9286232
  27.7368774  44.0439873  53.0681305  28.2517204  43.2398872  53.1358833
  26.8431702  43.7430534  52.9039459  14.1201487  52.5626373  89.2884293
  14.6456861  52.2688370  88.5443039  13.5450363  53.2357597  88.9245911
  84.2405701  58.0075645  28.1198845  83.9855576  57.5985069  28.9468498
  84.8176422  58.7268791  28.3764114  69.2302704  47.4244080  56.9379158
  68.8341293  47.5426216  56.0745926  68.8781738  48.1428223  57.4634056
  78.8239288  38.4874001   8.5284624  79.4275360  38.9792900   7.9717464
  78.1877060  38.1126480   7.9193497  84.2126160  50.6486778  85.4597626
  85.0732117  50.6950302  85.8762360  83.6090088  50.9925156  86.1182938
  45.7474823  62.9641762  83.8217163  46.3421135  62.2409286  83.6228256
  45.5756073  63.3731117  82.9735107  58.0999908  45.9854088  66.0639954
  58.3085938  46.8142166  65.6329498  58.6380653  45.9850845  66.8556442
   8.7689266  67.0840225  23.7870502   9.2478991  66.8176498  23.0022812
   8.6818581  66.2799225  24.2989845  13.8149061  37.7210960  59.7748337
  14.1705875  38.4973488  59.3422165  12.9234257  37.9701424  60.0186958
  68.5875626  28.7665787  55.2455826  68.4853897  28.5244770  56.1660080
  69.2040787  29.4987011  55.2575111  52.0185242  49.3502045  40.7581596
  52.8876572  49.5571175  40.4146042  51.4827385  50.1089821  40.5270271
  28.6461067  39.6928749  73.4253159  28.5155048  38.7469635  73.4918289
  27.7693195  40.0634003  73.5262527  42.5556564  48.2586594   7.5927539
  43.3305321  47.9518890   7.1219153  42.5874481  47.7987671   8.4316339
   3.3442042  45.5454292  87.0063400   3.7044542  45.7169266  87.8764267
   4.0429125  45.7995529  86.4034653  77.2503815  55.2780304  84.6340790
  76.5389481  55.1641235  84.0039062  77.3720703  54.4094620  85.0175018
  39.3405724  10.4186783  80.0297394  39.0142899  10.7102194  80.8810806
  39.6362572  11.2207670  79.5990982  79.3986282  17.7560272  35.5192223
  80.0010986  18.1280270  34.8751106  79.8587952  16.9905491  35.8634834
  21.9016228   3.2508323   1.6549811  21.4309082   4.0612836   1.8494804
  21.4329357   2.8745174   0.9100299  34.2417107  65.8166656   9.4912462
  33.6945305  65.1069565   9.1548729  33.8336868  66.6141434   9.1539526
  64.1058426  67.7491684  35.2681732  64.8250427  67.6402283  35.8903618
  63.3371239  67.4138870  35.7295761  14.0740337  66.6339722  81.7829666
  14.0521908  66.7554626  80.8337555  14.4529247  65.7633743  81.9043427
  81.8194199  15.2706852  20.1777134  81.0563660  14.8262014  19.8083630
  81.5547791  15.5006638  21.0683918   5.0436330  40.5051003  23.5151215
   5.1665106  41.3165703  24.0077190   5.1435165  40.7636223  22.5989208
  48.4090462  44.8710709  58.6362457  47.7634964  44.2182465  58.9070168
  48.1588020  45.6654129  59.1080818  37.8313408  32.9165726  78.5856323
  37.0683937  33.4769669  78.7274246  37.7588539  32.6399040  77.6721649
  73.5199585   0.2243322  17.1597767  74.0681763   1.0061468  17.2265110
  72.6994553   0.5388407  16.7801838  18.3807926  27.1485081  84.3375702
  18.7880859  26.4777927  84.8857346  17.6522694  26.6984081  83.9099121
  26.3445683  49.3696480  38.6468811  25.5555820  49.4656219  39.1802826
  26.8705482  48.7191658  39.1121216  25.1824532  64.6319809   9.0826693
  24.9198017  65.4778900   8.7197752  24.3570824  64.1917496   9.2856293
  69.8780518  59.9264221   9.4314089  69.5909805  59.0134888   9.4120522
  69.1120148  60.4244766   9.1461773  55.8515015  32.3527489  61.8679314
  56.2962646  33.1924820  61.9831200  55.8803635  31.9456749  62.7337761
  47.5426254   0.5580058  63.9098816  46.6062965   0.7511933  63.9567909
  47.7049332   0.3830323  62.9829140  14.6964302   8.7613592  26.9421825
  15.3742933   9.2464314  26.4716091  13.8965549   9.2671080  26.7984829
  46.6774406   8.5139236  13.2773266  46.1445007   8.1092186  13.9617395
  47.5328255   8.0921783  13.3590393  44.8785782  29.2529049  69.2675552
  45.4121208  29.8475971  69.7947235  44.8546524  28.4405594  69.7732697
  63.5870514   0.7040343  26.2615662  64.4258423   0.3263257  26.5261250
  63.7862701   1.6209749  26.0724564  34.6931076  20.7176514  17.5826321
  34.4142838  21.5743713  17.2593422  35.6313400  20.8164616  17.7444420
  41.8641510  21.8751640  21.1092987  42.6371307  22.0240612  21.6538754
  41.4126930  21.1430321  21.5292931  17.1669960  41.1792984  51.5248528
  16.6012096  40.4073334  51.5111732  17.1041794  41.5380058  50.6396332
   4.8851004  16.8534393   3.5010855   5.4253759  16.5123978   2.7883272
   5.4568696  17.4668617   3.9626310  62.8771782  57.4765511  33.8324203
  63.4143295  56.7537804  34.1569214  63.3634491  57.8182564  33.0820808
  86.0948639  35.7594032  14.9047356  85.5183868  35.0125084  15.0661592
  85.9152985  36.0090332  13.9982729  13.3128033  51.3113823  56.2621346
  12.9612913  51.0699463  57.1190948  14.2598000  51.3536491  56.3949585
  85.6201782  46.7555122  56.6847076  85.5459366  47.5607986  56.1726151
  85.0771484  46.9120407  57.4572716  70.5858994  63.8915329  41.9560394
  69.9364090  63.2126427  41.7730255  70.6474838  63.9128685  42.9110184
  73.9382019  27.7651119  64.6625824  74.8894348  27.7237453  64.5642166
  73.7630997  28.6704636  64.9193192  19.8721447  55.9210472  18.6707764
  19.5984669  56.4777031  17.9417591  20.4499035  56.4774017  19.1931744
  71.2464371  42.3439865   9.2377472  71.0337372  41.4176521   9.1242065
  71.0103607  42.5344086  10.1456242  34.5053864  56.3391113  45.8395958
  34.6123543  56.8775177  45.0554352  33.5617638  56.3346519  46.0001755
  62.0456314  60.0587349  73.2508392  62.1600113  60.9881897  73.0526886
  62.9360695  59.7087364  73.2801056  65.3909073  19.1112309  54.3426285
  65.1081543  19.7815475  54.9646912  66.3237076  18.9950600  54.5232544
  38.0932922  31.9936447  84.1805267  38.0890198  31.3600368  83.4630661
  39.0026512  32.2874222  84.2352219  69.8076477  22.2086830   8.1232653
  70.7098770  22.1304741   8.4332542  69.7580490  23.0887356   7.7500634
  28.8359852  38.4802666   9.4386339  28.9839611  37.5626869   9.6675081
  27.9192543  38.5141144   9.1653414  69.9173279  35.5715027  54.9223022
  70.3789749  36.0877838  55.5830345  70.4729538  35.6257019  54.1447601
  25.1248932   4.6233916  62.5518227  25.3210545   4.9606252  61.6777382
  24.7197857   5.3610888  63.0078087  55.4503860  46.4867439  11.7345076
  55.9698448  46.1549835  12.4668522  54.8198242  45.7898331  11.5530109
  82.2626419   7.7553892  51.8484421  81.6095200   7.1263475  51.5418930
  81.7935181   8.2980957  52.4821777  55.5372925   3.4929783  56.5875168
  56.1660843   4.1378512  56.2634964  56.0557137   2.9113643  57.1435738
  25.2852879  32.8657112  81.1979218  24.6337948  33.2424660  81.7893982
  24.7727413  32.5124054  80.4708023  23.0724792   0.4083578  51.8573151
  23.3370419   1.0827876  51.2317085  23.6877041   0.5017626  52.5846443
  52.4193802   2.5658178   3.7860770  53.3672523   2.6161160   3.9095154
  52.2033653   3.3430495   3.2708285  49.5872955   2.3161173  74.3488541
  49.7130547   2.5817065  73.4378738  48.6373482   2.3038743  74.4658127
   3.5554645  66.6070557  70.7358704   3.3980684  65.7614594  70.3158340
   2.7755523  66.7580948  71.2698669  53.1988487  47.6361084   9.7272539
  53.4663200  46.9494095  10.3380995  52.3366699  47.3586693   9.4175673
  51.2963943  42.2203712  12.4052362  51.4101601  41.8946457  13.2980919
  50.9361572  43.1003304  12.5153847  86.8740997  61.8690071  47.1923866
  86.2298279  61.2560120  47.5464897  86.8300476  61.7418594  46.2446938
  82.8462830  58.4690475  48.8766174  82.1965027  58.5280380  49.5770035
  83.6251450  58.1104584  49.3020668  56.4658585   9.0308237  13.2910261
  56.1235962   8.5787182  14.0621872  55.9113007   9.8059225  13.2020216
  54.1472893   6.9830632  76.8624573  54.9957542   7.3534837  76.6193008
  54.2177277   6.0552845  76.6377487  40.3011703  38.6012840  77.0298615
  39.6722183  38.5288658  76.3119431  40.3110847  37.7310066  77.4282990
  72.8749924  41.5931969  74.7382050  73.6932220  41.2361908  74.3928375
  72.2193298  40.9246521  74.5397263  47.0166779   0.7045887  23.3556309
  47.1262512  -0.1055354  23.8535519  46.1726379   1.0512148  23.6449032
  63.1545296  16.3976612  44.6577148  63.0628166  15.7296915  45.3371506
  63.9038696  16.1084194  44.1370811  84.3572540  49.5132599  74.1406097
  83.5283508  49.8361778  73.7872314  84.1629791  49.3045464  75.0543518
  45.4982224   7.8210359  17.6515923  46.1471977   7.1624231  17.8991661
  45.4026680   7.7190213  16.7046528  20.8242874  60.6508598  12.8763504
  19.9650059  60.8279152  12.4935722  21.1771202  59.9326782  12.3510323
  78.0753555  66.2264938  16.8664646  77.4305038  65.7893295  16.3103333
  77.5532379  66.6742706  17.5321350  78.4216537  26.6460400  48.4017181
  77.7947464  27.3693390  48.4094582  79.2693558  27.0621319  48.5582199
  79.8811874  63.4266357  36.5794411  80.5960388  64.0243378  36.3604012
  80.2045670  62.9323349  37.3326530  37.0457878  65.9692230  37.8185349
  37.9432144  66.1396942  37.5325317  36.5362434  65.9478302  37.0085144
   4.4038248   6.9931121  72.4301605   5.2524333   7.1792479  72.0283585
   4.5798693   6.9898515  73.3710327  37.4054871  42.2159691  26.2493744
  36.9021950  42.9931374  26.4921494  38.1813965  42.5613594  25.8078995
   3.5016496  29.9882622  14.9317932   3.8842921  29.2328625  15.3780966
   2.5581706  29.8287582  14.9570332  45.0786400  22.3890095  42.7894363
  45.6021614  21.8075314  43.3408318  45.6976242  22.7267456  42.1421165
  13.1173315  65.4579163  18.9013462  12.4353085  66.1283798  18.8618240
  12.7672520  64.7296066  18.3882771   1.8284719  29.0370998  62.4792442
   2.5357223  29.6817207  62.5014610   1.0420094  29.5367680  62.6984253
  55.4952736  12.3295794   6.7650743  55.5945244  11.4245253   6.4696789
  56.3024483  12.7622614   6.4867182  55.5447807   3.2148659  78.9702911
  55.7558861   4.1439748  78.8785172  55.6780624   3.0296516  79.8998947
  67.4451294  68.9003067  83.4340515  66.9885406  68.5681381  84.2069855
  67.3236313  69.8489532  83.4733505  55.8922310  57.1483345  19.4160309
  56.1817207  57.1478539  20.3284054  56.5918541  56.6982689  18.9425297
  52.2990761  70.5477142  47.5155487  51.6450768  70.8909760  48.1243896
  52.8192940  69.9395676  48.0406761  50.9745750   7.4169707  38.6744423
  50.2014847   7.3115959  39.2289314  50.6947670   8.0195732  37.9853783
  43.7407913  58.5348663   9.3401871  42.7899208  58.4664383   9.2542076
  43.8732376  59.2149277  10.0006437  69.9242096  52.2657852  59.1172028
  70.6693802  52.3481750  58.5220795  70.1260300  51.4955826  59.6485100
   2.3574390   8.2734451  42.3520470   1.6552945   8.1121979  41.7217903
   3.0409873   8.7090101  41.8428535  60.3386536  21.8234634  16.9508419
  60.5265884  21.0403099  17.4681263  60.4227257  22.5467548  17.5721397
  16.0241318  15.5081987  76.0592194  15.7075586  15.6886034  75.1740799
  15.4704237  14.7920513  76.3703003   5.5107169  42.1442909  64.3198929
   5.0873947  42.2993889  63.4755173   4.9477882  41.5047455  64.7561569
  85.7479401  68.5466461  67.7482834  84.8599091  68.9037704  67.7389145
  85.8293381  68.0851822  66.9136200  64.9966507  54.5944176  51.7196007
  65.6857452  54.0307617  52.0712776  65.3500519  54.9156265  50.8900452
  66.9888916  25.8250923  48.6229401  66.8339081  26.7517185  48.4397011
  66.3466568  25.6036015  49.2972603  72.3485947   6.9794269   3.6488273
  73.2116928   6.6739283   3.9280534  72.1963806   6.5367341   2.8139100
  55.7424507  59.0885315  65.7731705  56.3109970  58.3767471  65.4793243
  55.7512169  59.0233955  66.7281113  48.6785812   5.9123778  82.3857727
  49.6158485   6.0758882  82.4907913  48.4698715   6.2627845  81.5198135
  84.4891891  29.9817047  52.9020500  84.5433273  29.4835072  53.7175865
  83.6172104  30.3761387  52.9197731  44.8663368  55.0467033  86.6312943
  45.2443390  55.6829033  86.0241776  44.1372299  55.5114441  87.0419693
   1.2354925   4.8647876  51.9483376   1.8936298   4.7249923  51.2674980
   1.1869857   4.0277119  52.4100571  22.2515259  61.8142738  50.3633194
  22.9641552  61.6571236  50.9827461  21.7989235  60.9731827  50.3005180
   2.3393040  58.4781227   5.7217994   2.2575066  58.0190315   6.5577278
   3.0287960  58.0055199   5.2554550  61.5111504   3.0314443  84.4686203
  62.1209297   3.3224640  85.1466370  61.9843750   2.3439357  83.9999847
  79.8076019  62.7668915  70.9742432  79.3543320  63.6056099  71.0598602
  79.1169434  62.1431580  70.7502441  56.4273605   1.3707650  74.2967072
  56.5321274   2.0689492  74.9430771  56.9211731   0.6343692  74.6574097
  48.3454819   6.5873065  55.5778580  48.9484863   6.9867821  56.2047806
  48.3394356   7.1897883  54.8340759   3.4021213  13.4116735  58.8000298
   3.5513499  13.3044672  59.7394295   3.4089684  14.3589897  58.6630020
   8.2360020  48.4540977  66.1365585   8.9161530  48.8220100  65.5724030
   8.1664371  47.5395660  65.8626556  23.4487343  66.5416412  63.6304970
  23.2290707  67.1982117  62.9695206  24.3940372  66.6307602  63.7517128
  63.3648186  32.7332916  22.1060467  64.1434250  32.5017815  21.5996799
  63.2855339  32.0351524  22.7560825  38.9706078  52.5601196  32.6675339
  38.8172417  52.6937065  31.7321911  38.0950508  52.4662819  33.0428047
   7.2360206  59.5929794  69.5021744   7.9553380  59.9571114  70.0181351
   7.6145163  59.4432755  68.6358185  83.2627563  15.3925085  24.9481869
  83.5780945  14.9012461  25.7067738  84.0572510  15.7284374  24.5332527
  61.3323593  53.6403122  73.0216751  61.7026024  53.6991463  73.9024048
  61.8421783  52.9528999  72.5929718  10.4672508  24.5634480  84.2850418
  10.3944740  23.7446156  83.7946854  10.3200951  25.2476063  83.6319656
  57.3093643  43.9517403  48.7842064  57.8009071  44.2006111  48.0014648
  56.3955154  43.9404449  48.4996300  57.1191177  10.0032101  88.8601379
  57.2380486  10.1353884  89.8006744  58.0075150   9.9032984  88.5180893
   3.8933554  66.8055878  48.5251465   3.1896882  66.7786255  47.8768005
   4.6506176  66.4344711  48.0723152  43.6759682  68.7427216  86.2317657
  43.1054230  69.4164581  85.8619080  43.0885353  68.1848679  86.7416153
  17.0388641  45.4293747  33.7024040  16.1051044  45.4742699  33.9081001
  17.2614632  46.3118019  33.4057426  84.1092377  49.5117188  27.5146084
  84.2359772  48.8042374  28.1467781  83.1592712  49.5804901  27.4193668
  65.8348846  71.9514313  28.8508053  65.7520294  71.1170425  28.3891144
  65.5226974  71.7670212  29.7366753  34.4571533  51.3881378  71.3594131
  33.6244736  51.8228798  71.1753769  34.2309952  50.4614830  71.4394150
  59.1291237  58.0773849  40.6148834  59.6875420  58.6905327  41.0928497
  58.8898354  58.5451241  39.8147621   7.8658776  52.9172554  82.8868561
   7.6505241  53.5779190  82.2285461   7.6218810  53.3207397  83.7198639
  46.2198677  10.2147789  59.1605034  46.4774628  10.1395102  58.2416954
  45.3415985   9.8356991  59.1948471  75.2169647  21.0548706  82.5400925
  76.0918121  21.2099075  82.8962326  75.3403625  20.3564758  81.8972549
  78.9455872  16.6579456   2.8291497  79.2482834  16.3295860   3.6757822
  78.5495758  17.5061760   3.0289252  53.0617371  52.2546616  67.9624863
  53.1069908  52.9446754  68.6243515  53.3219032  51.4594154  68.4273834
  46.0425491  48.6633606   8.8655558  45.8473854  49.0027275   7.9920735
  46.5766029  47.8851128   8.7063313  40.2763214  45.7044182   6.8106766
  40.6900215  45.6418037   7.6715846  40.9586792  45.4329567   6.1967316
  47.7866364  13.7578545  78.6675949  47.4762573  14.6158628  78.9569397
  47.0523720  13.3911457  78.1750336  60.3327255   2.8595536   8.2525902
  59.7269325   2.2746699   8.7077341  60.8064804   2.2895143   7.6469126
  15.8270540  12.2269697   8.6271544  16.5299835  12.5759821   9.1751633
  15.0861835  12.1243238   9.2244873  62.7261238  29.5083370  44.3221016
  62.5696983  29.4581375  45.2650986  62.5981026  30.4322109  44.1069260
  65.4743423  59.2511063  34.4527779  64.8725891  59.2158546  35.1963387
  64.9286346  59.5255585  33.7158203  -0.0678764  35.6087112  49.8384552
   0.8785904  35.5256538  49.9547920  -0.2967408  36.4131317  50.3040352
  70.8075256  54.1726570  64.9170303  71.3239670  54.7990761  65.4241028
  70.8173294  53.3729095  65.4428940  59.5629654  27.7430401  41.9912796
  59.6190033  27.5673065  41.0520210  58.9962425  27.0505314  42.3311234
  77.0469284  16.5537205  73.8530502  76.2562637  16.8275089  74.3179474
  77.6329727  17.3082218  73.9122696  84.0505753   2.1587224  46.0230408
  83.2882233   2.1706114  46.6017532  84.4120102   3.0429034  46.0848503
  56.6947861  62.7740593  87.1229858  55.9909401  62.8940697  86.4854660
  56.2538834  62.7903366  87.9724350  14.4270363  50.5614433  85.1753464
  14.1780930  50.3704224  86.0796509  14.3725014  49.7167625  84.7283859
  74.0870132   4.7683511  24.2350559  74.0352631   4.0013623  23.6647205
  73.4942093   5.4046474  23.8351231  54.3800507  48.2148819  31.6729794
  53.7529297  47.8448715  31.0516529  55.2364502  47.9623108  31.3279896
  22.4522152  46.3528481  22.5269814  21.9447803  46.1551743  21.7397938
  21.8696651  46.1240196  23.2512074  76.8883362  18.0088749  18.9230824
  77.0772629  18.9331455  19.0851326  77.4580765  17.5377674  19.5310936
  29.8068810  11.2365818  73.4799042  29.8979416  11.3146629  72.5302505
  28.9203625  11.5483131  73.6619415  82.0210800  48.4484367  79.8328476
  81.2036209  48.9409599  79.7592926  82.6268158  49.0524559  80.2623520
  16.4714298  28.2894001  11.4723816  16.1636600  29.1770000  11.6558924
  16.0966187  28.0779152  10.6173820  11.9990139  39.7104111  60.5095100
  12.0917072  39.7631035  59.5582695  12.8283148  40.0459900  60.8499222
  71.1258011  62.7717743  34.0469208  71.1862717  63.6945419  33.7997780
  70.6180878  62.3680687  33.3430214   4.2482562  23.1032696   2.6942997
   4.2174768  23.8101463   3.3389790   4.3193431  23.5509319   1.8512235
  14.8278856  36.6953239  70.1280136  13.9438810  36.3284111  70.1160889
  15.1949253  36.4635811  69.2748947   1.0808291   1.6889211  83.0725784
   1.0267193   1.6069994  82.1204300   0.4983760   2.4185896  83.2836838
  73.4980621  68.9988174  38.2533951  73.7307053  69.8153381  37.8113594
  72.6738739  68.7323456  37.8460464  81.7833939  18.4166508  60.1101418
  80.9830551  18.9374123  60.0431290  81.7321243  17.8032856  59.3770752
   1.7294797   5.7647810  48.7405586   1.4835541   6.3487077  48.0230751
   2.0923078   4.9923334  48.3070679  12.6739693  48.4533730  18.2016487
  12.2608404  47.6831322  18.5918827  12.2880735  49.1945419  18.6685352
  15.0851641  48.1674423  51.4870338  15.1789446  49.0487938  51.8485031
  14.1403036  48.0463448  51.3931961  58.5727043  30.7556267  76.7102051
  58.5593185  31.4981117  76.1062469  59.4761314  30.4405441  76.6824341
  33.6506691   8.0845747  75.7679520  33.3532829   7.4096060  75.1578598
  34.5680733   7.8687434  75.9353256  72.8834305  37.1690788   2.2288275
  72.0681534  37.5654755   2.5361171  72.7386246  37.0168266   1.2949741
  11.1542835  30.6946659  15.2402649  11.5201845  31.5457058  14.9992685
  11.9189501  30.1362782  15.3806963  86.7386475  39.8737869  71.4331360
  87.4860687  40.3043861  71.8480835  85.9768753  40.2058792  71.9081573
  32.5253372  19.9777927  78.3641129  32.3388710  19.1219025  78.7500076
  32.5559082  19.8140106  77.4215240  35.6885071  19.6528549   5.1208391
  35.1081200  19.4824581   4.3789830  36.1766624  20.4364357   4.8679891
  15.2465544  39.4192734  31.8357677  15.2670383  38.9151840  31.0223141
  15.3321104  40.3304062  31.5551414  72.7942505  23.4729214  51.5724983
  73.2900467  22.7029400  51.2940331  72.2238617  23.1509533  52.2705116
   0.0954994  36.4450035  74.8191071   0.5927525  37.2128220  75.1009369
   0.0475182  35.8914108  75.5985107   9.0015011  69.2262192  76.5220490
   9.0028362  70.1486130  76.2662582   8.3925123  69.1829910  77.2592773
  24.7743263  43.3136978  88.5534134  24.6436691  43.9733009  87.8721771
  25.4114075  43.7077484  89.1492996   4.9775662  53.5868416   8.8923244
   5.5148077  52.7954063   8.9275007   5.4712586  54.2340317   9.3959532
  73.1824646  67.0260849  82.1498489  74.0266037  67.0201950  82.6011047
  73.0617523  66.1231918  81.8558273  57.5719147  40.1713676  84.8705597
  57.1811104  41.0311432  85.0264130  57.3993912  39.6806412  85.6740875
  72.6091385  37.6413612  64.9258575  71.6890259  37.5839424  64.6683121
  72.7382126  36.9018745  65.5197678  34.4387512  65.1192017  77.8631134
  35.3585396  64.9833908  77.6355667  34.4538269  65.8233795  78.5112915
  75.5390396  66.8009262  23.6212234  75.7848587  67.4171829  22.9312725
  75.3788452  65.9772186  23.1607094  50.7572479  49.0306931  72.3336563
  51.5266228  49.4300346  72.7396393  50.3918571  48.4671860  73.0156937
  83.4011917  22.3620663  57.5538902  82.6637192  21.7725983  57.7116623
  83.9892578  22.2134705  58.2943878  86.8517990  42.3569908  79.6411972
  86.2543335  41.8059578  80.1467896  86.7990417  42.0123253  78.7497635
   2.3119884  31.8748837  55.7737427   2.3024714  32.4835472  55.0350456
   2.3548479  31.0082893  55.3695030  83.8804092  25.9833584  19.3739395
  84.4555054  25.4017677  18.8767014  83.0122757  25.5883808  19.2929211
  35.6805267  56.6463852  81.8886719  34.8099556  56.4715996  82.2461472
  35.6563683  57.5704994  81.6403503  39.6826172   1.8589478  39.8519554
  39.2189903   1.7974780  39.0167885  39.2608299   2.5878472  40.3069649
  23.4400463  41.8465843  59.9484100  24.2163639  41.8853836  60.5070343
  23.5807972  41.0777893  59.3958015  44.6150589  49.1874084  11.6095266
  45.3935394  48.9915047  12.1308937  44.7466125  50.0874901  11.3115702
  38.8140831  36.9289627   5.3984036  38.9649963  35.9979668   5.2349944
  38.5834198  36.9749680   6.3262568  68.6150284  39.8573418  54.2601166
  67.8141556  39.7192039  54.7658272  68.3100128  40.0132103  53.3663025
  39.0806007  49.9800758   1.5463243  39.3519325  49.8093338   0.6444051
  39.4973755  49.2861862   2.0572565  34.2155228  58.8561172   4.4547215
  34.3709793  58.7621536   3.5149148  35.0910072  58.8834381   4.8407488
  37.9012756  54.3562469  39.7182579  37.6446838  53.7714462  39.0052338
  38.1500206  55.1711044  39.2819519  73.8834686  52.0110207  61.1678467
  73.5973358  52.6829147  61.7866478  74.7469559  52.3048706  60.8775635
  57.8800468  26.0656834  43.5218163  57.6411705  25.1396904  43.5631714
  58.0021629  26.3225822  44.4357758  70.9259186  49.1954460  82.8151932
  71.6441574  48.8580933  82.2798843  71.3488693  49.7852783  83.4392471
  66.8750458   4.7142577  74.4891434  67.4515610   5.1683407  73.8745956
  65.9935226   4.9928484  74.2410812  54.8204727   4.6439075  68.8737640
  54.5518112   4.7792082  67.9650574  53.9985466   4.5972495  69.3621140
  34.4685211  34.3782654  86.4722519  35.4199524  34.4555817  86.4013214
  34.1537170  35.2822037  86.4671021  35.2667885  27.9606628  18.0099049
  35.3801231  27.0620670  17.7002068  34.3917961  28.2084007  17.7111626
  42.6658592  27.9124126  82.6477356  42.6925583  27.3117046  83.3924942
  42.6416512  28.7836361  83.0434799  22.7304192  45.5864754  14.7168913
  21.8984985  45.1179657  14.6487799  23.2222557  45.1056938  15.3826075
  59.5421562  54.6988258  33.9762383  60.3970299  54.2716026  33.9223061
  59.4331245  54.8999443  34.9056969  10.7719555   5.5161300  12.0598278
  10.1445856   6.0894518  11.6194401  11.3133936   5.1655025  11.3526239
  67.3517532  68.1154099  61.7445946  66.9153519  67.5344620  62.3677254
  66.6370163  68.5803070  61.3095474  45.6001053  65.0580139  42.9306870
  45.3228683  65.1664734  42.0209618  45.9809265  65.9036713  43.1674690
  35.7431602  44.8006439  32.0715675  35.2171936  45.5711632  32.2858009
  35.5484924  44.6262474  31.1507416  31.3112774  10.0548410   6.9299912
  31.4894848  10.6417990   7.6648073  31.2372551  10.6351748   6.1723862
  70.5020752  37.5226479  28.6962891  71.4425735  37.3629379  28.7749271
  70.4314270  38.4639473  28.5375595  64.2196045   7.4740453  75.2544022
  63.3098526   7.7017627  75.0627670  64.5037689   6.9641423  74.4957962
  78.9340744  56.3352623  72.1767426  79.0298004  57.1066284  71.6181183
  79.6797104  56.3790436  72.7753601   5.9315748  51.1095963  10.3934679
   5.1487188  50.5766068  10.5323458   6.2154312  51.3524437  11.2747641
  44.0087662  34.8417206  38.0250282  44.2684631  35.7151947  37.7320633
  44.1670952  34.8487930  38.9690170  24.2231693  42.9198303  34.6160202
  24.0849018  42.0552483  35.0028076  24.7327442  43.3966103  35.2711906
  32.6547470  43.6194649  49.1978645  32.9453430  42.7291832  48.9999161
  33.4466057  44.1520309  49.1232986  73.6480484  66.2601624  63.1494484
  73.2008667  65.9118347  62.3781281  74.5441742  65.9319916  63.0753441
  85.8276215  41.0511093  19.0870018  85.6035309  40.1206055  19.0739517
  85.0877762  41.4816780  18.6586685  63.6172142  43.5894394  29.1156902
  63.0257187  42.9940262  29.5759583  63.5598373  44.4099503  29.6052818
  83.0699158  28.7241936  59.9922905  82.3657761  28.1456814  59.6994667
  83.3026581  29.2309799  59.2143288  64.5956802  39.2639809  28.3607998
  65.3646393  38.7358589  28.1462708  63.8610611  38.6534119  28.2993774
  26.7359715  11.7558298  76.3845444  27.2721939  12.5306444  76.5529480
  26.7153263  11.6815920  75.4304504   3.6708446  51.6172791  14.0548534
   2.9897008  52.1758957  13.6803904   4.1750202  52.2013626  14.6213236
   3.9684422  37.9669991  16.3852367   3.8168924  37.5567551  15.5337887
   4.9184132  37.9384956  16.4991455  55.5537300  51.9434814  57.8849564
  55.2054443  52.8283463  57.7756805  54.7781601  51.3837166  57.9221764
   4.2102051  33.6813889  19.5643330   3.9323897  33.6218109  20.4783897
   3.8299551  34.5022087  19.2514458  13.6726313  35.9081116  67.4005280
  12.7263765  36.0233002  67.3135452  13.8028173  34.9604683  67.3650589
   1.7260723  59.3461304  79.1825256   1.0311391  58.8923225  78.7057114
   1.8172536  58.8542480  79.9985962  64.6555481  32.1050072  30.4276218
  65.2127533  31.6034336  31.0227509  65.2201385  32.3026505  29.6803570
  38.3152428  60.5593262  36.2881546  37.6131630  60.4944687  36.9355431
  37.9600983  61.1291733  35.6059685  18.3817844  10.6015511  18.3206272
  18.5716648  10.6712656  19.2562103  18.1586514   9.6799994  18.1895370
  18.7357368  28.0600910  87.8028946  17.9664993  28.4904861  87.4297104
  19.1561127  28.7377720  88.3322906  11.8293600  57.0900764  42.0523224
  12.4156437  56.3779602  41.7966042  11.1231432  57.0624046  41.4067802
  54.6411324  26.9451637  48.6336403  54.9945297  27.8329697  48.5775375
  53.7144547  27.0419369  48.4142494  21.9652615  11.0966883  79.4200745
  21.1084976  11.4616079  79.6414871  22.1634579  11.4579649  78.5561142
  43.2525864  10.1320763  86.8833008  43.3593750  10.0402994  87.8300858
  42.4841805   9.6001749  86.6762619  71.0508118  30.0496655  22.7581043
  70.6415482  29.5672207  22.0397873  70.8014679  29.5649090  23.5449123
  67.3837891  68.7116547  53.9424667  66.4977112  68.3792953  53.7988014
  67.5375977  69.3081131  53.2097931  75.6777267  43.3022194  17.3129692
  75.2024841  42.7823639  17.9611416  76.1601944  43.9471130  17.8302364
  21.9056454  62.0006561  43.2711372  21.8567448  61.2833481  43.9030457
  21.9940510  61.5666885  42.4225578  59.4654121   5.5075102  63.6549950
  59.8027191   6.3175745  64.0374222  60.0781326   4.8320646  63.9458199
  82.1260757  25.6152096  66.9936676  81.5971222  25.0090160  66.4750443
  82.7789154  25.9498081  66.3787842   6.3771830   0.7958076  61.3708572
   5.5249410   0.9605136  60.9673882   6.9137187   1.5448906  61.1115608
  61.1333961  50.2835541  84.1236038  60.9900055  49.5290985  84.6949768
  60.8905220  51.0389938  84.6589050  68.4680328  11.3145466   9.3511944
  68.3363113  11.3521032   8.4038448  68.2362518  12.1903658   9.6601439
  56.3724823  27.2569981  15.4396715  55.5027695  26.8634491  15.5100679
  56.4529800  27.8017025  16.2226448  47.9141083  -0.0854312  85.4656677
  47.4662247   0.6021803  84.9729004  48.7182999   0.3290205  85.7783051
  83.0460510  36.8939018  63.5988312  82.6916046  37.7432747  63.8618202
  83.7223587  37.1054497  62.9553375  61.0978432  17.3805370  82.9377365
  60.9700012  18.0477009  83.6121063  61.7688560  16.8009510  83.2983704
  81.7358551   6.5289974   1.7976172  81.6067886   5.6359544   2.1170645
  81.4403915   7.0860295   2.5177872  53.8264999  39.7607193  69.1011810
  54.0773430  40.6172981  68.7553635  53.1211128  39.4669037  68.5246964
  45.8958206  46.0164680  21.9525604  46.2841644  45.1636467  21.7573166
  46.5999527  46.6436234  21.7879257  72.7690811  44.5046768  56.0702286
  73.5068359  44.4184647  55.4664726  72.6118469  43.6144714  56.3849373
  65.4997711  31.4721317   0.5898414  65.1452103  30.8865681  -0.0792108
  64.7394257  31.9565201   0.9115131   7.4022179  23.2714767  77.3121490
   7.2531991  24.1553860  77.6479034   7.7544312  23.4057026  76.4322891
  28.0053158   0.3751447  76.1785126  28.2058048   1.1080333  75.5963516
  27.1161098   0.1147279  75.9382477  49.8305435  71.0633621  42.3279915
  49.9264412  71.6535339  41.5805092  50.0992393  71.5871735  43.0827484
  13.1707830  33.0998955  64.9674377  13.7423429  33.6951981  64.4825058
  13.4947939  32.2260094  64.7493210   4.5117536  64.8866425  44.6900597
   4.4381056  65.0214462  45.6348572   3.6359591  64.6121140  44.4183044
  10.6319056  45.9699402  34.7391701  10.8346548  45.2585869  35.3467064
  10.2429190  46.6505089  35.2884865  40.4183235   6.6060066  83.8482208
  39.4863281   6.7776394  83.7134628  40.4403114   5.8668342  84.4559784
  42.4546776  24.7545147  26.6247997  42.9620590  23.9429340  26.6133690
  42.5156059  25.0876999  25.7295303   7.9382601  63.0527611  67.3149643
   7.9481683  63.2522659  68.2510910   8.3689041  62.2006035  67.2471161
  53.3770485   9.3318548  18.7221432  53.1984138   8.7055006  19.4235725
  54.3182259   9.2544403  18.5658588  77.6759338  18.8473949  41.9280205
  78.0289764  19.7007389  42.1798096  77.5368271  18.9150066  40.9833984
  63.4081612  55.3654556  30.5509014  62.6274376  55.9134216  30.6311455
  63.7009926  55.4963531  29.6490440   9.4888105  58.7386246  63.3838043
   9.3566637  59.6834145  63.3054276   9.3649549  58.4049339  62.4952431
  39.0906296   4.3827739   1.8546818  38.9077225   3.7086091   1.2002522
  38.4161034   4.2578287   2.5222418  49.9807892  13.6918535  60.5171585
  49.2327271  14.2389641  60.7565422  50.5383568  13.6947546  61.2951965
  38.2100487  54.4874573  49.1691589  38.8008080  53.7357368  49.1227798
  37.3891411  54.1266441  49.5040588   8.3508415  48.1720390  83.3041840
   7.7073836  48.8802528  83.2792130   9.1887436  48.6143990  83.4400787
  76.9918289  46.8034668  16.5176601  77.0231171  46.4557495  15.6263981
  76.1078033  47.1600533  16.6047344  61.2626648  37.9488602  36.2008514
  61.3526535  37.1757202  35.6437263  61.9294052  38.5552979  35.8784828
   1.9708407   2.4835598  31.3848991   2.8997469   2.7073042  31.3274231
   1.5205483   3.3282304  31.3844051  75.5054550  47.0354500  13.9045076
  75.1746597  46.1939316  14.2186031  75.3724594  47.0065231  12.9570341
  16.8991146  44.2723007  88.2198944  16.2352543  44.7054100  87.6832962
  17.0548725  44.8787270  88.9439240  14.8056707  43.6096306  55.2554626
  15.7274189  43.4735222  55.4747505  14.6017046  44.4768333  55.6055832
  12.7005568  45.3573837  85.2657700  12.4458351  46.0502357  85.8751221
  11.9048710  44.8388290  85.1465378  69.2713089   8.1557808  86.5099716
  68.4031601   8.4977207  86.2963715  69.4220734   8.4326525  87.4137650
  67.7581024  61.4746284   9.2602482  67.1351547  62.1864929   9.4065905
  67.9837952  61.5408173   8.3323927  37.7138214  58.2230034  79.4168015
  38.0092316  57.6629677  80.1346588  38.0874176  57.8229179  78.6315689
  83.7749481  10.4447098  38.8772316  83.9839859  10.9849691  39.6392403
  82.8866806  10.7061701  38.6346626  82.0682220   0.2934513  54.6863403
  82.7395401   0.8476033  54.2882576  82.5535126  -0.4475781  55.0491028
  16.9192200  52.0238495  82.9160767  17.5172615  51.2781525  82.8659592
  16.7614059  52.2660637  82.0035782  -0.0403711  66.9289398  35.6249046
   0.2464900  66.0603485  35.9068489   0.6940781  67.5046158  35.8380051
  10.5242882  14.6496344  83.5597305  11.2362661  14.3221149  83.0101395
  10.6626778  15.5962257  83.5920486  41.1188469   8.5545559  86.0792923
  41.6747284   7.7753186  86.0751343  40.4097939   8.3397207  86.6853561
  66.6669464  42.3900871  68.3050385  66.6378937  42.3413925  67.3495255
  66.5922089  43.3243141  68.4996338  76.8493805  70.7782059  27.0205269
  76.8696289  70.0005722  26.4627552  76.5205688  71.4733200  26.4505043
  39.5008125  54.0588913  43.7034607  39.2551384  53.3664093  43.0899887
  38.7206154  54.1892509  44.2424660  44.4889069  42.0333481  44.4168510
  44.2547493  42.7115440  43.7832413  44.3281670  41.2096786  43.9564552
  41.9641151  51.2876015  31.0752487  41.6308174  52.1839676  31.1161652
  41.2931709  50.8043671  30.5930195  72.5736160  29.0017471  48.8482437
  73.4702911  28.8067837  48.5758553  72.1806488  28.1440830  49.0101967
  16.1609249   8.1952190   7.1067190  16.6819401   8.9268742   6.7758780
  15.2531528   8.4682646   6.9739470  50.5267067  16.2597351  63.2728844
  51.1534500  16.5289116  62.6013451  50.9408531  16.5066566  64.0997772
  23.2456093  18.2301388  74.3163605  23.3121910  18.3769875  75.2598801
  23.8894730  17.5456028  74.1344833  67.5298309  13.7404337  10.1576653
  67.3577957  14.6740723  10.0353708  66.6986847  13.3826103  10.4697437
  24.6258297  21.4560738   9.9511938  25.5381126  21.6507626   9.7365589
  24.3127956  20.9322910   9.2137032  24.6053810  51.0855370  31.9738312
  24.6204453  50.3377991  32.5712318  23.8522205  50.9231720  31.4058361
  15.4402056  49.0616684   4.9109983  15.3281012  49.2072029   3.9715917
  14.5946493  48.7212639   5.2032161  15.5316753  28.5273666   8.7783375
  14.7647429  28.0285645   8.4968386  16.1922340  28.3491402   8.1089115
  32.9173050  41.1464653  20.6061592  32.5424652  41.7067146  21.2857494
  32.5760880  41.5035477  19.7862244  44.4811172  69.2785110  17.0391178
  43.5783653  68.9964981  17.1865559  44.5024910  69.5420837  16.1191711
  18.9900150  51.3276329  79.4551544  19.3568249  50.9749985  80.2659149
  19.3270378  50.7513008  78.7692337  46.8465118  61.9572258  61.6602898
  45.9310570  62.2361488  61.6408806  47.3412323  62.7427711  61.4270515
  14.4994602  11.1066837  82.9617233  15.2433281  11.6171074  83.2816620
  14.6321602  10.2332315  83.3301010  71.4808578  37.4119148  11.1823339
  71.5601425  36.7308006  10.5144796  72.1847076  37.2221718  11.8026762
  62.6206131   0.8412726  64.1135406  62.1479683   0.2663821  63.5115929
  62.7922668   1.6329117  63.6035614  24.0349407  27.4389648   7.0217185
  23.1888103  27.1939068   7.3962045  23.9744053  27.1788559   6.1025281
  17.8921928  19.0325375  69.7005539  18.4208450  18.2610569  69.9044647
  17.5192509  18.8464031  68.8388748  82.8575287  50.1853104  32.3776169
  82.8379669  50.7485390  31.6039124  82.0863342  49.6257362  32.2860794
   5.9592333   3.6476262  72.5118103   6.5570512   2.9186716  72.6775513
   6.5334239   4.3947940  72.3436508   3.6479745  61.2415810  62.6794891
   3.9435058  60.6229820  63.3474960   2.7044742  61.3160400  62.8226509
   5.5997701  63.1707382   2.8244760   4.9599705  62.8878059   2.1711493
   5.5182514  64.1242981   2.8422644  65.0829468  28.1982956   3.9108245
  64.2172852  28.5855846   4.0407271  64.9328079  27.4748802   3.3022523
  50.8413811  54.7498283  74.0285721  51.1042900  54.9053612  73.1214218
  49.9273224  54.4720650  73.9687653  22.1812649  64.7501297  44.5009232
  21.4107170  65.0628281  44.0268936  22.2487373  63.8250122  44.2646179
  18.8411827  48.3735695   2.9722116  18.4919376  49.2638474   2.9313164
  19.3930378  48.2967873   2.1938863  29.4264336  37.8298492  22.9138451
  29.3194942  38.0215225  21.9821491  30.3723030  37.7453957  23.0339718
  38.1216965  17.5161037  65.9964828  37.3107033  17.7058201  65.5247574
  38.7826195  18.0564384  65.5635376  11.5231018  32.2473412  79.8454132
  10.7719965  32.8312492  79.7399292  11.6461678  31.8567276  78.9802475
   8.4476337  17.2725887   4.2618656   7.8199053  17.7499447   4.8043790
   8.5148268  16.4115753   4.6746268   7.0847182  43.0379639  12.5908031
   6.8697443  42.5314445  11.8075676   7.0313416  42.4054146  13.3072300
  25.3831863  44.5557289  66.6194611  24.8926067  44.4708557  65.8019333
  26.2305107  44.1511726  66.4334335  43.7486153  63.6989326  44.5637245
  44.3901443  64.0598526  43.9518356  43.1172676  63.2427292  44.0073853
  13.7386112  27.2402649  76.8467941  13.8073196  28.1014023  76.4345398
  14.4716291  26.7423058  76.4849243  20.7467022  70.0818710  62.4603882
  21.4693394  70.7003860  62.3532944  20.5568466  70.0954514  63.3984718
  30.3864403  23.3449211   1.1901921  29.7755680  22.7289619   1.5947416
  30.1770458  23.3117332   0.2567661  81.9876556  47.3577766  40.9178276
  82.8752518  47.0398102  41.0830841  81.9602280  48.2189445  41.3348007
   7.6172843   7.8996410  86.4599991   7.6036382   7.1860433  87.0978317
   8.5456657   8.0310888  86.2674866  72.4788055  10.6591558  73.4259491
  73.0175552  10.2015972  72.7804871  71.6725998  10.1452532  73.4725189
   8.8038664  42.9468575  53.7616844   9.4004478  43.4924850  53.2492256
   8.5262842  42.2604332  53.1550560  74.1093979  11.6790247  75.2483292
  73.5717697  11.3443737  74.5305557  74.9972763  11.7030258  74.8915100
  53.8343849  56.6093559  62.6924591  53.2396278  55.9020309  62.4430885
  53.2579536  57.3135757  62.9891586   3.5477087  65.5223312  28.0294724
   4.2718182  65.4030838  27.4149170   3.9215188  66.0400925  28.7425098
  56.0450706  19.8989697   1.7772993  56.4437752  20.4587727   1.1110493
  55.4341621  19.3455067   1.2907826   6.7224636  68.9733963  81.0569992
   5.8074045  69.1899338  80.8780899   6.6795125  68.2456665  81.6773224
  18.4301777  26.4699440   5.2413144  17.7989159  25.8431244   4.8879919
  19.2378922  26.2943401   4.7586241  44.6534843   6.7398682  58.0115051
  45.2132645   6.5721450  58.7696228  43.9818954   7.3389621  58.3375282
  69.2478867  36.7630882  18.8251686  69.0288773  36.1933365  19.5624981
  68.7916107  36.3747864  18.0786629  57.6579132  24.7341518  71.5970154
  58.1854668  24.5750084  72.3796997  56.8547287  24.2346020  71.7438965
  10.2248325  51.0918159  30.0136795   9.6936016  51.7775307  29.6089325
  10.6228762  50.6302147  29.2756310  67.8837967  60.8051491  61.2853851
  68.1185760  60.8922272  62.2092514  68.3700180  60.0368729  60.9860878
  58.0449371   5.5243969   2.8157942  57.4965057   4.9340215   3.3324320
  57.4243164   6.0299311   2.2909160  13.5316210  56.5611725  25.7320213
  14.1281319  55.9983444  25.2384281  13.2334404  57.2108002  25.0953884
   8.8776588  45.0168343  70.4054871   9.8260574  45.0680733  70.2865448
   8.5609055  44.5757103  69.6172562  53.9364700  57.8738365  42.2949982
  54.5913506  57.6161194  42.9438019  54.3935318  58.4935989  41.7264748
  73.2248764  26.1782131  83.5462418  72.7541351  25.5228729  83.0313034
  73.1432266  25.8759422  84.4507904  19.0771580   6.1246128  47.0517731
  19.9761391   6.4471421  47.1153183  18.9655228   5.9072971  46.1262779
  54.0993538  37.7591019  36.3546562  53.5384712  38.5278320  36.2512283
  53.6921158  37.0897522  35.8047829  20.4742012  56.1777573  27.9301796
  21.2366314  55.9570427  28.4651737  20.7433929  56.9533272  27.4379826
  33.0861588  40.5768852  76.0413895  32.1749458  40.5878448  75.7484665
  33.4737396  41.3585281  75.6476212  38.9468498  19.4048195  86.6134262
  39.0368805  20.1250553  87.2374344  38.5454445  18.6983337  87.1193771
  28.8428345   4.9618263  46.7636871  27.9431210   5.2508359  46.9160728
  29.3297615   5.2846036  47.5219383  82.1651840  63.7566528  83.7645035
  81.3763885  63.3709869  84.1456909  82.5270996  63.0642662  83.2114639
  62.3023911  13.1748266  68.2442551  63.1834641  13.1684132  68.6182861
  61.7581711  13.5787468  68.9201965  30.4918499  41.6183395   0.7643947
  30.0598278  42.4026756   0.4261606  31.2275257  41.4745598   0.1691286
  73.6118698   6.8214192  73.1148605  74.5118790   6.5144100  73.2242203
  73.6930847   7.6211443  72.5951767  80.1487961  20.9253216  45.5000343
  79.9118652  21.5626526  46.1737595  80.9103546  21.3086548  45.0649338
  50.0704918   1.9779613  60.5706902  49.3918343   1.3031846  60.5525436
  50.8240891   1.5712903  60.1429710  70.2130280  30.6801434  56.4550591
  71.0993347  30.9993744  56.6246986  69.7066803  30.9632034  57.2164536
  53.1866608  50.5325928  57.1639214  53.2627335  50.9186440  56.2913361
  53.5635834  49.6575050  57.0723610   1.1480707  33.3675499   1.2018083
   1.2340778  33.9346085   0.4354651   0.3015499  33.6039963   1.5809228
  63.2225990  68.2056808  75.4656906  63.6791878  68.0011063  76.2817230
  62.5126190  68.7912827  75.7287979  73.2455444  62.9746208  30.8208847
  72.6478043  63.5501480  30.3437023  73.8908005  62.7046432  30.1674366
  34.0333176  51.4819984  44.4455719  33.2137070  51.6902962  43.9971542
  33.8498611  51.6495056  45.3699722   1.0363610  44.0175400  88.3299408
   1.2953520  44.9384041  88.3640900   0.3030430  43.9521408  88.9416580
  35.3240585  31.4764042   2.7487154  35.6300583  30.6748047   3.1730206
  34.9458199  31.9941978   3.4593897   2.5907574  19.8759117  65.8171921
   2.9509611  19.4757328  66.6086121   3.2636333  20.4951782  65.5343857
  46.4175186  39.5501709  47.8773613  45.6937523  39.9017525  48.3958054
  46.2262306  38.6153069  47.8020744  57.7099915  27.1134434  73.4055939
  57.1280785  26.7149601  72.7584305  57.6366730  26.5476284  74.1741638
  48.8386917   5.6805606  41.9464417  48.8005028   6.2144318  41.1528702
  48.8565216   6.3160667  42.6620140   8.0389471  52.6382942  86.0710602
   8.6306152  52.4223366  86.7918396   7.2875595  52.0586281  86.1961060
  21.4540501  57.9733925  65.9931107  21.5125580  57.0536690  65.7344360
  22.2309303  58.3800392  65.6092758  52.9923553  46.0341949  58.8044777
  53.7281418  45.6298065  59.2641716  52.3331757  45.3421211  58.7520256
  63.0037918   8.9609108   5.3797989  62.0837746   9.1582327   5.5554943
  63.1261444   9.1898737   4.4584751  13.5567074  68.8566666  66.6731644
  14.0202227  69.6925964  66.6221619  14.0199909  68.2880020  66.0581665
  51.7473831  46.6685333  27.1487999  51.7708244  47.6254311  27.1538792
  51.2591934  46.4451141  26.3563423  81.9264374  52.3587074  33.5051765
  82.3729477  51.5457611  33.2685814  81.5561752  52.1854591  34.3706970
  10.0828514  63.7324677  76.4035721  10.9367485  63.3217316  76.5391693
  10.1627855  64.1784744  75.5604095  81.3458405  67.2217941  19.7733040
  81.2607727  66.3692017  20.2000122  81.9828949  67.6949997  20.3085327
  77.4514999  49.2474022  11.0291138  78.2941589  49.3258247  11.4763374
  77.1639252  50.1511841  10.8998442  51.5399895   5.0589213  76.5024567
  51.7619514   5.2256598  75.5863953  51.3498764   4.1213908  76.5360107
  58.4020958  65.8930511  58.6497078  58.9279480  66.2795486  59.3499413
  57.7201347  65.4004440  59.1063271  22.9971676  27.5242939   4.5310159
  22.0800972  27.6988564   4.3194938  23.4135151  27.3705864   3.6829233
  23.2792015  61.9622421  13.7329426  23.7118263  62.1208649  12.8939524
  22.4363575  61.5739975  13.4981842  40.1126289  67.3521271  12.3423023
  39.8159599  66.4565430  12.5039854  40.4781494  67.6381683  13.1794434
  61.1803703  52.5233879   6.4041295  60.8806953  51.6149521   6.4383082
  60.4993019  52.9819145   5.9120588  14.5570869  63.7523308   7.6112242
  14.1566343  63.6093369   6.7536569  15.0213442  62.9363213   7.7978349
  57.9977379  16.8389378  14.9338331  57.6272774  15.9918823  14.6858644
  57.5847588  17.4644794  14.3385363  12.7101669  38.6401062  71.4991379
  12.7101145  38.5194054  70.5495758  12.0579004  38.0172424  71.8197861
  34.6788940  15.2822294  83.1178589  35.0660400  15.9364357  82.5361633
  33.7461472  15.4967127  83.1324158  47.4943695  13.2047224   6.1496544
  48.4194107  13.3507853   5.9516640  47.3598518  12.2705746   5.9899535
  10.1374664  47.3022041   1.1981224  10.4820881  46.4330635   1.4032094
  10.1124916  47.7549896   2.0410891  24.9342480  51.0109215  46.3522263
  24.4678001  50.9975586  45.5164757  24.4315586  50.4234390  46.9164963
  39.4306793   2.1552680  50.0108948  39.4917793   1.4937865  49.3217354
  39.2060738   1.6602613  50.7987747  52.8780479  56.9213486  67.6071548
  53.0846748  56.1802711  67.0376358  53.5743713  56.9201202  68.2639389
  29.9801006  29.1661663   2.2947145  29.8425617  28.2195110   2.2606883
  30.1166401  29.4213028   1.3823034  25.8255234  65.7423477  83.6513519
  26.6177979  66.1449280  83.2957382  25.1572227  66.4237442  83.5785065
  66.6919937  40.1069107  65.9608383  66.8517990  39.4706764  66.6578979
  67.5654526  40.3529587  65.6562729  28.7800884  46.8441467  62.6635361
  28.7819481  47.7792320  62.4589882  28.9811726  46.4164848  61.8311310
  67.6548233  24.6585407   0.9271029  68.4402924  24.1199551   1.0229962
  66.9346924  24.0776596   1.1724887  47.1555786  12.6135244  74.7108307
  46.5127144  12.0442781  74.2878418  48.0025101  12.2791224  74.4156876
  47.0509987  31.9602337  30.4083023  46.4373436  32.6853371  30.2904625
  46.9508858  31.4307594  29.6171856  32.9225235  42.2450981  41.8158493
  32.9696426  42.4016800  42.7589798  33.3584557  41.4021339  41.6909370
  52.0101776  66.5519104  38.6286354  52.4718895  65.8645401  38.1484528
  52.2508507  67.3616180  38.1784248  68.4034424  67.6256104  13.6920109
  69.3582153  67.5621490  13.7168760  68.2199402  68.5477448  13.8715229
  16.5449905  37.2780190  79.6048050  16.8603210  38.0394936  80.0915833
  17.2656536  37.0552101  79.0155334  13.7160940  49.8202362  31.7234058
  14.3199797  50.0001564  32.4439507  13.0137138  49.3065376  32.1221619
   6.5134692  60.4833107  14.3832054   6.1215568  61.2748184  14.7521915
   7.0831270  60.8020821  13.6831312  40.2973137  10.8768072  88.6947327
  40.1377983   9.9348917  88.7545700  40.1296959  11.0902777  87.7768173
  73.1516342  49.3040390  73.2759857  73.5914230  48.8999290  74.0239868
  72.3783569  48.7591591  73.1297607  33.2976151  52.1826973  77.4442291
  33.7735023  51.3884125  77.2015839  32.7251511  51.9093742  78.1610336
  82.1310577   2.3059893  74.6790695  82.9693909   2.5552649  74.2901154
  81.5581970   3.0548019  74.5136948  36.3788033  28.8493156   2.3731999
  36.6492348  29.2002029   1.5246850  37.0609665  29.1371841   2.9798448
  24.8891945  51.4429474  66.9891815  24.9842529  51.2633247  67.9245605
  24.7206726  50.5863304  66.5967026  82.7029572  12.6568327  33.4805450
  81.9516144  13.1122551  33.8604088  82.5072403  12.6111269  32.5446815
  49.9337234  44.3743629  32.7527275  50.3842735  43.9086151  33.4572258
  49.1670761  43.8343849  32.5606194  10.0047426  25.7904396  22.9058342
  10.4794655  26.4780102  23.3728638   9.4082050  25.4250793  23.5591984
  74.5675278  31.4234200  79.2328796  74.8171387  31.5155373  78.3134003
  73.6738815  31.0815659  79.2053680   8.1537085  62.6416779  52.0824738
   8.6341047  63.0570717  52.7986412   7.4148269  62.2081223  52.5094566
  34.0593338  46.0121155  73.8722916  33.6608315  46.2844009  73.0456848
  33.5206299  45.2780495  74.1675491  21.8366623  40.9603500  43.2857742
  21.4194088  40.8889503  44.1442795  21.2984409  41.5927544  42.8097382
  74.0947266   0.7151089  12.8717518  73.9352112   1.6184609  13.1451378
  75.0432892   0.6076058  12.9418583  31.1386261  29.8991051  73.3778305
  31.9448204  29.6095600  73.8049622  31.0007286  29.2666893  72.6726608
  22.5762901  39.6041298  47.4738998  22.9677792  38.7992973  47.8133316
  22.6247807  40.2206841  48.2044754   4.4054008  29.8287697  44.3758926
   4.6002588  28.8944244  44.4484329   4.7237167  30.0730553  43.5068512
  31.5882053  67.5665436  32.6025238  32.3952866  67.9624252  32.2736893
  31.3586712  68.0920105  33.3689651  62.5322723  24.8710785  76.9860611
  63.4483223  24.7441750  77.2330017  62.5279961  24.7907486  76.0322495
   0.3407770  61.7099342  51.5104713   1.2701173  61.8097076  51.7168770
  -0.1124012  61.9831543  52.3080978  79.5075836   8.9300327  78.7876282
  79.3667755   8.0223494  78.5183411  78.7342300   9.1482706  79.3077545
   3.3928797  68.9250183  53.0381813   3.4419303  69.3502731  52.1820374
   2.4744835  68.6702042  53.1267776  12.3171873  71.0011444  29.9690475
  11.7250748  70.2507324  30.0191860  11.8850403  71.6820908  30.4846020
  38.6492462   3.7395220   5.7101002  38.3719215   3.1634698   4.9977188
  38.1808853   4.5591068   5.5515127  86.2634583  34.7151527  65.2509460
  86.1794662  35.6635399  65.1522446  87.2046738  34.5661583  65.3412018
  35.9862823  69.3550797  22.2462139  35.1797104  69.8585510  22.1357670
  35.7878723  68.7359848  22.9487686  45.1512222  51.3913193   4.6461105
  45.3837891  52.3131905   4.7570167  44.1965065  51.3917770   4.5771770
  27.8018303  68.8232727  83.9427567  27.9953442  68.2884750  84.7126770
  28.5572014  68.6982498  83.3682861  28.3236809  31.5633392  82.8358459
  27.6555195  31.3976192  83.5009232  28.4353046  32.5139999  82.8401566
  22.7969284  69.6702118  79.2630310  22.2014484  68.9232407  79.3235855
  22.4831676  70.2812881  79.9296417   2.7936382  56.7526588   7.7154307
   3.3075492  56.1523094   7.1753330   2.2581692  56.1811028   8.2657261
  31.4665356  51.8883553  62.7461243  30.8995819  51.4218178  63.3602409
  31.4893379  51.3295288  61.9693222  15.5545464  41.5270157  46.6179581
  16.3620834  41.9356804  46.3063393  15.4145994  41.9046936  47.4862938
  67.8020325  64.4352798  73.5459137  67.2587891  64.8896255  74.1898727
  68.6382523  64.9005966  73.5670319  29.3811779  63.7546959  76.0771637
  30.2376156  64.1796722  76.1233902  28.9156036  64.2284470  75.3879395
  44.3568649   9.8841219  23.3342896  45.2522545  10.0237627  23.6425228
  44.4405136   9.2232685  22.6468983  68.8138046  18.2370033  38.7310333
  69.6188889  18.7427197  38.8420639  68.7661972  17.6876774  39.5134697
  58.4229279  62.0488243  29.4703693  59.2804756  61.6624947  29.2926273
  58.5589256  62.9908562  29.3688259  51.2092667  31.4956131   1.0767964
  51.8522301  32.0839882   1.4725810  50.4502182  31.5445328   1.6579052
  21.9013119  19.7794666   3.5468864  21.6459713  20.2842464   2.7747266
  21.0722809  19.4996910   3.9350438  77.2465439  31.4522400  37.7139969
  77.4355545  31.1133022  36.8389969  76.7245789  30.7656651  38.1292076
  22.7503643  13.4244022  75.4363937  22.6347790  12.4969721  75.6431427
  21.8736286  13.7285652  75.2017670  16.7963848  40.8461800   5.6135449
  17.0775185  41.1671028   4.7566886  17.0153847  41.5549698   6.2184286
  21.8470039  69.7696075   2.7657242  21.9550247  70.5651321   3.2869749
  21.1147137  69.9641190   2.1807904  40.3983269  16.7622299  81.1312714
  39.7392540  16.0693054  81.1726456  40.4808159  17.0685577  82.0343704
  36.4084473  70.8454666  33.2008553  35.6851082  71.4152527  32.9394073
  36.9348526  71.3829269  33.7926865  19.7994995  37.2179298  88.3286438
  19.4595852  37.2534752  89.2227478  19.0189171  37.2335091  87.7748566
  54.5765114  57.7201271  24.6727638  54.2872200  56.8076935  24.6750278
  55.1045532  57.8059387  25.4665146  78.3957901  61.8209915  43.1494675
  78.5272980  60.9566689  42.7597504  77.6742249  61.6983147  43.7663345
  78.7811050  43.1430359  45.2229691  78.8752518  43.2542267  46.1690178
  78.0689316  43.7354202  44.9818840  16.6536827  58.7050133  71.0159225
  16.3734474  58.1400070  71.7359772  17.4154530  58.2598801  70.6447220
   0.0472604  26.1643982  25.2635651   0.7895035  26.6681652  24.9296093
  -0.6702780  26.7963371  25.3085499  53.9401703  51.3198738  82.6027985
  53.6938133  51.1491280  83.5118561  54.8955994  51.3754845  82.6199722
  80.4642563  12.6843824  48.1769180  81.2600174  12.6403141  48.7070656
  80.1956024  13.6019020  48.2239914  32.9286461  31.5608120  46.2489853
  33.4542580  31.0293484  45.6510658  33.3234482  32.4317093  46.2053719
  81.4696732  17.3118763  42.9641075  81.1326447  17.4213314  42.0749168
  82.2113953  16.7146206  42.8672829   5.2967944  63.1971054  66.6139603
   6.1239367  63.0711861  67.0789413   4.8342462  62.3656349  66.7185516
  15.1036873   3.6130226  17.6541729  14.9376545   2.7086098  17.9200726
  15.2673521   3.5596375  16.7125816  17.1027374  50.6543312  51.4116821
  17.2117329  51.3780937  50.7948189  16.8621731  51.0766296  52.2363167
  76.7344666  48.6734161  21.7397041  76.6194382  48.6191368  20.7909927
  77.1033401  47.8249397  21.9851761  16.1313343  54.0234604  39.0161209
  16.2266636  54.7638435  39.6152725  16.6237297  54.2811012  38.2367630
  32.0643730  55.2556648   1.4871122  32.2956963  54.8816299   2.3373008
  32.9012222  55.5242157   1.1079079  23.9545612   0.0268892  16.6993427
  24.5096283  -0.5947472  16.2284908  24.3097706   0.8858864  16.4709072
  67.4594040  45.5776672  84.9121475  68.2480698  46.1061440  85.0344162
  67.2979279  45.6030388  83.9690094  38.9525833  47.5069733  62.9263420
  38.9239044  48.4105759  63.2408371  39.7944984  47.4365845  62.4763870
  26.5365944  55.1347008  78.3378906  27.0305443  54.7681160  79.0712814
  25.8939037  55.7137680  78.7475967  11.4305058  14.3802662  77.3196869
  10.9528799  13.7014303  76.8429413  11.2627859  14.1880665  78.2422714
  23.1800823   0.6690724  73.3031693  23.4804115   1.5563056  73.5002747
  23.9400196   0.2410416  72.9088135  58.7972336  17.5296459  26.8285160
  58.6957932  17.7216320  27.7607613  58.0343475  16.9944839  26.6097889
   0.7033878  62.6002121  20.4596081  -0.0299647  63.2140503  20.4999561
   1.4148524  63.1027946  20.0627937  44.4049988  55.3096275  83.1737900
  44.5930023  54.5001144  83.6487427  43.8636894  55.0332603  82.4343109
  53.9823189  45.7538185  55.9249496  53.3172760  45.0709267  56.0121956
  54.8146744  45.2816200  55.9459457   3.4390562  46.7670746  25.3633385
   3.1734593  45.9950142  25.8629551   4.1724977  47.1320648  25.8583889
  26.6935539  50.6717148  13.4545135  26.4133530  51.1802292  12.6935062
  27.0531139  49.8654175  13.0846052  19.3775654  18.5627346  77.3719788
  20.0948887  19.1540737  77.6000061  19.8015308  17.8379421  76.9124527
  32.4196663   1.7947592  24.9377499  32.5694847   2.6396053  24.5134602
  31.5418434   1.8672459  25.3124619  63.5140457  53.5944099  78.5123825
  64.3485107  53.2053299  78.2506332  63.5067711  53.5257568  79.4670944
  66.5531158  34.7586098  19.9287567  66.7485123  35.0398750  19.0349216
  67.2088394  35.2009964  20.4677944  46.5121155   0.1546103  76.5024414
  46.3000412   1.0855055  76.5709381  46.6242142   0.0029185  75.5640106
  61.6822853  34.9816589  44.8655853  61.9339638  35.0606995  43.9454536
  61.1615181  35.7657089  45.0396576  54.6348076   7.8411250  72.7312241
  54.5696831   8.5153990  72.0549469  55.2786522   8.1845922  73.3506775
  16.0508041  64.0652771  19.3053761  15.2931681  63.5334816  19.5491238
  16.6006012  64.0722275  20.0888977  14.4301443  59.0797844  12.4644556
  13.7746506  58.8405266  11.8092346  14.7345533  58.2428894  12.8154154
  84.3043900  33.3092575  15.3579884  84.6019058  32.8075638  16.1169472
  84.7536545  32.9076118  14.6142988  41.0717812  46.2297707  24.2156830
  41.9476242  45.9028320  24.0101566  41.2071648  47.1489525  24.4459152
  66.2328720  31.6320629  17.1548786  66.9613953  31.5080357  17.7632389
  66.6029892  31.4344902  16.2945251  76.5629807  23.9710217  36.6138725
  76.5397186  23.4597645  37.4227638  77.1281509  24.7161903  36.8176804
  85.5497208  16.0610218  23.2985802  85.8781509  16.9459953  23.4572811
  86.1495056  15.6960402  22.6479816  35.1321144   1.9144328  39.1580925
  35.5308075   1.4694159  39.9059105  35.3432693   1.3584400  38.4080811
  37.7962608   1.4372510  85.3065414  37.4051018   0.8612220  85.9633636
  37.4274864   2.3002782  85.4947433  30.5746613  58.6432228  43.5361023
  30.6071835  59.4068413  44.1123466  30.5066757  59.0108414  42.6549263
  21.9888916  54.9103050  38.4386711  22.6818905  55.5701523  38.4628944
  21.8580379  54.7344894  37.5069008  81.7639160  22.0732079  24.5493546
  81.0574722  22.6699200  24.7965488  81.9793930  21.6090107  25.3582573
  71.6400146  61.6465797  49.6619606  70.7415085  61.3217049  49.6038361
  72.1720047  60.8597183  49.7805557  78.7545319  27.6024494  71.3082352
  78.7919693  26.9658966  70.5943451  79.3045425  28.3275490  71.0116730
  14.6886339  58.1261597  37.4940262  14.3231735  58.9571228  37.1904373
  14.0039520  57.4825554  37.3117790  31.2683487  43.7158661  26.3209209
  31.9962959  43.3544197  25.8152695  30.9238091  44.4216766  25.7737904
  63.4862518   9.3795872  78.8867569  63.7836723  10.0234299  78.2439194
  62.6225739   9.1102848  78.5740738  53.8159828  66.5368347  88.6755524
  54.1724930  65.8950653  89.2897720  52.8966675  66.6243973  88.9273834
  67.2256165  18.7784042  83.9850998  66.3241425  18.4941883  83.8340988
  67.7615814  18.1199112  83.5430984  25.2953358  24.7019863  20.2016315
  25.8264465  25.3462715  20.6696587  24.7909203  24.2639751  20.8871536
  16.1497307   8.2690086  65.8423538  16.3586178   7.5709891  66.4631348
  16.9832001   8.7161827  65.6954041  70.5522537  29.2195263  65.5032501
  69.8743744  29.0510273  66.1577148  71.2405319  28.5848389  65.7024384
  75.4009781  33.9614830  80.1700668  76.3352966  33.7988319  80.2998199
  75.0260925  33.0943871  80.0156937  10.8022985  44.4132652  27.0887089
  10.5884743  44.0924911  26.2125721   9.9680262  44.7242889  27.4401150
  50.7717590  22.5692158  77.7356796  51.6686172  22.5332050  77.4031448
  50.4646988  21.6635151  77.6950455  62.1676521  70.3346558  51.2001266
  61.8455505  70.4130173  50.3021622  61.7188759  71.0325851  51.6773262
  13.7502203   0.4224325  28.0772190  13.2611647  -0.0681376  28.7378216
  13.1146069   0.5847797  27.3801746  25.7863235  52.9796562  35.8902283
  26.4857044  53.4929085  35.4856606  26.1721687  52.1142616  36.0260506
  58.6727905  16.5549908  76.7161331  59.0687447  17.1853447  77.3178864
  59.4145851  16.1736393  76.2465134   4.7734408  64.2928772  80.0183105
   4.5308876  63.3979073  80.2558594   4.1148653  64.5569992  79.3758545
  82.1406937  31.6593170  60.4550819  83.0485611  31.3898926  60.3157463
  82.2060394  32.5421677  60.8191338  56.0240517   0.1930346  56.5250549
  56.1745605   0.6222097  55.6828041  55.0746040   0.2230276  56.6428719
  10.8008451  53.1127129  45.7594490  10.9494019  52.1723289  45.6602516
  10.8517609  53.4585457  44.8683586   2.5963085   9.4279747  65.2540588
   2.1258771   9.9012041  65.9403381   2.8909347  10.1106319  64.6512222
  59.2692680  57.3167381  63.2962723  60.1928101  57.4691353  63.0960770
  58.7945938  57.8129730  62.6294403  30.4588547  67.9512405  12.6698322
  29.9649906  67.1497498  12.8428698  29.8104019  68.5607529  12.3173542
   6.5319800  37.8455200  20.7347622   6.4509897  38.7966881  20.8051376
   5.6326132  37.5234489  20.7950897   2.8631008  67.7078781  61.1123390
   2.9061849  66.8040085  61.4244232   2.3620038  68.1697235  61.7845268
  56.0596085  32.3962021  42.6521149  55.4597969  31.8007774  43.1014786
  55.9672318  32.1749382  41.7254333  78.1933441  64.2341461   4.3332224
  77.6229172  63.7993202   3.6993675  78.4563217  65.0466461   3.9008753
   3.1786904  61.7947121  51.1126633   3.2480595  61.3501244  50.2678185
   3.2204220  62.7264061  50.8971634  54.4138260   8.3880625  69.4326782
  53.7828979   7.6698403  69.3845215  53.8759956   9.1724930  69.5405731
   6.4024596  46.3427849  24.8203049   6.1844387  47.0661812  25.4080124
   5.5704441  46.1097679  24.4083786  24.7443237  55.7573204  45.4519806
  24.5714378  56.5832329  45.9038773  25.6983070  55.6789246  45.4529037
  75.9077377  36.3776207  61.6438713  76.1354980  35.4542313  61.7520866
  75.8760147  36.7226486  62.5361633  69.5487900  60.7569237  17.5252285
  70.0632172  61.0508385  16.7734280  69.8681335  59.8722115  17.7028198
  14.7927666  36.4140396  17.1407166  14.2075958  35.6705551  17.2857609
  14.5306625  36.7624512  16.2885761  52.2580261  69.2768173  22.0120583
  53.0362320  69.3136368  22.5681763  51.6553650  69.9105377  22.4011860
  65.6150894  49.5897141  35.5067139  65.4197540  50.2519875  34.8437881
  66.1323013  48.9314766  35.0425606  31.1255836   1.9593823  43.2173691
  31.3288345   2.8497000  42.9305687  31.8469982   1.4284613  42.8798599
  24.8223438  70.3388062  71.7544479  24.0958672  69.7689056  71.5021057
  25.4528198  70.2540817  71.0392151   2.8409359  63.5032082  76.4786530
   2.9340470  64.4117508  76.7652054   3.5211971  63.3905525  75.8147354
  84.4447708  40.3357925  49.8355484  84.7098160  41.0134125  49.2136078
  85.2647400  39.9171562  50.0974998  54.6783638  45.3687172  77.1580124
  54.9368172  44.5586815  77.5976410  54.4627953  45.9699097  77.8709869
  73.7483292  47.0969200   7.8191400  73.7318649  48.0512810   7.8909135
  73.9356537  46.9293900   6.8955188  13.7607412  53.3739929  69.0224838
  14.2564011  53.9866638  69.5657959  14.4295406  52.8619461  68.5677872
  19.5312958  59.2925377   1.5282377  19.1492443  59.5875092   0.7016420
  19.5967121  58.3420258   1.4361660  32.3995552  38.4917793  65.5202713
  31.6619339  39.0856743  65.6596909  32.5004768  38.0350456  66.3554001
  16.2287884  28.3048763   2.3330920  15.4730501  28.2284889   1.7506354
  16.0273514  27.7213078   3.0645995  21.9828320  67.7018051  21.5459938
  21.4988747  67.7972794  20.7256889  22.5979557  68.4351883  21.5479298
  87.0084686  29.0156231  84.6548386  86.8908463  29.8870125  85.0330963
  86.3060150  28.4909763  85.0389404  42.9695549   4.9670596  15.0779915
  42.6629829   4.9505525  15.9846191  42.1802521   5.1286602  14.5611610
  68.4512787  14.7192097   0.2697070  68.2141266  14.8830214   1.1824813
  67.8228455  14.0607834  -0.0265722  78.4530182   2.9945362  33.2228813
  79.1963577   2.8682845  33.8125687  77.7388458   2.5035622  33.6292458
  45.1675797  44.9870415  82.0487823  44.9140053  44.0647507  82.0849304
  45.0324478  45.2369385  81.1347122   9.0226593  31.9702911  35.1706352
   8.3086529  31.6947880  34.5957222   8.8879747  31.4708424  35.9760208
  86.3161926   8.3294382  60.4712639  87.1358948   8.8024702  60.6146851
  86.5437622   7.6393538  59.8481827  74.2194061  36.4382668  39.0762634
  73.6735992  35.6632919  39.2094612  74.6976471  36.2581673  38.2668953
  41.5239296  70.9098434  21.8861618  42.4796600  70.8649445  21.9143162
  41.3357544  71.7562180  21.4806175  15.6233463  55.2417564  86.5254974
  15.6096792  54.6908073  85.7428741  15.1867771  56.0501671  86.2569580
  25.0556717  64.9565353  20.8609409  24.7425499  64.2394257  20.3096390
  25.2129402  65.6768646  20.2505035  44.2401505  68.3656387  35.1455193
  43.8063622  67.8417282  35.8190041  43.6764641  68.2813797  34.3764992
  72.3283310  55.0047531  53.2540588  73.2446365  54.8018150  53.4423180
  72.1810684  55.8546066  53.6691475  59.6764030  10.7237511  88.3848495
  59.9149628  11.6355791  88.2178497  60.4269714  10.2186794  88.0721512
  78.9479446  33.6905670  57.1523323  78.6109848  33.8971291  56.2805405
  78.3921585  34.1919708  57.7489281  70.6316452  56.1512070  10.9987059
  70.3088455  56.3209610  11.8836994  69.9367905  55.6396446  10.5843277
  58.0182648  41.7093544  19.5050278  58.1858521  42.6109962  19.7792397
  58.8126640  41.2336464  19.7476425  19.1598778  61.8392220  71.5645523
  19.8137970  62.5204430  71.4078369  19.5455894  61.0465927  71.1914597
   2.8349731  30.9764786  29.8654804   3.2286117  31.8489590  29.8729782
   1.9256980  31.1217003  30.1269379   4.3526106  60.7479744  35.5671844
   4.6990762  60.3493385  36.3654823   4.5083718  60.0939789  34.8858185
  70.8639984  27.0797100  76.8188400  71.4919357  26.4134388  77.0981369
  70.6769180  26.8644619  75.9051132  25.2391109   8.8968792   7.8713431
  24.3355274   9.1840601   8.0028582  25.5557289   8.6918898   8.7510948
  36.7298737  62.2691803  39.4871292  36.1016960  62.5491028  40.1529121
  36.1949272  61.8441544  38.8167458  16.5047264  45.0867767  23.8977623
  15.8193102  44.6768913  23.3700981  16.4850082  46.0088539  23.6416016
  75.5479279  22.2822361  32.3959503  75.9953995  21.7480278  31.7397308
  74.6659851  21.9133492  32.4442291  21.0306740  33.1489105  79.8248062
  20.2992840  33.3301697  79.2345123  20.6256027  32.7395592  80.5893860
  58.3858490   2.0865455   4.2241125  57.7429695   2.7925153   4.2915316
  58.0953026   1.4361583   4.8634958  45.6801529   4.0050812  87.4637909
  46.5527725   3.8756330  87.0922928  45.8149338   4.6231813  88.1821289
  23.4375954  57.4101639  16.2493191  23.7312260  56.5390587  15.9824991
  24.1984501  57.9733276  16.1072674  40.7818222  36.0431709  74.2083282
  41.4606056  36.5997543  74.5900345  40.0290260  36.1506462  74.7896881
  74.8117981  46.5188370  75.6536636  75.7643204  46.5733337  75.7309113
  74.5164566  46.2437630  76.5216217   6.0928254  24.5777340  85.2635193
   5.8917274  24.6629791  84.3315735   6.3832936  25.4509964  85.5267181
   2.1043100   1.3102669  77.1000595   1.2274185   1.0642649  76.8054810
   2.3577478   2.0303397  76.5225677  84.2811356  67.1712646  49.4838943
  84.7739182  67.5264511  48.7441368  83.3650131  67.3428650  49.2659340
  65.1677094  22.6917782  22.6697941  66.0698853  22.6201839  22.3580475
  65.1816940  23.4328537  23.2754707  16.4193325  62.2322350  41.8159676
  17.0750103  61.5407867  41.7253380  16.2361069  62.2669983  42.7548218
  45.1115112  26.6918507  38.1402855  44.9167633  26.0602818  37.4478836
  45.4541130  27.4565239  37.6775436  56.4416237   0.0886287  61.0044708
  57.0971107  -0.1573881  60.3517494  56.1704636   0.9708905  60.7508659
  52.8888931  53.8754234  81.3304214  53.7637177  53.4939346  81.4037781
  53.0079994  54.6415939  80.7691422  19.7118664  11.2676706  89.2852554
  20.5526638  11.2670507  89.7427444  19.9423370  11.3585291  88.3606720
  71.2045746  70.2457428   3.3309019  71.8945541  70.3262024   3.9894454
  70.9422226  71.1478195   3.1474223  59.2104149  68.0511703  71.1083984
  59.2159004  68.2614899  72.0421906  58.4301872  68.4894714  70.7687378
  70.5708618  69.4225845  28.9061089  71.2207718  69.2827911  29.5948124
  70.9201813  68.9534988  28.1483669  16.8290558  58.5945702  19.3195839
  16.8182869  58.0212173  18.5531769  15.9218168  58.6036797  19.6246548
   3.1520009  27.4653950   3.4664767   3.2551057  26.6010380   3.8645840
   2.5026999  27.3348770   2.7753868  75.3293762   0.6190960  71.5415878
  75.7231293  -0.1624585  71.1538162  74.4277802   0.6177076  71.2201004
  45.3347664  64.6660843  26.0356998  45.7363930  64.0297699  25.4440670
  45.1470909  64.1681366  26.8313522  84.9069214  52.1554680   3.9618163
  84.5993958  51.2492981   3.9845994  85.7148972  52.1471710   4.4749780
  43.5038757  12.4657059   0.9061692  42.7497902  12.9085121   0.5169239
  43.3400307  11.5350199   0.7538192  79.3139572  12.8643017  67.0725555
  79.1009521  13.7973156  67.0910950  80.1897812  12.8109274  67.4550705
  25.0063553  70.5970078  19.5316105  24.6594925  71.4323578  19.2183857
  24.7495441  70.5614243  20.4530296  79.2262650   9.9231043  25.0868931
  79.9542694   9.4226866  24.7183475  78.5247269   9.2809505  25.1951084
  42.3316345  40.6114998  88.2971420  42.2533989  39.8658943  87.7020111
  41.5110855  40.6116753  88.7900238  25.3803234  37.9368057  20.5452576
  25.9104137  38.2968636  21.2563095  24.5889969  38.4753304  20.5400772
  41.8181877  58.2298203   0.2355547  41.1460991  58.6114616  -0.3291368
  42.5198517  58.8808060   0.2464028  76.4534302  68.7604904  22.1398849
  76.4103851  69.6057129  22.5870667  77.2774734  68.7884674  21.6536617
  13.3644743  30.3163681   3.1119168  13.1095638  29.7207146   2.4073253
  14.1312733  30.7766533   2.7707603  28.4143715  32.9917221  72.7957687
  28.4772873  32.1130066  72.4214172  28.4370232  33.5768318  72.0385590
  49.6806183  19.8239231   7.3266535  49.0225792  19.4101276   7.8852129
  49.2347298  20.5848465   6.9546170   8.6054077  34.6465797  53.2118149
   7.9645219  34.3815613  53.8715591   9.4494572  34.3830719  53.5783882
  66.7015533  17.1753674  58.4702263  65.8693848  17.6401176  58.5581665
  66.5271606  16.4923286  57.8227119  35.3466759  43.7085648  42.9109993
  34.4140205  43.5345306  43.0378761  35.4573097  44.6229553  43.1715355
  21.0748863   9.8154802  31.9545689  21.9627075   9.4840794  32.0894012
  20.5553570   9.0357656  31.7586956  50.9285431  22.6396294  72.7532425
  51.0865593  23.1975155  71.9916534  51.1787415  21.7623081  72.4635239
   1.2380819  33.3652649  15.6664619   1.6632953  33.7002983  14.8770456
   1.0291843  34.1478615  16.1764984  19.7243366  63.4378014  40.0014038
  19.7948380  62.5112381  39.7717590  19.1350498  63.8038559  39.3418732
   7.3769231  44.9244232  36.4625778   7.3703866  44.4806480  35.6144867
   8.2300529  45.3568535  36.5000534  81.6425171  33.2361488  54.3476677
  81.6516724  32.2899895  54.4923439  81.9012985  33.3409615  53.4320908
  13.2969790  43.1983795  65.8069992  13.2609196  42.3155289  66.1751099
  12.5695238  43.2286797  65.1856079  82.9997330  64.7061996  79.6339264
  82.0448532  64.6540298  79.5924454  83.1775131  65.2206573  80.4213028
  77.5574417  65.3390350  31.5151978  78.4517593  65.6008072  31.2963562
  77.1663132  65.0975571  30.6755867  31.3676472  64.3590851  24.9640274
  30.9825459  63.5015182  24.7837219  31.2756367  64.4687500  25.9104614
  85.3606567  56.7221794  88.4470444  85.9552994  56.1611710  88.9449463
  85.8779221  57.5026474  88.2482071  41.6271896  60.1752434  34.0597725
  40.7138214  60.0413666  34.3128853  41.9224739  60.9043388  34.6051712
  77.9746170  60.8039589  70.3966370  77.9036865  59.9152527  70.7450562
  77.2275925  60.8893166  69.8042679   4.4372759  63.1520691   5.6776433
   4.6771288  63.9610023   6.1296740   4.9276128  63.1823311   4.8561292
  62.4198875  43.3634644  43.3243828  62.7226219  44.2210770  43.0259056
  61.5043106  43.5034180  43.5659714  82.6484680   9.0350094  17.0864162
  82.0384827   8.8506441  17.8006744  83.0812607   9.8486576  17.3450680
  38.1343269   5.3802977  88.2455139  38.1644478   4.4264746  88.3199844
  38.6633301   5.5769954  87.4724045  81.5834045  56.6955948  12.7675495
  82.1043930  57.2514763  13.3470287  80.7559128  57.1656723  12.6649523
   8.9497547  12.8322783  15.3609638   9.1032515  11.9108286  15.1521559
   8.3629665  12.8120241  16.1169415  38.4603348   2.3797538  13.8481913
  38.7967873   1.7680842  13.1932945  39.2437248   2.7493756  14.2555094
  34.1962280  55.4190788  25.4973621  34.5487480  55.8180389  24.7018814
  34.1775017  56.1326103  26.1351318  13.8650427  41.8061409   1.9931704
  13.4213629  42.4439125   1.4340409  13.1919289  41.1566811   2.1965218
  29.4987469  41.8505173   5.0047450  28.9459038  42.3694839   4.4205627
  28.8807335  41.3812027   5.5651326  80.6787415  23.1878586   6.9333763
  80.1679840  22.6452312   7.5341368  81.5483093  23.2321014   7.3310175
  21.6257954  57.2807961  35.9440498  22.1256409  57.4842644  35.1534882
  21.3975697  58.1354485  36.3097115  81.5119781  69.7249451  40.3015366
  81.7490234  70.4253693  39.6937218  82.3493195  69.3448868  40.5673218
  75.3221054  60.2275238  25.9113789  74.6782150  60.8420677  26.2634811
  75.2970886  59.4835091  26.5130825  58.0115013  59.1484184   9.0748262
  58.3477249  58.9945526   9.9577255  58.4737015  59.9314079   8.7756023
   7.4657884  33.9297295  78.5679779   7.9553909  33.3067551  78.0309219
   8.0970364  34.2302094  79.2217865   6.5225716  63.2479172  75.2183380
   7.4520736  63.0698204  75.0750198   6.3241463  63.9747162  74.6278915
  80.3899841  21.8760033  13.1875687  81.1970291  21.7159824  13.6767502
  79.7350006  22.0620251  13.8603439  72.5831833  56.9553986   9.1555309
  71.9881210  56.9783325   8.4061241  72.0164795  56.7767067   9.9059658
   8.0379171  56.8558846  41.2269135   7.5726223  57.4981384  41.7628593
   8.6636467  57.3743591  40.7210693  34.1566048  10.4219494  79.4959106
  34.5995140   9.5994787  79.7047272  34.8665657  11.0529566  79.3775024
  32.7257233  39.5006828   6.6650081  31.9420567  39.2671814   7.1625776
  32.4101105  39.6387482   5.7719483   6.3919482  24.1132221  69.3763733
   5.9329462  24.8951321  69.6832428   6.5288243  23.5903301  70.1663589
  74.4057388   9.1649036  14.4605303  74.5944366   9.7329788  15.2074690
  75.2461090   8.7571259  14.2514286  69.1199570  15.0804663  34.5964622
  69.8017120  15.1492949  33.9281044  69.4024658  15.6776209  35.2891579
  33.9559555  59.7147942  45.2553368  33.2678680  59.7728004  45.9182091
  33.6119957  59.1012421  44.6061249  75.6690826  15.8257227  22.6084290
  74.7424088  15.7719736  22.8421288  75.6716080  15.8974018  21.6539192
  72.2061996   9.3684149  79.2191925  71.2984161   9.3983440  78.9170914
  72.1947784   9.8293104  80.0580521  23.8161926  41.8246574  85.7078400
  22.9794979  41.9874802  86.1433411  24.4748802  42.0145340  86.3759079
  34.6360931  35.0888100   3.6128271  34.3722916  34.2999687   4.0865054
  33.8376770  35.6140175   3.5588191  43.3609314   0.8030184  78.6121216
  43.9335747   0.0592886  78.7996902  42.7465858   0.4729102  77.9565048
  19.6604214  32.8997040   1.8372487  19.9319077  32.7749405   2.7466226
  20.3853817  32.5481224   1.3204733  33.6978264   1.7590904  88.0571289
  33.0085526   1.6743027  88.7158737  33.5423889   2.6144300  87.6565475
  63.8610687  56.1731682  73.7480621  64.7795029  56.2958450  73.5079269
  63.6658592  56.9068565  74.3310089  53.6170235  25.4039574  66.8059158
  54.4253731  25.5661087  67.2922363  53.4526138  24.4678955  66.9198761
  23.1844578   1.1606449  65.5181656  22.9985199   2.0996120  65.5178070
  23.3980045   0.9584196  64.6072693  43.1861610  26.2141533  10.4968567
  42.2705841  25.9396095  10.4461126  43.6364937  25.4726429  10.9013281
  75.4686966  17.2609081  26.0874958  76.1993713  17.2985172  25.4703007
  74.9751663  18.0645313  25.9236450  19.1216927  19.1711006   8.3221388
  19.8540745  19.7842674   8.3843927  19.4285183  18.3848724   8.7737293
  24.3046455  41.6191139  80.6579590  25.1502686  41.6922646  81.1004562
  24.1255322  40.6790428  80.6375504  57.2570267  45.9262352  70.0659790
  57.4443550  45.0908089  69.6379623  56.4219704  46.2056808  69.6907120
  64.7588196  11.8180342  30.3430538  64.4533615  12.4708719  30.9729176
  63.9804916  11.2995863  30.1389694  31.0441208  70.6174011  66.0352859
  30.1474743  70.9050674  65.8635178  31.5928650  71.2925262  65.6361313
  40.7336464  36.2805061  64.7971191  40.0070724  36.2605133  64.1742783
  40.5815430  37.0694885  65.3173141  71.8081055  66.9105530  56.7245560
  71.2878723  67.1322098  57.4968643  71.2225342  67.0762253  55.9857101
  70.7574844  46.1930733  42.8981323  70.6413116  45.6700287  43.6913261
  70.7335892  47.0999146  43.2035828  30.7569447  60.1002312  74.0804901
  30.6122608  60.0190811  75.0232010  29.8965721  59.9426651  73.6916885
  72.8516693  25.2797585   5.3637977  72.0719452  24.8578110   5.7246695
  73.5413742  24.6215305   5.4490929  25.2842426  56.6723099  84.5677261
  24.5046406  56.3253326  85.0013809  25.9034290  56.8320351  85.2799911
  42.3713722   6.9204617  74.3227844  42.3050652   6.7916527  75.2689590
  41.7573280   7.6300821  74.1340561   4.1300178  53.3723717  83.1198578
   4.0322313  52.4547806  82.8655090   3.5485084  53.4753799  83.8731689
  67.3214188  53.4922028  71.3363113  67.9538116  52.7812881  71.4407578
  66.5343475  53.1801491  71.7828293  39.6627235  56.5927811  73.8751450
  38.9013939  57.1506500  74.0345001  40.3390923  56.9384995  74.4575882
  19.2081909  23.4052677  24.1735630  18.3764668  23.6301250  23.7565403
  19.2633724  23.9906406  24.9288940  26.8361206   3.5672662  20.4743385
  27.0817242   2.7304289  20.0798588  26.9714508   3.4384103  21.4131222
  47.9828568  31.3791542  15.9807711  47.6767387  30.6059017  15.5068436
  47.3861504  32.0772591  15.7109175  50.0946350   9.3154478  84.4367752
  50.3725166  10.1770658  84.7476273  50.7311325   8.7080545  84.8138428
   0.5965148  28.5212288   4.8142319   0.3827179  27.5928097   4.9067545
   1.5073868  28.5291023   4.5201535  40.1353683  55.5239639  33.7359238
  40.0521622  56.1179619  32.9899521  40.1706886  56.1010208  34.4988060
  63.5136108   4.9244571  56.7102432  62.6804619   4.5832930  57.0353622
  63.3197098   5.2233181  55.8218079   0.7576123  60.5484047   7.7045865
   1.6577641  60.4312515   7.4008875   0.4902253  59.6788902   8.0023804
  48.2320709  15.1891193  62.1507721  47.5153427  15.6546526  62.5818291
  49.0051155  15.7263288  62.3241005   9.1881561  52.5325356  48.9616394
   9.5819159  51.7831955  48.5147858   9.9336987  53.0288010  49.2994499
  83.3706284  58.0756874  20.7664165  83.3063583  57.4889755  20.0128441
  82.8353882  57.6582375  21.4413109  32.0484619  56.2976494  47.0295753
  32.4738274  56.0092697  47.8371239  31.1875191  56.6080704  47.3100166
  63.2997360  61.2943420  31.2430592  64.0753555  61.7797050  31.5242615
  63.1708641  61.5561142  30.3314114  15.9324627  66.9348297  58.2235489
  15.2951632  67.4854813  58.6783714  16.1339569  67.4150543  57.4204178
  46.8952904  52.7968903  10.5763388  47.1619644  51.8933678  10.4067326
  45.9674416  52.7342224  10.8030472  49.0272446  70.2617493  27.4403458
  49.6219673  69.9051514  26.7805176  48.3926620  69.5618210  27.5941010
  47.9178734  65.2290039  48.2295799  48.0485954  66.0229874  47.7111778
  47.2124367  65.4527588  48.8366432  70.5518646  45.3499336  26.3761883
  70.8582535  45.2637558  27.2789230  71.2343521  45.8593369  25.9392147
   5.5361319  67.7715607  30.2293472   4.6398849  67.5251312  30.4579163
   5.9722881  67.8972778  31.0720768  55.1271095  68.4853897   1.5267767
  55.7015648  68.7471466   0.8072500  55.4886017  67.6529922   1.8311913
  70.9217148  36.7688141  78.8563232  70.1417542  36.7305374  79.4098892
  70.8770905  35.9743004  78.3243561  42.9022827  14.6322851  73.4438477
  43.2046432  15.4565687  73.0625763  42.6790047  14.8541765  74.3478012
  61.8903389  29.2047024  41.6763000  62.1939468  29.1173935  42.5798645
  61.0517769  28.7434292  41.6597633  85.1441879  29.2200623   3.5656931
  85.9894104  28.9614086   3.9330187  84.6771622  28.3947983   3.4350736
  22.5941505  15.1937170   1.8945085  23.2771435  15.8377428   2.0815506
  22.6823006  15.0162277   0.9580474  13.9143696   8.2900124  84.5113754
  12.9991655   8.5699177  84.5282898  13.9544878   7.6447673  83.8054886
  67.1622009  11.2225933   5.2645292  67.2411957  11.9545012   5.8763313
  67.0141373  11.6362104   4.4141002  45.5560150  56.0780296  20.9317074
  46.0546913  56.6930008  20.3937798  45.1599541  55.4756203  20.3020496
  17.4734287  28.3974915  14.5506334  17.3278275  28.3246403  13.6073818
  17.8913136  27.5711384  14.7930050  66.5027618  50.5002213  76.0937805
  66.2464676  50.2967567  75.1942520  67.2528687  49.9304314  76.2638016
  46.9222221  68.8230438  28.6785774  46.4487572  69.5385742  28.2542229
  46.2709198  68.1280670  28.7736702  35.9942245  25.0609608  20.6042862
  36.2344131  25.8138008  21.1444454  36.2365189  24.3002510  21.1323452
  74.8956223  41.6443901  19.4199810  75.7908325  41.8258400  19.7061710
  74.7864227  40.7033768  19.5571003   7.1006651  20.9329853  72.8916473
   6.2936416  21.4466267  72.8582001   6.8088970  20.0238323  72.8242645
  84.8780441  47.2249718   1.4489251  83.9219055  47.1998711   1.4114631
  85.0813751  47.2173576   2.3842487  70.5599670   0.0729858  64.4123383
  70.2041245  -0.4845185  63.7203865  69.9093475   0.7668993  64.5191650
  23.3726463  22.3289642  43.5901337  24.2481270  22.6749439  43.4167519
  22.8845081  22.4976597  42.7842216  33.2010918  66.7976913   1.4350146
  32.8685722  67.3253860   2.1611013  32.8020859  65.9369507   1.5620950
  45.6610909  17.2235165  25.6473694  46.0362778  18.1041145  25.6436691
  45.4254646  17.0674038  26.5618858  27.5977917  51.9970284  38.4056625
  28.5250969  51.9399643  38.1752739  27.3157253  51.0863228  38.4910316
  69.9761124  31.2349682  43.4209709  70.2681503  30.5272503  43.9954948
  69.5151062  31.8402119  44.0018196  77.5461578  21.6209030   3.9522378
  77.3378601  21.6936970   3.0208163  78.3877411  22.0673904   4.0450687
  46.0590858  58.8301697  64.5475082  46.8848228  59.0020714  64.0949173
  45.4940948  58.4457626  63.8772469  47.1244431  42.2851791  12.0359268
  46.2058907  42.0220108  12.0928087  47.2908287  42.3727264  11.0973730
  81.0461807  70.4408112  27.4132824  80.8175278  71.0487595  26.7101803
  80.3582611  70.5618896  28.0677586  47.3785515   6.8534551  31.8104801
  47.1881905   5.9189115  31.8918591  46.6109657   7.2875462  32.1827812
  44.1356087   5.5605211  38.0946236  44.9487495   5.6877313  38.5833511
  44.3475380   5.8332963  37.2019234  56.9082489  39.1593056  43.5152359
  55.9691086  39.2531090  43.6747627  57.0464211  38.2145920  43.4470215
  39.7713013  65.7222519  87.1862793  38.8158531  65.7705612  87.1544189
  40.0588951  66.1237793  86.3663406  44.8324890  47.1950150   6.3640113
  45.3219070  46.3951263   6.5560660  45.4810715  47.7870026   5.9830561
  83.8135376  54.2924461  10.1893883  84.0006943  55.1890335   9.9112940
  83.4676361  54.3843079  11.0771637  23.9147911  24.4954567   5.8264890
  23.2037773  23.8817863   5.6418304  23.8488846  24.6624908   6.7666955
  81.7629471  70.3095627   8.1331520  81.3004227  69.5983124   8.5763435
  82.6900406  70.1107559   8.2643337  63.8505325  25.9310513  36.3528976
  64.0012283  26.1287575  35.4285393  63.1827011  26.5598278  36.6265259
  31.8462849  46.1793709   0.9303203  32.7222786  45.7962036   0.8850315
  31.2662258  45.4897194   0.6076087  17.5354347  61.0989113  14.9780569
  17.5685825  60.1453934  15.0550804  18.4384384  61.3556519  14.7912416
  73.5735016  33.8820000  45.5606918  73.9453049  34.5475197  44.9818306
  72.6290817  34.0336380  45.5244827  76.4069138  57.5956154  72.2905960
  75.9661255  57.4185333  71.4595795  77.2961121  57.2641144  72.1654663
  55.5235176  26.1741085   9.3896856  55.1071243  26.9927998   9.6591196
  56.4499016  26.2970600   9.5968628  16.7916031  22.1591740  21.2898026
  16.8523731  22.9606056  21.8096542  15.8563929  22.0594635  21.1118355
  60.9803925  45.3095436  31.0764980  61.8335114  45.6836815  30.8564110
  61.1363716  44.3660965  31.1189861  73.6501770  58.4009209  83.6953583
  72.9902039  57.7129173  83.6097565  74.3585815  58.1270943  83.1127777
  53.8685799  42.5711594  24.7808075  54.6782112  42.6832848  25.2789650
  54.1598892  42.3312302  23.9011440  11.6618128  54.8041878  67.7038193
  12.2309332  54.3133354  68.2966080  11.2674818  54.1364250  67.1427231
  81.6760864  21.8239861   9.8728161  81.3815079  21.9557056  10.7739849
  81.1640320  21.0781994   9.5600357  13.7763720  27.0994282  17.5531235
  14.6767550  27.3934765  17.4150028  13.2797842  27.9057827  17.6924934
   2.4717360  44.0654030  20.6604691   1.8316140  43.7911034  20.0037823
   2.7619526  43.2491760  21.0676308  45.7184792  17.9971313  17.6063042
  45.0912476  18.7197762  17.6307659  46.5265961  18.3923645  17.2792416
  63.1681404  23.0085239  50.5101776  63.3018951  22.1435070  50.1227646
  63.3170052  22.8771992  51.4465675  61.1079254   3.9167118  12.4198303
  61.8799629   3.4840701  12.7845364  61.4307327   4.3625083  11.6367006
  46.5608788  51.1108437  60.1945801  46.7050858  50.3338852  60.7347412
  45.8447723  50.8656578  59.6086578  43.2928886  65.2695236  57.4485626
  43.9464188  64.6875534  57.8364296  42.9748955  65.7954483  58.1823959
   9.5801954  71.2940140  80.0272675   9.3712692  70.8133392  80.8282242
   8.7366848  71.6268158  79.7207336  17.1778355  55.2461586  20.0103531
  17.9154339  55.2598381  19.4004402  16.5319557  54.6766281  19.5923767
  38.4537239  11.2748518  82.4922333  38.9989204  10.6030140  82.9016571
  37.5678596  11.0857553  82.8016205  14.6890621  39.3888969  57.5171280
  14.8452044  38.4771347  57.2710724  15.5642815  39.7654648  57.6088905
  54.2343140  32.7815552  23.2283192  54.4293060  32.2681770  22.4443207
  54.8757668  32.4854774  23.8741589  65.0165558  39.1679001  11.3609571
  65.7987976  38.6750908  11.6088705  64.4084854  38.5041656  11.0354681
  78.5885086  30.8900299  43.5524673  79.1078262  30.1179695  43.3278160
  78.8766708  31.5609055  42.9334984  21.0993748  44.7286682  17.7792645
  20.4651432  44.0164452  17.6973038  21.9416447  44.2877235  17.8905239
  84.0559158  33.2759018  41.8120232  84.1067276  34.2239609  41.6902390
  84.9205322  33.0299988  42.1409760  10.2282448  47.3534851  44.2397537
  11.0271416  47.1121330  44.7085266   9.6761055  46.5731888  44.2899246
  73.1662903  66.9199905  41.5234909  73.4114380  67.7998047  41.2370148
  73.4693451  66.8701630  42.4300804  78.6874466  12.7577896  44.6329308
  77.9560318  13.3503723  44.4594002  78.2733459  11.9433880  44.9184151
  43.2156601   3.1882346  56.4347229  43.9962387   3.0844741  55.8905182
  43.0185089   2.3033683  56.7419281   3.7659032  17.9366512  81.4865417
   4.2939148  18.0251083  82.2800217   3.7618237  18.8134575  81.1025772
   5.1325593  52.6775932  16.0775032   4.9253159  53.2651978  16.8041420
   6.0792112  52.5486412  16.1362667  70.0592804   9.4140329  73.2304916
  69.7882309   9.8205757  72.4073944  69.2400436   9.1441536  73.6455078
   0.5105274  24.2373657  55.3233185   1.0268545  23.9443874  56.0741882
   0.8898606  25.0839558  55.0874748   6.2859631   5.3225470   7.5704470
   7.0104041   5.8747029   7.8646250   6.5224366   4.4419208   7.8616681
  54.5105400  51.2936287  70.5100632  55.2106590  51.9463615  70.5088882
  54.9417992  50.4802971  70.7722473  73.8330078   6.8447618  86.8408890
  74.1710358   7.0969696  87.7001648  73.6755905   7.6754918  86.3921814
  51.7239265  26.6869259  72.5610962  52.3605423  27.2290668  72.0952301
  51.3716888  26.1015453  71.8906555   1.4156252  16.8876991  82.5023193
   2.1484439  17.3685551  82.1176224   1.3211863  16.1122780  81.9491119
   7.4624810  57.1791382  52.1560440   7.5442023  56.8161621  53.0379753
   7.4020433  56.4124565  51.5861511  41.7944031  56.7902451  49.0969009
  41.4965363  56.7679100  50.0062981  41.2370491  57.4463005  48.6783524
  35.3649483  59.8000526  41.9856033  35.0954933  60.6258278  42.3877449
  34.6852837  59.1762886  42.2409668  16.5653477  35.2438278   6.0545645
  16.8373623  34.4564438   5.5831122  15.8822718  34.9408417   6.6527610
   0.7258103  29.3425465  35.0862122   0.7697498  28.4488010  34.7463303
   1.4481326  29.7987461  34.6545105  13.7197266  44.4405975  14.4268627
  13.7439280  45.3943710  14.3496809  13.8327856  44.1248093  13.5303545
   3.1617510  45.7934036  79.0510025   3.1596766  45.1912689  79.7950897
   3.7707500  45.3998566  78.4261246  15.1103525  30.9382572   7.4094729
  15.5263290  30.3603439   8.0491695  14.1793356  30.9087734   7.6298614
  60.4929199  62.5293350  20.4074306  60.1211967  63.2559395  20.9075279
  59.8461037  62.3531685  19.7241821   2.7035506  14.4778357  31.7036476
   2.6714747  15.2943964  32.2020760   1.7957581  14.1751127  31.6812038
  24.4025059   7.3890457  86.5611725  24.9063663   7.9239469  85.9477921
  24.2652283   7.9581585  87.3184738  76.5448151  66.1301880  56.8895493
  76.4517746  67.0205536  57.2284088  75.7462311  65.9820175  56.3830414
  37.4859543  19.2828465  70.1185150  38.0267258  19.3266850  70.9071045
  37.7877769  20.0144844  69.5801468  83.7524872  23.7115498  36.9032135
  83.3508835  23.2134037  36.1913185  84.6788788  23.7616405  36.6675949
  24.7664299  37.9337273  27.4599304  25.0032654  37.4296417  28.2384148
  24.6942406  38.8358917  27.7715721   3.1620059  67.2038574   2.8353088
   2.5637529  66.4576645   2.8743277   3.1621814  67.4627686   1.9137905
  83.0026779  12.2791233  17.3430271  83.5077744  12.7860804  17.9787178
  82.0934982  12.3787060  17.6253643   3.8844995  45.3562851  34.7655716
   3.9315825  46.1329498  35.3230743   4.0786085  45.6805916  33.8861542
  30.6424694  31.4981747  18.8682976  30.7542725  32.4430695  18.7638588
  31.4820232  31.1943436  19.2133598  83.7502441  42.2200623  60.1365166
  83.3005447  42.7387848  60.8035469  84.6675415  42.4847374  60.2054062
  22.0162220  25.3639584  17.6986141  22.9006329  24.9986629  17.7232685
  21.5415649  24.8883877  18.3803520  70.6549454  55.2393799  42.7336082
  70.9182968  54.9168587  43.5954971  71.1196594  56.0705681  42.6366501
  17.5162048  17.3615665  31.1637306  17.6407928  17.5578651  30.2351952
  16.9661293  18.0748310  31.4876156  24.2570305  21.0493889   7.1710548
  23.9074345  21.5984955   6.4692750  25.2042217  21.0588913   7.0333252
  28.2900734  10.2774372   2.6268110  27.5290451   9.8239489   2.2642980
  28.0015907  11.1842213   2.7305017  20.1857758   2.1754372  26.5302639
  19.5557404   1.5129957  26.2466087  20.9809074   1.9770840  26.0356407
  48.7292519  52.9474640  89.0838776  48.8702698  52.0008659  89.0667648
  48.2645988  53.1351852  88.2683487  81.1674652  56.5616722  16.7654076
  80.3132172  56.9752121  16.8898106  81.7555161  57.0482483  17.3430481
  45.6279297  63.9540558  13.7398043  46.5849457  63.9355507  13.7433920
  45.3709564  63.0362816  13.6510048  80.6962204  50.8789444  14.5574627
  81.4232330  50.9985237  13.9464121  80.2323761  51.7161522  14.5446186
  81.4208069  42.1896095  70.3802567  80.4957047  42.2021294  70.1347885
  81.4466019  41.6816216  71.1911240  83.7930069  41.2063599  78.6259460
  84.4676285  41.3110733  77.9550095  83.4562149  42.0911674  78.7671051
  40.0347786  63.5075569  37.1202049  39.6423225  63.7970314  36.2965469
  39.2877960  63.3217239  37.6891632  63.8980598   0.0582579  76.8482056
  64.4052429   0.7043324  76.3566971  64.5056839  -0.2689983  77.5114822
  38.5949783  14.5564127   7.3255801  39.3680267  14.2137337   6.8770299
  38.6497002  14.1923389   8.2091455  22.4008274  59.1801643  17.9639378
  22.3682709  58.4976196  17.2936363  21.5118656  59.5342407  17.9885998
  53.1250305  35.0100479  27.7120342  53.7136536  35.1713982  26.9746609
  52.8378677  35.8815842  27.9844227  31.8507442  15.6893663  18.7540874
  31.7615166  14.9581413  19.3652992  32.6806030  16.1018848  18.9936600
  13.4449902  33.9085808  17.8795166  13.8399096  33.1709785  18.3445072
  12.6775894  34.1387291  18.4033089   8.5195131  69.4360199  83.5848312
   8.3674402  69.4847946  84.5286179   7.9215479  70.0838776  83.2120819
  75.8742142  65.9236526   1.7656784  76.8281174  65.8861084   1.8355943
  75.7108612  66.2008514   0.8641767   8.2831573  36.3409309  19.1222687
   7.8515368  36.9825172  19.6864510   8.1899271  35.5104523  19.5890064
  24.6886253  55.6790352  13.0547791  25.6435452  55.6494904  12.9957476
  24.4903755  56.5889397  13.2761307  57.1362419  63.8056145   2.8236928
  57.3837547  62.9486809   2.4763644  57.3159523  63.7447853   3.7619021
  13.8684750  59.3650970  83.2390289  13.6292763  59.4326935  82.3146667
  13.9174862  60.2721939  83.5407028  40.4379272  29.6676559  72.5506668
  41.1451950  29.0240116  72.5090942  40.2842560  29.9138947  71.6385345
  37.0887260  66.1748047  86.6227875  36.6176567  65.5126801  86.1169128
  36.5584602  66.2966232  87.4103241  48.8621635  60.4077454  66.1662369
  49.2077141  59.5944252  65.7983475  49.3565865  60.5333366  66.9761734
  64.0883789  30.1657753  34.5626907  64.5719452  30.3543530  35.3669510
  63.1848373  30.0367661  34.8511391  26.3998203  51.5037842  10.6025362
  26.6362305  50.6463242  10.2488327  27.2116375  52.0096664  10.5669365
  11.9544363  32.4605331  73.5319138  12.8479519  32.1280441  73.4463959
  11.4076195  31.6751785  73.5528870  68.8124390  11.3591156  28.3985558
  68.4288406  10.9590979  29.1789837  68.0685806  11.5054913  27.8141918
  75.5311890  63.6035805  26.3515606  74.6911774  63.9328957  26.0319195
  75.3081436  62.8087807  26.8360996  20.9682884  29.9080791   6.2083702
  21.7933674  29.8003006   5.7352324  21.2298069  30.1918697   7.0843277
  58.1115417   0.7093055  12.5317841  58.6176071   0.8563500  13.3308525
  57.2247353   0.9925995  12.7543736  41.7811012  44.5813179  31.7338047
  42.4930496  44.2861061  32.3014412  42.0651741  45.4398956  31.4201488
  12.8654938  57.0301743  16.3732929  12.4702864  56.9585381  15.5044355
  13.4197464  57.8088188  16.3208523  38.4557648  38.1978073  68.4209137
  37.7208290  38.6600838  68.0179214  38.4299507  37.3229637  68.0333405
  29.3882751   5.5452099   6.5095081  28.6675396   4.9559050   6.2870417
  30.1674805   4.9897218   6.4870801  35.1396027  43.3113480  85.4819107
  35.8295364  42.6829796  85.6949234  35.5622253  44.1666527  85.5598526
  29.2297592  67.2105713  70.9163895  29.8119392  66.4956894  71.1737595
  29.1282578  67.7346497  71.7109146  59.7294617  58.0800934  44.6936989
  59.5410576  59.0185661  44.6961594  60.6850014  58.0276871  44.6729774
  56.0333672   2.5710762  81.8673782  56.2132950   1.7001646  81.5133057
  56.4766121   2.5809970  82.7157135  64.7526016  21.0686779  56.0447350
  65.2707443  21.4342651  56.7617493  64.5600357  21.8185253  55.4818192
   8.2507038  29.7311916  88.0254898   8.3381214  29.5387135  88.9590607
   8.0338202  30.6629066  87.9923248  85.7421570  60.8870506  18.9871273
  86.2227020  61.4947433  19.5492878  85.4431686  61.4246407  18.2537537
  77.4879761  56.6417236  11.4437628  76.9992676  57.4485016  11.2809668
  78.2634506  56.7150421  10.8874359  19.6808014  66.8341370  43.6482697
  20.0141411  67.1281052  42.8005066  20.0622311  67.4437256  44.2800522
  77.9994736  30.5989952  14.8197489  77.3423615  29.9723072  14.5169258
  78.3719482  30.9624577  14.0163889  44.3100281  56.8029137  71.8501129
  44.7115211  56.7293243  72.7159195  43.5399857  56.2360611  71.8942261
  85.4871902  21.7381706  29.5494194  85.2094879  22.4163322  28.9336166
  86.0259552  21.1451550  29.0256863  50.1357307  13.9767408   4.8498898
  50.6907387  14.5647345   5.3621998  50.7482338  13.4865065   4.3014908
  38.8411636  47.7193298  33.4669724  39.7439156  48.0372772  33.4802933
  38.5095596  47.9758453  32.6064682  11.0355434  60.6863098  18.3014908
  11.6211367  61.1030579  17.6693249  10.2944317  60.3825264  17.7773724
   1.4283799  64.1312408  47.0483513   0.8019983  63.4087944  47.0042152
   0.8872973  64.9199753  47.0113945   7.6979070  47.1625443   5.0177374
   6.9548988  46.6833382   5.3845215   7.3123126  47.9582977   4.6512280
  69.1685638  52.5207634  56.1211128  69.6207504  52.4906006  56.9642296
  69.5017624  51.7612152  55.6433105  82.7349014  29.9365463  76.5617676
  83.0731201  29.4003048  75.8446350  82.5120010  30.7721500  76.1515121
  76.4494019  37.5986252   7.1694283  75.5441284  37.6128960   6.8587775
  76.5128784  36.7949677   7.6855106  55.8677330   2.4723113  16.2580662
  56.5139313   1.8635967  16.6160069  56.2938232   3.3282194  16.3038902
  35.9919090  60.9831734  64.2159653  36.8047371  60.8409081  63.7308807
  35.5323868  60.1450729  64.1643829  78.3525772  28.5765057  17.8794689
  77.9710846  27.9940853  17.2225952  79.1804352  28.1592140  18.1176853
  19.0731964   1.9471086  13.6749258  19.9592171   2.1146483  13.9960632
  19.1526413   1.9855109  12.7218018  12.7730770  57.3941498  11.0156355
  12.7406549  56.5046387  11.3677006  13.2249813  57.3033791  10.1767235
  82.2580948  63.4290695  48.2864189  81.8341446  64.1012878  48.8199120
  83.1808548  63.6829948  48.2700081  58.2224731  68.4428101  78.1675797
  58.7555923  68.7538910  78.8991928  57.7018471  69.2036514  77.9100876
  64.5086899  25.2208710  19.7856674  63.8700027  25.6641655  20.3440628
  64.4053116  25.6343651  18.9285984  79.5728607  28.0014248  13.4084330
  80.1074829  27.9818745  14.2021742  80.0789948  28.5303154  12.7917185
  64.6675262  57.5437813  63.0865440  64.3755188  58.4155617  63.3529282
  65.5312347  57.4475060  63.4877586  69.7876282  11.6803112  68.5229263
  70.2779770  11.0452452  68.0009232  70.4412766  12.3266459  68.7898102
  40.9432030  41.8982391  68.7413101  41.1617546  42.5892982  69.3665314
  40.7704430  41.1294441  69.2847595  22.6127224  63.3493156   8.5969725
  22.5113392  62.4117622   8.7611303  22.6483974  63.4230042   7.6432800
  44.4443016  22.4781933  22.2521572  45.0178833  22.9892235  22.8231964
  44.6916313  21.5682335  22.4165802  22.7821140  36.3988419  55.4773483
  23.4898949  35.7544708  55.4693260  22.3688641  36.2900505  56.3338623
  77.7652359  58.4589005   1.0145696  78.5818253  58.7872124   1.3908970
  77.7564163  58.8053169   0.1222965  49.4503288  63.3650055  82.1896896
  49.2898064  64.3058929  82.1175766  50.3838654  63.2662735  82.0026245
  26.9889584  43.4419250  27.3103580  27.8216629  43.5913353  27.7581425
  27.1836910  42.7651634  26.6620502  61.1875725  15.6671095  89.1274490
  60.8421364  15.9564781  88.2829514  61.4246407  14.7503052  88.9878082
  76.8883972  34.3917122  38.1068726  77.6747971  34.7241440  37.6740875
  76.8037796  33.4918709  37.7916527  59.5221100  37.2213516  12.7543325
  59.5951996  38.1749802  12.7158470  58.7654762  37.0617027  13.3184710
  15.3516579  26.3736820   4.2834148  14.8662596  25.5902958   4.5421200
  15.1412334  27.0194588   4.9578962   4.6471262   3.0378215  31.8621082
   5.0534015   2.5704153  31.1322422   4.4548011   3.9077206  31.5120811
  16.4128208   0.0198509  27.3870716  15.5184174   0.2226680  27.6611881
  16.5608139   0.5759313  26.6221504   4.8545427  10.4831324  50.7210808
   5.4732637   9.8305473  51.0490265   4.4238801  10.8207865  51.5064163
  29.8059254  67.8376389  22.3707218  29.7927876  67.4704590  21.4868469
  28.8958683  67.7897568  22.6635227  78.8449173  -0.1419811  81.6059189
  79.3266449  -0.2636465  80.7877731  79.0547028   0.7518169  81.8767471
  41.9819450  48.0272675  83.1261673  42.6581039  47.3519363  83.0716553
  41.2255135  47.6453171  82.6810226  62.7448578   0.5461747  85.6484833
  62.5060425  -0.2592568  86.1072617  63.6719704   0.6713098  85.8510513
   9.8546085  66.3491974  77.5514832  10.0921564  65.5111694  77.1546097
   8.9624157  66.2178879  77.8723907  13.7357817  66.9138184  51.3869667
  14.3021870  66.1990585  51.6777039  14.3373728  67.6331100  51.1947517
  62.5475922  31.9674587  43.4987411  62.7265129  32.3329849  44.3651199
  63.2718430  32.2761536  42.9543152  76.8315735  43.5889091  86.6829605
  76.1374588  42.9357338  86.7713242  77.6418457  43.0966949  86.8149033
  83.2635727  54.3261871   4.5694232  83.5393906  53.9158859   5.3890653
  83.3898697  53.6467628   3.9071066  85.8832245  23.9694042   7.9374614
  85.3978500  24.7916012   7.8693728  86.5651398  24.1467781   8.5853481
  79.4975967  16.2838821  85.8732376  79.7342834  16.6682854  85.0291748
  79.1466827  17.0162144  86.3799744  28.7783585  56.6718140  80.9548798
  28.4615593  56.9636879  81.8096771  28.3061962  55.8555794  80.7903976
  67.2044907   8.5137606  41.1134987  66.4548569   8.1534071  41.5872269
  67.0486679   8.2734241  40.2001572  83.9789505  22.8157196  51.3549576
  84.5361328  22.2456741  51.8848877  84.3969040  23.6752472  51.4074745
  29.1170521  55.6782532   7.9095426  28.7754803  55.5412865   7.0259137
  29.8487186  56.2841721   7.7922454   3.3139274  58.6591644  26.3809471
   3.2570705  58.5782471  25.4288692   4.2530880  58.6565170  26.5658855
  29.5943165  39.8173027  70.7100601  29.3584480  39.7930679  71.6374283
  30.5502701  39.7687607  70.7047119  49.6484680  34.2986870   1.1107534
  49.4156952  33.7289619   0.3776361  49.6925125  33.7117577   1.8656079
  36.3513870  59.3409653  13.0202475  36.7600479  59.8296089  13.7347107
  35.4115105  59.4176102  13.1845322  38.5923920  19.2884140  79.5948944
  39.0829735  19.7808723  78.9368286  38.9683533  19.5650482  80.4305725
  59.4404488  12.0001354  14.1623974  60.3960495  12.0028877  14.2175865
  59.1491089  11.8436575  15.0606556   4.1679788   6.0265403  19.1201305
   3.6915691   6.0267949  19.9503517   4.4832458   5.1277514  19.0251732
  80.6580505  57.4659462  57.4052963  80.6910095  58.0578194  58.1568489
  80.3701248  58.0179024  56.6781960   4.9250722  33.3308029  66.5518188
   5.5326042  33.3241386  67.2914734   4.1152802  33.6940918  66.9102783
  16.7991352  30.5895824  76.8915405  16.5217209  30.8959866  76.0281830
  17.7544537  30.5597210  76.8395233  43.6812363  12.8487873  79.2799149
  42.7243004  12.8555918  79.3013077  43.9424171  13.1172619  80.1607895
  14.4931412  34.1849976   7.8331866  13.9888859  34.8604698   8.2867203
  13.8872261  33.8299789   7.1827555  52.2831078  10.7624607  87.2449875
  52.0300980  10.0758362  87.8620529  53.2325554  10.8345089  87.3429184
  59.1915855  37.4149590  54.2837982  58.5674629  37.9620514  53.8069420
  60.0388451  37.8361092  54.1388359  12.0748549  55.8101997  32.3069839
  12.4837065  55.0336609  32.6891594  11.8371782  55.5432777  31.4190102
  83.4529495   4.9427443  43.5107117  83.5961533   5.1581793  44.4322929
  84.1012955   4.2649679  43.3196411  36.6156578  42.1837997  13.1536942
  36.3598862  42.9858055  12.6980619  36.6373940  42.4302025  14.0783806
  78.3781586  28.0951862  86.1002808  77.5767136  27.9713249  85.5917740
  78.0736313  28.3819771  86.9612350  75.9203415  42.3141861  68.7179871
  76.0081406  41.9592171  69.6025848  76.1836853  43.2307434  68.8004684
  81.5510483  32.3181152  57.1119270  81.0266190  32.8694839  56.5312462
  80.9273911  31.9928703  57.7611580  57.2453651   7.2568355  62.4993248
  57.8404007   7.9043975  62.1213989  57.6064606   6.4128103  62.2282791
  18.7088623   8.1332998  14.8743114  19.5804729   7.8236814  15.1206121
  18.7799034   9.0876989  14.8918467  17.3783855  56.7360039  22.3084698
  18.0903091  56.3527641  22.8208389  17.4203300  56.2848625  21.4652939
  21.3896980  45.8161964  38.6041145  20.5327721  45.4029007  38.4987869
  21.2822800  46.6896133  38.2275009  67.9161377  58.8318100  70.0400314
  67.7133789  57.9581032  70.3743286  68.6725464  58.6999779  69.4684601
  79.0911026  28.6752377   9.7286024  79.5102310  27.9343739   9.2907896
  79.7863922  29.0647278  10.2587872  69.9688110  29.5734119  50.8165474
  69.1536865  29.0752487  50.8769150  69.9383926  30.1736622  51.5615349
  15.1147318  26.2069645  71.6918106  15.3981619  25.2943192  71.6372147
  14.3458748  26.1853085  72.2615662  41.0543976  69.6656189  35.3609924
  41.0928040  68.8074036  35.7831612  40.8529510  70.2736435  36.0722961
  58.8127365  48.8271866  41.4337234  58.6466408  49.7522087  41.6153412
  58.1068611  48.3640366  41.8847923  63.6488228   7.6993904  86.7450790
  63.2910233   6.8413744  86.5169983  63.6879845   8.1713734  85.9132538
  79.3472519  42.6195755  37.0607834  80.2153549  42.3197708  37.3305092
  79.4808731  43.5280609  36.7905464  49.1709099   7.4210563  13.6808128
  49.6679993   8.1596985  13.3293266  49.8286896   6.8695664  14.1043901
  69.4590607  14.1033287  25.0980015  70.0644455  13.7055016  25.7236805
  69.1166763  14.8731308  25.5523262  85.1820297  51.5948906  49.1279068
  85.6446686  51.2454529  49.8895454  85.7780914  52.2503548  48.7655525
  75.1846466   7.5163021  61.8736725  75.3506317   6.7735677  61.2931328
  76.0486298   7.8992891  62.0256195  67.7580872  22.9393578  48.8748779
  67.5466843  23.8649101  48.7528305  68.5848923  22.9441013  49.3571701
  26.9463692  26.4151344  14.3022699  26.3371849  25.6842709  14.1975679
  26.9333229  26.8610191  13.4553642  26.7578430  38.5556488  22.7470322
  26.4464588  39.0203094  23.5237980  27.5381184  38.0877914  23.0445461
  59.5488739  14.2802725  50.7158508  58.6626167  14.6134930  50.8563652
  59.4803848  13.3400755  50.8818932  57.1450996  19.2411556  78.1633072
  57.4726448  19.6317043  78.9735031  56.6978798  18.4433613  78.4457092
  50.2638206  56.1576958  47.7545471  50.9457092  56.2543907  47.0897865
  50.6951752  55.6983528  48.4750786  83.1709061  10.4264326  83.1707611
  83.6911774  10.8193750  83.8715820  82.9661713  11.1563559  82.5863571
  42.5932961  11.3843966  19.1657677  43.2328072  10.7572145  19.5032597
  42.5909348  12.0935059  19.8087234  59.0860100  46.4816818   9.8998470
  59.0660934  46.1122665   9.0170288  58.2557945  46.9509773   9.9818935
  67.1741486  13.3916826  45.7521248  67.9678802  13.0783720  45.3184700
  67.4444122  13.5582170  46.6551514  68.2402039   5.9099770  63.7686691
  68.2413864   6.1707182  62.8476677  68.7604752   5.1068244  63.7908821
  12.8928061  53.6194687   6.0241294  13.0304127  52.9206047   5.3846874
  13.7753143  53.8800888   6.2877345  16.9105587   7.5365376  71.8776398
  16.0790424   7.4690061  72.3469467  17.0592175   6.6586838  71.5262070
  25.5254822  10.4990444   5.6500120  26.0840569   9.9599581   5.0900016
  25.3459187   9.9473705   6.4113555  16.3373318  36.9135208  83.3671036
  15.5012779  37.3495827  83.5317078  16.4275913  36.9205360  82.4141922
  77.3223419  23.1244488  71.1715927  76.8749084  22.2975101  70.9921112
  77.7796249  23.3311787  70.3564911  31.1949844  60.8447380  51.5850868
  30.8387032  60.0920868  51.1130562  31.2428551  60.5552635  52.4962082
  46.7874146  71.8941269  18.4603882  46.6952095  71.2739258  19.1836300
  46.8255577  71.3449554  17.6773262  70.8918915  10.3727188   8.3967752
  70.1489792  10.6813917   8.9154634  71.0238342   9.4685297   8.6818438
  33.5219994  46.1630974  23.6131401  33.9341888  46.0815392  24.4731865
  34.0329018  45.5847015  23.0468655  46.1744003  39.8170853  83.0253067
  46.5949631  39.9658508  82.1784134  46.1870956  40.6734543  83.4527512
  67.1496124  28.5414658  65.3184204  66.2135468  28.7028542  65.4366531
  67.5187988  28.6177082  66.1982651   3.7458625  35.2577400  86.4962540
   3.5706229  34.3237114  86.6107483   4.2525673  35.5030289  87.2704086
   9.6804438  62.2462082  59.8243942  10.1123438  62.4457359  58.9938049
  10.3847342  61.9312820  60.3909874   7.4052300  61.5952148   3.8870397
   7.2460752  61.7755318   4.8135324   6.6498055  61.9726524   3.4363647
  47.6067390  61.2063484  21.1899414  48.0966835  60.3946114  21.0585365
  48.2361450  61.8031273  21.5948315  70.9141617  60.6886177   1.6587462
  70.3176346  60.3003654   1.0187142  71.5596466  60.0031509   1.8311484
  71.4265442   2.5723708  82.7208939  71.0865097   2.1511209  81.9314880
  70.7044296   2.5253427  83.3474503  77.1676941  36.6243515  87.8787766
  76.8938065  37.4283295  87.4373703  77.4329910  36.0397606  87.1687775
  55.9406357  41.1540108  81.7554016  56.2275772  40.4383736  81.1881714
  55.0251846  41.2975121  81.5154419  56.0413513  33.8153229  37.8289604
  56.8715630  33.3390465  37.8407555  55.4657326  33.2797852  37.2829781
   8.1469831  17.3089409  85.3523254   8.7374601  16.8031158  85.9106369
   7.9625654  16.7302837  84.6124802  40.6935043  61.9744339  62.0530930
  39.7899818  62.2895622  62.0769806  40.8867531  61.7323418  62.9587860
  47.3207397  62.9895248  37.1214027  47.3116760  63.7334137  36.5190887
  46.6032906  62.4307213  36.8226776  50.8214874  24.7718906  49.9780426
  50.9082489  25.6907082  50.2319717  50.7044296  24.3048019  50.8053017
  79.7450256  10.4964008   1.2144164  79.2041473  10.2919064   1.9772174
  79.7309494  11.4519520   1.1600521  18.3545876  60.0576782   4.4374037
  18.8405056  60.2620468   3.6384361  17.9226360  60.8790970   4.6717553
   0.4470982  24.3432827   2.7925861  -0.3589339  23.8340282   2.7077131
   1.1395084  23.7439880   2.5139389  15.1850796  49.8303375  25.4947910
  15.6584635  50.2238007  24.7617645  14.8902998  50.5760841  26.0174751
  18.8442574  35.9939232   7.7522430  18.3903522  35.7515182   6.9451232
  19.7646484  35.7973061   7.5777335  37.0064545  26.2816257  87.3213654
  36.9997749  26.5052567  88.2520523  36.1343460  25.9240150  87.1547012
  55.9018593  15.8293219  38.3043785  55.6957932  16.3893051  39.0528374
  56.8578606  15.8351612  38.2569084  16.5353508  50.0212097  34.9385834
  17.2990189  50.5975952  34.9099312  16.3823643  49.7807274  34.0248032
   4.2591510  33.6989288  54.3331032   5.0584068  33.9899902  54.7720871
   4.5174999  33.5803642  53.4190865  16.6896763  70.4409866  10.0684795
  17.3205700  69.7456741  10.2548990  17.1957340  71.1039581   9.5987911
  31.8082314  62.7021904  32.9276695  32.0689659  63.6216660  32.9807320
  30.8786316  62.7295341  32.7011070  71.5851669  47.4433899   5.4711013
  71.7765427  48.2451248   5.9577479  72.4393768  47.1403275   5.1633639
  38.6696701  71.7686234  67.5555878  39.0907936  71.2613297  68.2495270
  37.8016701  71.3755188  67.4645996  41.6933403  41.6385345  39.6428528
  41.1947365  41.7993813  38.8417549  41.0542984  41.7431297  40.3477745
  70.8497925  27.7103233  14.5460510  71.0903473  28.6368027  14.5481644
  71.3901749  27.3209972  15.2335453  10.0019264  44.6884499  74.9664078
   9.9311132  44.5447960  75.9101105  10.1018724  45.6360397  74.8752136
  76.5733795  43.5478897  65.7663956  76.1419678  42.9050446  66.3293076
  76.5430756  44.3632011  66.2669754  36.0457764  59.3178864  47.8303757
  35.2142220  59.1953812  47.3723984  36.6943207  58.8971062  47.2659531
  62.6409073  17.9737949  72.8705444  62.8612518  18.8996067  72.9732666
  62.6100502  17.8385983  71.9234390  42.4719276   3.5083461  58.9561119
  42.8193207   3.3553009  58.0774040  42.8990555   2.8473682  59.5010033
  30.0720730   2.3826020  16.8260612  30.1334019   2.7247157  15.9341927
  29.8970051   3.1529436  17.3665752   9.1321239  45.9342270  53.2649460
   9.4205685  46.8403320  53.1553841   8.7079325  45.9199829  54.1229057
  71.9615860  64.9443130   1.3828523  72.3538361  65.5024872   0.7114229
  71.4287338  64.3182755   0.8925734  36.7869797  61.4972305  45.1430359
  37.7080040  61.5628777  44.8907700  36.7542191  60.7473984  45.7370949
  73.7737808   1.2144344  47.1912041  74.6500320   1.0258878  46.8552513
  73.2547455   1.4087856  46.4107742  52.7893677  69.1183472  66.3515320
  53.3790436  68.5603027  65.8444748  52.8147163  68.7525558  67.2357178
  81.5516891  31.4804688  80.0262299  81.9438553  30.7182274  79.6002960
  81.8630676  32.2272453  79.5147705  61.6521416  18.8612194  61.7480392
  61.2179604  18.4282818  61.0129967  61.9413643  18.1436920  62.3117218
  47.1764946  21.1058006  21.0976849  46.6943932  21.4817009  20.3611336
  47.1524849  20.1615276  20.9427509   0.9099907  48.5260086  63.2598381
   1.5638541  47.8885384  63.5467644   1.1898891  49.3511276  63.6561546
  15.1276388  24.5711918  19.2066269  15.8048487  25.0074730  18.6896400
  14.9582081  23.7537537  18.7383118  52.3407555   0.4627465  78.3772202
  53.1010056   0.5596480  77.8037491  51.6122437   0.2874694  77.7815857
  52.1076584  35.7488556  65.6152954  52.2073135  36.5401497  65.0859985
  51.8841019  35.0649872  64.9839630  79.6590500  19.5305653  30.3746262
  80.2034607  19.1939621  29.6629086  80.0025330  20.4076824  30.5446644
  75.3070602  48.4354630  86.8997879  74.8881607  47.7562637  87.4284134
  74.6704865  48.6303215  86.2120132  46.7307129   4.5140300  35.0690994
  45.7820206   4.3878107  35.0522499  46.8568878   5.4197917  34.7864227
  47.4560204  58.9619598  43.2663116  47.1052437  58.5499573  44.0558968
  48.3570671  58.6438255  43.2102547   9.9428291  47.8105659   6.7093887
   9.2570114  48.0547600   6.0878949   9.6644468  48.1997719   7.5383959
   0.6074697  30.4920616  80.4792023   1.2345655  30.8490143  81.1081390
  -0.0068331  31.2087593  80.3204269  78.2710266   4.3234620  10.6117802
  78.4862289   3.6377940  11.2440615  79.0482483   4.3902402  10.0570726
  71.5302200  46.1237373  51.2305908  71.2411194  46.0024452  52.1349945
  72.1030579  45.3760986  51.0599403  68.8893967  19.0221119  50.4643707
  68.0867844  18.9457664  50.9803352  69.3112106  19.8157692  50.7936287
  82.0131149   9.6470261  62.6353683  82.2824478   9.2107992  61.8270340
  82.4355774   9.1437025  63.3313751  55.5926895  19.9960098  39.3529167
  56.2343330  19.6763611  38.7186089  56.0706444  20.0281849  40.1816254
  46.5840721  64.5661392  60.7788124  46.1548691  64.7238693  59.9378967
  46.9240875  65.4224014  61.0385056  23.8440342  12.1164751  81.3945770
  24.5369091  11.4613791  81.3108902  23.2873192  11.9754496  80.6288071
  66.9028473  36.0546074  17.4846420  67.1918945  35.4018784  16.8469696
  66.0114594  36.2751236  17.2143993  64.1489182   9.9830370  28.1074009
  63.4880486  10.4362745  27.5838928  64.9522247  10.0527267  27.5915813
   5.3453555  68.3190842  55.3125496   5.0211134  67.6103973  55.8683014
   4.6358571  68.4792328  54.6903000  46.1971512  62.3613625  10.5167503
  46.9539642  62.1699219  11.0706606  46.1449814  61.6172218   9.9169483
  60.4829369   7.2926230  29.0645924  59.6834450   6.7666335  29.0842171
  60.2988510   8.0300045  29.6464958  57.8749924  70.9668045  24.6854420
  58.7979469  71.1194992  24.4827709  57.6178780  71.7218628  25.2146034
  80.8159256  63.8530159  61.0694580  81.5614166  64.1402817  61.5966682
  81.1845627  63.2101021  60.4636497  29.7210712  64.8663483  67.7178650
  30.0097561  65.7515259  67.9400101  28.7673168  64.8998489  67.7917557
  55.4561615  15.6606579  83.9639893  56.3867607  15.4718170  84.0846481
  55.0249290  14.8116322  84.0610809  79.1691437  26.3516865  31.7730675
  79.0255127  25.4628487  31.4481583  78.4664764  26.4910984  32.4079361
  68.1620636  70.5782394  71.8038483  69.0177536  70.4467163  71.3955154
  67.6548691  71.0569611  71.1482468  70.6993408  71.3991165  83.9272766
  70.6985016  71.5981369  82.9909973  71.2743835  70.6383743  84.0099182
   7.5824752  44.5269012  16.7412834   7.2499223  45.2159615  16.1660957
   7.9776282  43.8889084  16.1471043  81.2877502  52.6597252  26.5249519
  82.0505066  52.5855560  25.9514332  80.5909271  52.1990967  26.0575142
  53.7431564  50.2891426  15.4873066  53.3366623  49.5518036  15.0319805
  53.0087967  50.7664795  15.8734388  77.5343094  42.2488518  20.0233803
  78.0987778  41.6931877  20.5608292  78.1045761  42.5613480  19.3209705
  67.1092072  50.5569572   6.0763884  66.7236710  49.6817703   6.0358577
  66.4108505  51.1403084   5.7793517  33.5351944  48.9917068  35.0261002
  32.8195953  49.5738106  34.7705574  33.0992737  48.1968689  35.3334045
  77.5506668   9.0164042  84.0706024  78.2234344   9.3729429  84.6506805
  77.1996384   9.7803278  83.6129608  74.6551971  53.5070076  69.5784683
  74.1177521  53.5678253  70.3682098  74.0934525  53.8429298  68.8800201
  71.6642914  67.4533997  33.1052666  71.9664230  66.7547379  33.6856308
  72.2698593  68.1770325  33.2661171  73.8588181  65.8458176  55.1431999
  73.2054825  66.1035614  55.7935410  73.4671631  65.0967255  54.6940918
  63.4559517  45.4907417   4.0583506  62.6204147  45.1532211   3.7355731
  63.9907646  45.5982399   3.2718060  49.6286545  21.2647343  35.6504326
  49.1343384  20.5843506  36.1075516  49.3579216  22.0808983  36.0709229
  82.9839554  48.6004868  63.4529648  83.1175003  49.4517975  63.8697014
  82.0378189  48.5453224  63.3187103  60.1865921  49.9691010  80.4001160
  60.4723434  50.7937050  80.7933197  60.9028511  49.7217331  79.8153000
  29.9505177  42.7916260  41.0890961  30.8442039  42.4825478  40.9406853
  29.9376659  43.0542831  42.0094643  71.3662186  50.7915115  43.2163048
  71.5064240  51.1318741  44.0998917  70.6859818  51.3550949  42.8476830
  27.1980267  51.1320381  79.8119659  27.7785950  51.3596840  79.0857773
  27.6191196  50.3801689  80.2286301  11.9684830  23.1948299  75.8689117
  11.2549696  22.7236328  76.2991409  11.5292511  23.8212109  75.2936249
  79.3835754  60.8471184  74.5176773  78.4393234  60.7522392  74.6426926
  79.7717819  60.3242302  75.2191849  13.6001453   0.7244674  69.0660477
  13.7256060  -0.0992691  68.5949326  12.8615866   1.1431534  68.6239319
  78.6152878  27.6113720  52.8696594  78.6721191  26.6560001  52.8533173
  77.7177582  27.7931862  53.1482544  46.8874397  28.9544468  39.6610680
  46.2582703  28.2425537  39.5445061  46.3553772  29.7499104  39.6416206
  57.2947731  70.2319260  28.2604351  57.1268578  69.8627243  27.3934155
  57.2347412  69.4841232  28.8549252  82.4862671  16.8487778  49.0676041
  83.3040237  16.4693336  48.7458420  82.5307159  17.7689972  48.8078842
  50.6268730  67.2073593  18.0062523  50.3970947  67.3146820  18.9292450
  49.9951744  66.5691299  17.6748123  66.1834793   8.7983961  48.7303581
  66.0545654   8.0771952  49.3463821  65.3992767   9.3387451  48.8266983
  54.1188660  51.0315857  32.2156639  53.2690544  51.3043060  32.5616035
  53.9081230  50.3698959  31.5568886  20.0089321   4.5550375  74.4301071
  20.5117474   3.7544365  74.2802887  20.6716709   5.2354579  74.5485916
  42.3517838  48.1629906  86.2431259  43.1989212  47.8358459  86.5457306
  42.4326668  48.1914101  85.2897797  66.4844437  58.0109177  54.3763275
  66.1983948  58.8606300  54.7115860  65.6720352  57.5512924  54.1642609
  53.4771385  52.0404205  54.7136650  53.6011734  52.9895020  54.7229919
  54.2298660  51.7052727  54.2265167  20.0884094  43.9766922  43.9744873
  20.2304688  44.3153992  43.0905571  20.7654953  44.3978310  44.5040398
  72.0253525  49.6098900   7.6651201  71.3878708  50.2515564   7.9783602
  72.7789230  50.1338692   7.3934493  27.6935368  14.3135052  76.2029343
  27.2653027  14.3970556  77.0549164  27.6436653  15.1905546  75.8227692
  67.3361816  24.8129597  19.7936707  67.2397308  25.4839973  19.1179218
  66.4436569  24.6505356  20.0990410  35.3144150  17.9313221   7.3419309
  35.2446823  18.4795666   6.5603957  34.7274628  18.3427887   7.9762912
  73.7114258  37.4749374  68.5530624  74.0648346  38.3634148  68.5089722
  72.8253250  37.5518112  68.1993027  56.0196037  61.6079941  77.8645401
  56.9514885  61.3893547  77.8686523  55.9241867  62.2628899  78.5560913
  43.8977928  15.7350302  23.9647026  44.6125832  16.2218494  24.3749676
  43.7821655  14.9648676  24.5212212  21.9857368   7.1480613  66.2350159
  21.5450325   7.8343372  66.7360535  22.6074371   7.6186094  65.6797638
  29.5635929   9.6680508  81.5198898  29.9825897   8.8586054  81.2275391
  30.2410297  10.3372126  81.4222565  54.8233223  27.9131355  27.1763821
  54.0845909  27.3315563  26.9967403  54.9674377  28.3787441  26.3525677
  82.5330887  21.0265808  69.0616837  82.1331863  21.0517006  68.1923828
  82.4318924  21.9171352  69.3976974  62.2126045  31.1532192  39.6688156
  61.8898048  30.6640530  40.4256172  63.0774689  30.7818241  39.4947205
  52.5615044  18.8149910  12.1677141  51.7683907  19.3032494  11.9467974
  52.5872688  18.0997200  11.5321379   1.2804686  45.8716431  57.6007233
   1.0191711  45.1034050  58.1084290   0.5199365  46.0669708  57.0533028
  55.4702721  23.1198025  71.6862640  55.7927094  23.0641327  70.7867203
  55.1556015  22.2374573  71.8829422  56.8437614  30.9857483  80.8740158
  56.7265701  30.8055058  79.9412689  57.5295563  31.6528111  80.9047394
   1.0000887  10.7438307  88.2108307   0.5879219  10.1174765  87.6158295
   1.9149041  10.7739210  87.9307632  46.3035927  52.6986046  63.3607864
  45.5825272  52.9832573  63.9222717  45.8754463  52.2667427  62.6215820
  39.5456200  64.3354111  68.3558273  39.2653542  63.4289246  68.2294846
  39.1647797  64.5888824  69.1966248  36.6973114  65.0877991  25.4723949
  36.1803360  64.2822418  25.4659138  36.1531143  65.7253647  25.0102253
  49.5654411  68.7888641  39.8785057  49.3157806  68.0661697  40.4543686
  49.8907089  69.4662247  40.4714737  54.1999741  70.1148682  24.4537144
  54.4037514  69.9157486  25.3675308  53.7505379  70.9593353  24.4870586
  45.0413055  34.7771759   8.6047220  44.3558578  34.6149368   7.9565926
  45.5167847  35.5356216   8.2657385   5.2676921   4.0520163  43.0252457
   4.9154243   3.2260554  43.3567963   4.9820309   4.0849299  42.1122551
   2.2371438  17.0848789  32.7877884   2.2762630  17.7558250  32.1062241
   2.5849569  17.5159321  33.5684624  69.5581436  42.7070274  42.4240417
  69.9291916  41.9021606  42.0624580  69.2753677  43.2058372  41.6575813
  50.7176437  57.3536377  83.1761017  51.5320244  57.6069908  82.7415619
  51.0008087  56.8801346  83.9583054  65.6786423  27.5527477  59.3300400
  65.4654083  26.7091179  58.9312286  65.6180344  27.3944740  60.2721176
  15.4544287  12.5852270  72.7074890  16.4032478  12.4821072  72.6343994
  15.1394644  12.5506325  71.8042526  70.2071381  31.7508640  35.0861740
  69.5801239  32.3807411  35.4416161  70.1305466  31.8463669  34.1368332
  40.1565094  -0.0432674  54.9010582  40.3819122  -0.0811222  55.8305702
  39.2764282   0.3327243  54.8831406  53.1480217   1.6883607  67.3163910
  52.8013153   2.5607414  67.1293640  52.8364143   1.1463350  66.5915833
  44.7201233  53.7154312  73.8031387  44.5967102  53.5205994  72.8741379
  43.8338737  53.8466873  74.1401291  70.2697372  56.0108185   7.7743702
  70.3738785  56.3388824   6.8811970  69.8749466  56.7398415   8.2527943
  78.9484482  69.0075760  20.7390995  79.5853348  69.7013702  20.5680599
  79.4783096  68.2567978  21.0070915  37.5036354  60.7298317  72.7558289
  38.3509674  61.1597519  72.8717270  36.9151230  61.4315224  72.4774170
  23.3024006  50.7370415  75.2357559  22.5755825  50.8064384  74.6167603
  23.4959202  49.8003845  75.2738953  56.1140518  59.1600380  17.1638412
  55.9159279  58.3741951  17.6731853  57.0703049  59.1952133  17.1399612
  29.4958706  50.2891502  27.8498592  29.5147514  49.8645134  28.7075062
  30.2945709  49.9887199  27.4162140  60.7713852  44.5999260  84.3340149
  60.4714622  44.3805618  83.4518814  61.4934464  43.9936409  84.4991760
  23.5591164  24.2023163   2.6560085  22.7417374  24.4738560   2.2384083
  23.3426971  24.1369934   3.5861309  70.5722275  50.3136253   2.0758879
  69.8213120  50.2828560   2.6686866  70.3956375  49.6296501   1.4299574
  14.9567976  62.4064484  69.5494080  14.8616066  63.3490944  69.6857529
  14.3074703  62.0133209  70.1325531  37.9155502  71.4689102  35.4909821
  38.5492859  72.1509781  35.7132263  38.4112244  70.8450699  34.9605446
   5.3841963  68.5671997   3.7984326   6.1168180  68.5693512   3.1824026
   4.6690450  68.1493683   3.3186305  11.2114229   8.1688366   8.0461864
  11.6386557   8.4778481   7.2473021  11.7874594   8.4589911   8.7534523
  20.8812618   4.9375067  57.4378471  20.2459679   5.5832462  57.7471237
  20.5628662   4.1036406  57.7835693  44.5116386  57.0416412  13.1107464
  43.8682327  56.4473610  12.7246256  44.1795387  57.2146149  13.9916668
  18.1812630  26.1940651  11.1017294  17.5914268  26.6724224  11.6843948
  17.7916317  26.2925453  10.2329836  24.7502422  50.9783249   1.5225449
  23.8586140  50.7099457   1.7443646  25.0569458  51.4524307   2.2954519
  58.3557205  65.3685455  48.1978264  59.1313477  64.8168488  48.2991104
  57.6381912  64.8392639  48.5460320   9.4559917  33.4998207  37.5950165
   9.3035517  33.1147499  38.4579849   8.5795078  33.6777458  37.2539177
  81.2277756  46.2207832  56.6330528  81.2348099  47.0363884  57.1340218
  81.9502716  45.7095528  56.9975777  44.7857246  61.3363686  21.8858547
  45.7185936  61.3343697  21.6714134  44.4222565  62.0540199  21.3671074
  35.3141594  12.2193365   9.7458496  35.4649162  13.1612053   9.6659222
  36.1914749  11.8396511   9.7947397  10.1908016  64.9268723   1.8923945
  10.1098566  63.9978256   1.6766152  11.1344728  65.0818481   1.9336038
   6.8489037  36.5355988  25.4100494   6.0599246  36.4511261  25.9454079
   6.5332732  36.4809875  24.5080376  36.3076363   7.7878389  24.5717793
  36.7776947   8.1220551  25.3357010  36.8001900   8.1222925  23.8222694
  57.9373245  31.3139591  22.5707798  58.3212585  31.3890400  23.4443855
  57.0549049  30.9767036  22.7251415  71.4423447  38.7325134  43.5717506
  71.8359451  38.0247955  43.0614128  70.9399033  38.2857361  44.2530518
  80.6682816   0.3696044  13.4726019  80.8864822  -0.1216929  12.6806135
  81.1477127  -0.0763572  14.1708117  42.5577164  49.8935356  72.2126541
  43.0456924  50.4895630  71.6444473  42.2219887  50.4521103  72.9137344
  50.8732834   2.9419990  82.4769974  50.9835091   2.8965929  83.4267502
  50.7461548   2.0325446  82.2068863  62.8642883   9.6538734  73.1161346
  62.0901108  10.1270733  72.8112259  62.5189590   8.8381710  73.4789124
  32.9996300  42.7119713  33.0255852  33.3279915  41.9491844  32.5495949
  32.4681473  43.1838379  32.3844147  75.9679718   9.9468908  59.9591751
  75.8957138   9.2781181  60.6401711  76.4623718   9.5223522  59.2580566
  59.7087479  17.3843746  35.1957512  60.0002327  16.4756527  35.1216393
  60.3555183  17.8847065  34.6981697   0.5360988  15.4453316  39.3078957
   1.3049335  15.0329332  39.7016640   0.7770309  15.5745382  38.3905716
  39.8131104  33.6390533  61.7287827  40.6023979  33.9795532  62.1498718
  40.0304909  33.6142731  60.7969208  76.1981201   1.1298509  36.8385735
  77.0812225   1.3256522  37.1516571  75.7202911   0.8600113  37.6228523
  31.2357903  12.7813911  75.2838058  30.7228470  12.1229639  74.8151932
  31.8123398  12.2738981  75.8550034  66.7238312  66.2084351  86.1438446
  67.1215897  66.8788300  86.6993484  67.3470764  66.0906982  85.4269562
  38.1907082  44.8055496   8.5556574  38.0542946  44.0771713   9.1615334
  38.9186211  44.5233040   8.0018387  10.4330540  30.2423019  81.7714386
  10.0902767  30.8107815  82.4610519  10.7208223  30.8446808  81.0854645
  33.5267944  11.2953196  17.9333744  34.1569595  11.8604450  18.3803139
  33.9630508  10.4449539  17.8805485  19.5334034  68.9553223  58.7452545
  18.8975639  68.3587646  59.1403008  20.0227852  68.4100952  58.1292496
  29.4966984  57.9626923   1.8684676  30.2071667  58.0626793   1.2348523
  29.0414696  57.1665840   1.5942228  29.8045197  39.2779579  26.0861225
  30.4609394  38.6754723  25.7363243  30.2817917  39.8077202  26.7247066
  39.7672577  21.4006996  63.2605896  40.5566139  21.6791897  63.7249107
  39.4708672  20.6246662  63.7361488  46.7436562  13.0567017  12.0637760
  45.9648628  12.9898520  12.6162643  47.1618805  12.1986141  12.1345243
   5.6940694  59.3242645  18.9396248   5.3906941  58.7106438  19.6087017
   5.8197870  60.1484642  19.4098625  76.4737778  18.4179859  16.2405663
  75.5181885  18.3687668  16.2661762  76.7414398  18.3563881  17.1575146
   2.3501523   2.0139430  58.7230949   2.4677122   2.9637206  58.7048225
   1.6604894   1.8455712  58.0810280  51.0224037  22.8679333  41.8738441
  50.4895058  23.3526611  41.2435341  51.5276108  22.2553234  41.3393250
  43.1742821  31.3835258  35.6220512  42.6548538  32.1224365  35.9389687
  42.7991676  30.6207829  36.0622177  59.7604599  66.3801193  56.4256210
  58.8612556  66.5930176  56.1759567  59.6956177  66.1000977  57.3386459
  75.2425003  62.9588470  73.0574417  74.2941589  63.0683022  73.1274719
  75.4382782  63.1476860  72.1397018  39.3015633  68.8414993  56.4903145
  39.1409760  69.2507629  57.3405800  38.8213272  69.3870087  55.8674011
  47.2950401  68.6692047  63.4432869  46.3937645  68.7192688  63.1248131
  47.7201004  68.0393219  62.8612137  25.4033947  54.6285400  49.0743103
  24.8422070  54.4552994  49.8301468  25.0991554  54.0159416  48.4046898
   6.0295005  49.6802292  67.4419250   6.2331729  49.6567688  68.3769073
   6.7030759  49.1343384  67.0363007  20.1792603   5.0993843  88.4358521
  20.9566364   4.9097385  87.9105377  19.5882206   4.3667712  88.2621231
  39.5908165  31.9321423  30.3175411  40.5199432  31.8432598  30.5298138
  39.5451012  32.7117462  29.7640438  81.5589828  18.4333267  64.2999649
  81.6112289  17.7338505  63.6486320  82.2710342  18.2450027  64.9113159
   3.8027925  25.0477238   4.6361670   3.6770072  24.6509838   5.4981451
   4.5403557  25.6464634   4.7534075   8.4097748  18.4125080  11.9207163
   7.6303391  18.6836224  12.4056988   9.0365801  18.1577225  12.5977917
  75.2503052   4.4746161  53.3251915  75.1954575   3.9403658  52.5328522
  74.9692993   3.8893876  54.0285912  30.9685192  70.1595688  14.5849209
  31.8936863  70.0766678  14.8160515  30.8019772  69.4238052  13.9957314
  42.1831017  32.5681763   8.0914631  43.0871544  32.2559471   8.1293716
  41.9172897  32.6440582   9.0078783  31.3507252  52.6349525  31.5072021
  31.6899376  51.7476006  31.3898239  30.9563599  52.8542290  30.6630306
  76.7452927  67.2422943  18.9622498  76.0878906  67.7188263  19.4691772
  76.9509506  66.4757080  19.4973049  79.6508102  56.2526360   9.8126888
  80.0761337  57.1101379   9.8084593  79.9181519  55.8485985   8.9871502
  68.4145355  36.9136238  37.0323715  68.6074524  36.8637123  37.9685974
  68.2033539  37.8347397  36.8801117  28.3478661  67.8675995  59.0262947
  29.0268898  67.4767380  58.4763985  28.8306370  68.3159027  59.7206917
   0.7681605   0.1945119  62.5335732   0.9128854   0.8710420  63.1950836
   0.3854825   0.6629099  61.7916908   7.6982894   2.5555868  69.6092148
   7.7786312   2.0814033  68.7816086   8.4517679   2.2674570  70.1244659
   3.3756702  20.3095360  36.0201912   3.7003112  21.0040150  35.4470100
   2.7194672  20.7390747  36.5689430   0.9824644  22.0074596  65.4760361
   0.7375803  22.2814903  66.3598785   1.2477363  21.0929508  65.5736847
  12.5452204  59.9660110  86.2879486  12.9763374  59.7671280  85.4567947
  11.7486429  60.4344864  86.0384979  63.9615707  58.3046913   5.8851228
  63.0644226  58.3757248   5.5590706  64.1962204  59.1977959   6.1371851
  47.7842560   3.5048687  60.6431313  48.1944160   4.1267109  60.0420380
  48.5153732   3.1247475  61.1301727  15.0266275  44.8953819  67.1662979
  15.4148016  44.2751656  67.7834549  14.3426600  44.3945961  66.7217407
  32.1635056  68.7520142  53.7612915  33.0245018  69.1521835  53.8828812
  31.6803741  69.3813248  53.2257690  65.9821167  61.6082153   2.2774196
  66.3253021  61.6007881   1.3838859  66.2552109  62.4544067   2.6318464
  41.8561783  33.6980591  36.6964455  41.6354179  33.2013092  37.4843140
  42.3445358  34.4552002  37.0196724  73.8987503  18.3256321  66.8343582
  73.6111298  18.9174042  67.5295715  73.4150620  17.5152607  66.9942856
  68.7967682  11.1182089  87.6082840  69.2636185  10.6339808  88.2893143
  69.4756775  11.3604918  86.9785080  23.8633137  56.0732384  56.8246727
  23.2973003  55.3322411  57.0409737  23.8354130  56.6308975  57.6021500
  16.1861477   2.0300887  25.4564304  15.5299940   1.8680158  24.7786198
  15.8907518   2.8312111  25.8890686  76.0768814   0.5336917  75.0837250
  76.1532211   0.4973008  74.1302643  75.1894455   0.2240981  75.2649384
  56.4595184  13.6268473   3.7775273  57.0892601  14.0129223   3.1687570
  56.9323311  13.5712023   4.6079378  35.7362976  62.8071480  73.7168961
  35.5713844  61.8646660  73.6893616  34.8701668  63.1986504  73.8299332
  62.6724052   7.1236591  27.1535053  63.3838196   7.6297126  27.5459747
  61.9437599   7.2192988  27.7668247  49.1142578  65.2238007  87.0139008
  48.6337280  65.3843994  87.8260193  48.4334717  65.0618134  86.3608170
  73.5176392  11.9652357  84.3657913  74.0375519  12.6936998  84.0262909
  73.7769623  11.2156906  83.8299103  56.4621582  20.0623226  83.4226151
  55.5977325  20.0642300  83.0115204  56.5142136  20.9043961  83.8747559
   3.4264226  65.5555344  62.9627190   2.6988308  65.3052139  63.5320892
   4.1978106  65.5150375  63.5280075  29.6542892  61.8818893  38.9237709
  30.0924625  62.1761360  39.7223053  28.7303753  62.0860863  39.0683975
  53.9676476  70.1438065  15.6198244  54.5458603  70.4446716  14.9188347
  53.9753990  69.1896667  15.5437555   3.5010791  16.0032692  22.3046684
   2.8128397  15.5092411  21.8591404   4.3118434  15.5550976  22.0637627
  24.1114407   8.9250326  89.0670776  23.1864147   9.0012474  88.8330917
  24.4457378   9.8205605  89.0169907  54.6834831  15.4043150  67.5391617
  53.9091454  14.8416491  67.5330811  55.3125458  14.9521322  66.9769821
  54.3292503   8.4343119  45.9314423  55.1869469   8.6065960  46.3199081
  54.5161743   7.8779302  45.1753159  77.5811005  22.0168743  16.8077526
  78.0569916  21.1894569  16.8794289  78.1884079  22.6042824  16.3579082
  82.7135925  26.6793785  54.8404732  81.8909149  27.1685181  54.8271523
  82.8127518  26.4022598  55.7513008  49.3584480   5.1397915  49.5120316
  50.2633209   4.9185896  49.7322807  49.4032059   6.0408750  49.1922226
  22.3308640  44.9173813  61.7071037  21.9810085  44.5186310  60.9103394
  23.0534973  44.3446960  61.9641418  55.1255569  24.0380287  60.4336853
  55.8753586  23.7279053  59.9258957  54.3788452  23.9390278  59.8430443
  57.9060440  48.5813751  22.5045509  58.2367592  49.4363823  22.2291985
  57.7694588  48.1027527  21.6869316  61.0292397  64.8161163  14.0247784
  61.9633179  64.8761597  14.2250919  60.9170876  63.9353027  13.6672583
  31.9126587  45.6431694  67.6319199  30.9712715  45.6459579  67.8051605
  32.1315002  46.5630302  67.4829407  52.6593742  22.8892002  37.7298470
  52.3906631  23.6347618  37.1930351  52.1687202  22.9919796  38.5452766
  61.5645905  47.7739601  57.9811745  62.2981911  47.1596603  57.9546661
  61.2692146  47.8336296  57.0726471  51.5919304  16.1467781  44.8705025
  51.6199074  16.7752628  45.5919266  51.4861107  15.2966280  45.2974434
  46.2756004  12.5861673  52.2727394  46.0369148  13.5128145  52.2485428
  46.7585030  12.4845600  53.0929298  26.0946102  33.9947319   6.6743774
  26.4642429  34.2009048   7.5329208  25.4958572  33.2665176   6.8400016
  80.1825790  50.3401070  80.3083267  79.2497635  50.2592697  80.1094437
  80.2108994  50.5562935  81.2403641  44.6709061  28.9229965  80.3822784
  44.2261009  28.1010895  80.5892792  45.2807846  28.6951523  79.6805954
  53.3094406  28.1861038  31.3456097  52.8273811  29.0106468  31.4086857
  52.6980591  27.5829544  30.9229355   6.4149003  14.6893368   1.8010499
   6.9519053  14.1051731   1.2656901   6.3952227  14.2736979   2.6630764
  54.0662155  14.3665657  46.4057999  53.2738533  14.8411951  46.6570473
  54.2335167  13.7746143  47.1391716  79.5867767  61.2116928   3.1873412
  80.4912796  61.1554260   3.4954734  79.1786575  61.8611832   3.7599072
  73.4997330  11.2464437  39.1502533  73.2616043  11.1219807  40.0689697
  72.9598923  10.6146832  38.6751938  82.1082840  18.9241638  24.7089882
  81.8263397  18.2528877  25.3303795  83.0090714  19.1234951  24.9640923
  16.9579983  70.0378113  19.2150879  16.8531342  70.4202347  18.3438892
  17.3040695  69.1604843  19.0514736  71.9067764  20.3273621  60.0385704
  71.3908997  19.5876751  59.7176819  71.2586823  20.9339046  60.3967743
  50.5981560  65.8423767  22.9325504  50.7370987  65.2215195  22.2173824
  51.4185410  66.3325119  22.9870033   3.0536644  51.3771858  78.1566620
   2.8943098  50.4497185  77.9816284   3.5545361  51.6811714  77.3997269
  39.8891525  56.7618675  36.1022797  40.5325394  56.2276154  36.5679550
  40.1140327  57.6631470  36.3332672  33.7105980  21.7768078  82.3174210
  33.4683418  22.4420929  82.9615784  33.2936020  22.0661469  81.5058594
  60.6923599  14.0100756  74.9332504  59.9137573  13.4550514  74.8889999
  60.4716759  14.7750854  74.4019470  69.4648285  60.1534004  72.2421417
  69.1928101  59.6318092  71.4870377  68.9100342  60.9326515  72.2073441
  12.5742502  57.4364586  75.0141296  11.6351175  57.3101845  75.1494598
  12.9131012  56.5563583  74.8503113  85.0903015   7.4853749  17.8826733
  84.5311737   8.0925226  17.3979225  85.8845825   7.9866385  18.0673065
  62.8579788  54.9344254   7.7701120  62.0540695  54.4315300   7.6394949
  63.4045448  54.7123680   7.0163283  12.2187500  42.5827370  55.8970108
  13.0183640  43.1016922  55.8102036  11.5129433  43.1925087  55.6819572
  34.5401573  55.7897186  39.4448051  34.9531021  56.6498108  39.3676605
  35.2145615  55.2344704  39.8360977  75.5719070  61.9817276  88.2266769
  74.6856003  61.8101082  87.9084854  75.4469986  62.5406303  88.9936600
   7.1171618   5.3799753  66.3536148   6.8797326   6.2009115  66.7847977
   6.5532475   4.7231188  66.7619858  44.4051323  39.5364990  68.6073456
  44.5175247  40.2601166  67.9909210  44.1821327  39.9603195  69.4361267
  16.4792423  56.6623116  78.5042191  17.2871780  56.3736153  78.0798035
  16.7117367  57.4908371  78.9234085  12.5709524  26.8691483  81.3241196
  13.0009336  26.2795773  80.7046356  12.4509602  27.6836128  80.8357697
  10.1130333  51.0929565  81.2599640   9.8632374  50.6545296  80.4465637
   9.9996786  52.0250893  81.0742035  40.1741791  56.2716217  19.9951744
  39.7073097  56.7277184  19.2950020  41.0907593  56.5186653  19.8723660
  46.5038795  13.7353954  41.5282631  47.0628471  13.3348131  40.8624420
  46.5849228  14.6766548  41.3743324  79.4938126  38.2411919  29.9661427
  79.9792709  37.4523010  29.7248802  78.5784073  37.9621887  29.9867306
  63.1545143  36.8539772  48.9148979  63.7726517  37.4623299  48.5098724
  63.6879807  36.0976601  49.1590958  85.9836807  33.7790947   4.6427889
  85.7081299  34.3671303   3.9395692  85.5145035  32.9628372   4.4700851
  40.8216591  33.3129349  83.7551422  40.6870537  34.1204910  84.2510910
  41.5937805  32.9123802  84.1546631  65.5774307  24.7044678  46.3818512
  66.3783417  24.8113842  46.8950119  64.8847504  24.6105328  47.0357590
  31.3352985   0.9547400   3.6137750  31.5235291   0.2111630   4.1863961
  30.8343716   1.5585526   4.1621480  15.4798088  69.0351944  27.6418591
  15.9539537  69.8664246  27.6638279  15.0206871  69.0434799  26.8019943
  83.9797363  14.8144302  86.5870895  83.6137543  15.0096741  87.4497375
  84.6979446  14.2067547  86.7635574  45.8639030   7.1423388  76.5350037
  46.5663147   7.7809620  76.6575241  45.6626625   6.8350987  77.4189377
   7.0878263  45.0215416  88.3393555   7.5046396  44.7093849  89.1425095
   7.0549011  44.2515221  87.7717133  45.3875389  15.9664755  76.2372589
  45.5675392  15.1376944  76.6810532  46.2504997  16.2966137  75.9871826
  76.5627518   8.5334177  28.6314373  75.7365036   8.2261467  29.0044556
  76.8896637   9.1709900  29.2661495  10.9594774  54.2729111  84.5100555
  11.1009521  53.3354874  84.6421509  10.0096369  54.3809700  84.5586090
  26.0634098  18.4183273  76.5290833  26.2537937  17.5782051  76.1117325
  26.9224033  18.7688522  76.7646561  76.8222961  22.1264515  57.2240448
  76.6500549  22.8226986  57.8579254  77.7535400  21.9316845  57.3293495
  66.9042816  43.4974937  79.6483688  66.0106049  43.2290764  79.4350204
  67.0143356  44.3382378  79.2042236   2.3435960  56.1360168  65.4691010
   3.1660042  55.7173462  65.7232513   2.1428955  56.7289505  66.1932449
  52.6906853  32.2798424  16.3132668  51.9155655  32.1970520  16.8687534
  52.4931374  33.0163345  15.7346582  69.5328674  51.6214638  74.2992935
  69.0950623  51.4892769  73.4584045  69.0612183  52.3500404  74.7029648
  20.6223412  50.5058327  46.8357315  19.9127407  49.9410553  47.1418724
  21.3409805  49.9039116  46.6421394  31.6255417  70.9088364  83.9969177
  31.0233250  70.6102142  84.6783829  32.4335175  71.1173477  84.4658813
  75.8236084  50.0806618  49.4834633  75.3294830  50.5866241  48.8384285
  75.8940201  50.6618004  50.2407951  44.1962929  70.5686035  23.7071781
  44.0262070  71.4974899  23.8635941  44.8348160  70.3258057  24.3776779
  25.3327446   6.0134039  20.2218761  24.7361240   5.7602792  20.9262962
  25.9243145   5.2666297  20.1291103  70.0219421  61.7361565  36.5030937
  70.3875046  61.9207993  35.6379356  69.5567703  62.5377045  36.7425995
   4.0702333  42.0629425  38.4697609   3.4789903  41.6429062  37.8450737
   3.5381083  42.1895218  39.2552872  71.9158783  48.4043884  33.9066772
  71.4467392  47.7802887  34.4604301  71.2350006  48.9905663  33.5764732
  80.6560593  69.7225342  83.9595718  81.0248337  70.5899506  84.1263809
  80.9639206  69.4961166  83.0819702  70.3555679  34.0798073  82.4343338
  70.3035355  33.6739120  83.2996521  71.2735214  34.3358612  82.3447037
  41.3470268  37.1679840  61.5216103  41.8929596  36.8239975  62.2286186
  40.6188698  37.5988541  61.9692383  54.5282059  50.8259544  20.2963123
  54.1869316  51.2557716  19.5120792  54.0869865  51.2669182  21.0223351
  15.1706161  56.4082375  13.4577789  14.7234888  55.9360161  12.7554150
  14.7497978  56.0990219  14.2599821  64.1332550  46.6388016  55.3345184
  64.3586197  46.9677887  56.2046928  64.9658127  46.3407440  54.9681206
  57.9641571  62.5407677  70.1425095  58.3166809  62.2395401  70.9799042
  58.3209229  63.4225540  70.0357437   7.5551248  32.2070389  87.8504028
   6.6021657  32.1202507  87.8742599   7.7271581  32.7477798  87.0795364
  62.3867531  28.6309738  46.8789635  62.5952721  27.6992283  46.9467888
  62.6635208  29.0000210  47.7176743  73.6172028  25.8953705   1.3074729
  73.2982254  25.9227180   0.4053989  73.0877457  26.5459824   1.7685660
  68.1104507  31.6553631  58.0861359  67.3964844  32.0265617  58.6044884
  68.1542130  32.2097969  57.3070869  37.9608498  54.3263130  53.2030182
  38.1800003  53.4134560  53.0162239  37.2344093  54.5240211  52.6118965
  57.3884315  24.1940632  51.5773964  57.6921425  23.3067989  51.7691116
  57.9761581  24.5048370  50.8887558  85.6064606  31.6097755  84.3351135
  85.1463623  32.2284012  84.9024277  84.9240723  31.0123978  84.0289841
  58.8211746   9.5979691  16.0869179  59.2300644   9.6596403  16.9501915
  57.8904419   9.7493601  16.2513733  59.5788956  12.4636984  34.9221573
  60.4260559  12.1392212  35.2275581  58.9838943  11.7223272  35.0342827
  50.7288971  45.6297112  83.8774719  49.8942566  45.2414093  84.1398163
  51.0450020  46.0727005  84.6649094  72.6459274  -0.3431723  33.5991631
  73.1095123   0.4628413  33.8264580  71.8965302  -0.0503581  33.0806122
  51.3801804  55.1272774  70.9423218  50.8624535  54.3283195  70.8430481
  52.0551834  55.0607452  70.2669144  59.5788002  52.4339294  68.8413849
  60.4969635  52.5888214  69.0632324  59.5194054  52.6415176  67.9088516
  39.9007339   7.7938638  14.8571072  40.6301308   7.9647908  15.4529228
  39.4095421   7.0873113  15.2763309  50.8157959   9.9892015  11.1565695
  51.0560074  10.8978262  10.9751053  49.8665657  10.0120287  11.2777214
  17.6646271  67.4580078  53.2755356  17.0178146  68.0028152  52.8271446
  17.2938652  66.5759048  53.2498856  68.6627502  43.6623726  33.2022591
  68.8806076  44.4499168  33.7008057  68.8016205  43.9113045  32.2884865
  16.6958237  64.5461044   9.0011396  15.8327065  64.3917770   8.6171560
  16.5117512  64.9441223   9.8519821   9.1201735  38.3832703  71.5560837
   9.7353325  38.1214142  72.2411041   8.2683201  38.3988838  71.9923630
  59.1049881  68.9668579  30.7918072  58.4310760  68.4178925  30.3909187
  59.4561234  68.4329910  31.5044880  82.8264694  44.4514847  49.7133026
  82.7120132  43.6195450  49.2539444  83.7693634  44.5128593  49.8663025
  41.0059853  45.9627800   9.4292746  41.3232040  46.8279533   9.6882792
  40.6595955  45.5830574  10.2367754  22.5295906  59.9987946   4.2585840
  22.9070568  59.1478271   4.0358644  22.5527439  60.4929466   3.4391282
  27.8098850  49.9911156  17.7337284  28.7332439  50.2240448  17.6368599
  27.6925564  49.8634529  18.6750927  38.0643501  32.0126381  69.8179321
  37.3146515  32.2568550  69.2752151  37.6895218  31.4770622  70.5171432
  85.7666321  48.0199966  51.8748207  85.3432541  47.9241943  52.7279358
  85.0808029  47.8073616  51.2418480   4.3174200  35.1471100  79.0357132
   3.6847818  35.2672424  79.7439270   4.9884462  34.5752335  79.4084244
  18.4764156  65.9792862   3.2134230  19.4154663  66.1396255   3.1201017
  18.2914734  65.2725830   2.5948839  40.3835144  18.0955238  -0.0106386
  39.6037025  17.6369991  -0.3234974  40.7352257  17.5288754   0.6759744
  28.6168270  68.6446609  63.1458244  29.0318146  69.4925156  62.9872246
  29.2817631  68.0023880  62.8976746  81.7685699  50.6865005  21.0757294
  82.5779343  51.1502533  20.8610363  82.0562057  49.9191132  21.5703144
  73.3960953  23.3612404  74.6195908  73.8831253  24.1823158  74.5498352
  73.4770355  22.9604721  73.7541046  17.7783489  38.9497070  57.7966576
  17.5395260  38.0230865  57.7729034  18.0947342  39.1382294  56.9131470
  74.2918396   7.5463414  38.1590424  73.6107254   8.1559172  37.8749237
  75.0324707   7.7281775  37.5805702  59.3513680  34.1039124  72.8095856
  59.2907181  34.8385391  72.1989517  58.5866165  33.5636024  72.6109695
  33.8122940  70.3395081  50.3620491  34.3572998  71.0961685  50.1460114
  33.5959129  69.9504395  49.5146828  29.6606293  67.6961823  19.0566101
  28.7946224  67.9238739  19.3948765  29.4943256  67.3714905  18.1716537
  71.8614883  52.8180504  88.0736160  72.1351700  52.0164871  87.6277237
  71.9185181  52.6053505  89.0051422  73.0571213  22.0214787   4.9754090
  73.8959732  22.3675957   4.6708279  73.2788391  21.5015354   5.7478952
  41.7220001  50.5806999  22.7194176  40.8529625  50.3100281  23.0156288
  42.0999603  51.0369453  23.4712276  36.5144196  59.7210350   5.1327534
  36.5103455  60.3028488   5.8928246  37.0444984  60.1810188   4.4818587
  64.9263000   3.1783810  58.1083298  64.4649277   2.3401222  58.1345634
  64.4987335   3.6651545  57.4037209  76.2260666  63.0381775   3.1263556
  75.7558823  62.2402802   2.8844497  75.7556152  63.7393990   2.6755843
  36.9143143  58.9600258  87.6816559  37.0534935  58.0232620  87.8207169
  37.3359299  59.3787956  88.4320602  61.0273933  31.4434471  67.3853683
  61.2760963  32.2219582  67.8836670  61.8109894  30.8937607  67.3929901
  85.8115692  70.7357101  69.6795731  85.2965469  70.2546692  70.3273239
  85.8146667  70.1696320  68.9077072  56.8273964  59.9474602  74.9204941
  57.3000526  59.1405220  74.7163391  56.0739021  59.6598015  75.4359818
  65.2037125  69.2603149  39.9351807  65.3488464  68.3267136  40.0886307
  65.5109177  69.6852646  40.7359772  60.2162666  26.1710644  77.6272812
  60.2589874  26.7778149  78.3663788  60.9866867  25.6125679  77.7310486
  43.6272011  60.3508530   0.0463749  43.9754906  60.5677948   0.9111655
  43.2352333  61.1665306  -0.2654899  62.1545677  54.9885025  54.7132797
  61.4769592  54.9179802  55.3856659  62.7188759  54.2296600  54.8614159
  83.1266403  -0.0058949  21.1237793  83.1244583  -0.0349109  22.0805378
  83.1796646   0.9261997  20.9125462   0.3271767   8.0983944  49.2429390
  -0.2774111   8.0871763  48.5009270   0.6647666   7.2039585  49.2903671
  58.4940338  38.6225014   3.4066279  58.9603653  38.0381393   2.8088892
  59.1686478  38.9381943   4.0078478  44.8497925  58.1502914  78.3519516
  43.9202652  57.9218674  78.3457794  45.2092247  57.6711235  79.0985718
  44.6397324  13.2171698  22.5081348  45.0788879  12.3730602  22.4039650
  44.6051407  13.3539391  23.4548798  45.6011543   6.7277999  89.2374649
  45.9106560   7.4194303  88.6525803  44.7250595   7.0103102  89.4999084
  76.5487900  34.3504639  55.5482521  76.1645355  33.9126511  56.3077888
  76.2478333  33.8373108  54.7983627   0.6011949   0.3023922  80.4511108
   1.1865841   0.0144784  79.7506409   0.0108911   0.9263186  80.0286331
  86.1537704  10.0812225   3.4598634  85.7155991   9.3427267   3.0369411
  85.5616608  10.3381882   4.1666956  13.1291294  61.3303833  31.4656582
  13.6600962  62.1117935  31.3116894  12.4679985  61.6109161  32.0984612
  55.3914833  28.6543026  29.7117290  54.6714287  28.4487629  30.3079739
  55.0284348  28.5077419  28.8382607  30.3042374  71.2643280  27.1761913
  31.1289406  70.8396988  26.9399986  29.6390877  70.7896957  26.6776638
  20.0867004  56.9584007  80.6381760  19.4858055  57.7034874  80.6375427
  19.5158749  56.1903687  80.6608963  20.2856140  12.2447023  83.7313538
  20.0695858  13.1767292  83.7015381  19.7249527  11.8474503  83.0649643
  61.7915001  57.2709465  56.7709312  62.7298851  57.0952873  56.8402786
  61.4951019  56.7098083  56.0543404   3.3251073  66.8366623  13.2799597
   3.8640311  66.2554779  12.7432890   3.9530466  67.4205322  13.7054253
   4.2208567  26.3501682  69.6650009   3.6455708  26.0200844  68.9748383
   3.6273098  26.7496986  70.3008499  15.0148621  48.0223656  27.7174606
  14.8415985  47.0953369  27.5536671  15.0921669  48.4093094  26.8453770
  23.6959267   7.9742951  18.5734177  24.2621212   7.9816585  17.8016663
  24.2094231   7.5222411  19.2428951   6.3949485  46.5393524  14.8692150
   5.5725346  47.0214806  14.9553680   6.4396434  46.3057556  13.9420328
  30.1170673  26.4043827  81.3995056  30.1439209  27.3329048  81.1685181
  30.4011021  26.3765526  82.3131714   7.6075006  35.1436539  15.4294376
   7.4371061  36.0240059  15.7643642   7.2828116  34.5596428  16.1148129
  12.7220125  28.3400860  72.1168671  12.7248411  27.5808582  72.6997910
  12.5765972  27.9722633  71.2452087  45.3120003  23.5298290  40.0601540
  45.7839546  24.2794628  40.4228401  45.0359612  23.8186340  39.1903114
  19.7825394   4.4075212  28.0662289  20.6496964   4.4452243  28.4697723
  19.7907524   3.5976048  27.5561295   3.1007798  66.8431091  30.8353748
   2.1438820  66.8383560  30.8117924   3.3257217  66.2471085  31.5498104
  33.3218384  70.9376526  86.5644531  33.1584473  71.6821442  87.1434860
  33.3804016  70.1849365  87.1528473  29.8501701  49.6684685  46.1678467
  30.1868572  50.2061691  46.8846092  28.8983955  49.7287827  46.2498245
  40.8452568  36.9989891  56.0132561  41.1202316  37.5012703  55.2462273
  40.3532372  37.6243629  56.5452881  72.0094070   4.4208770  72.2578659
  72.5845490   5.0854211  72.6371078  71.2709198   4.9167628  71.9043732
  13.0136261  21.3314266   1.8420428  13.6309471  21.5123119   1.1332222
  13.1211739  20.3972282   2.0207484  18.9792194  46.6237679  46.4658699
  19.3258266  46.7271538  45.5796356  19.3706493  45.8097382  46.7826843
  74.6188049  40.2207298  63.0385399  74.9723053  41.0542564  63.3491898
  75.0517883  39.5604057  63.5795860  17.9540672  64.8551102  71.9368820
  18.0102615  65.7505493  71.6033096  18.7117596  64.7669373  72.5151215
  43.2399178  55.0052490  77.5019913  43.1351242  54.1976013  78.0049438
  42.4828796  55.0227242  76.9164886  41.0392609  35.0326271  59.4764671
  41.9877472  34.9038162  59.4799805  40.9025879  35.8204193  60.0027161
  65.0020294  38.6526527  64.3415451  64.4492493  39.2755661  63.8696861
  65.6471558  39.1980476  64.7916412  52.1422424  50.3226662  49.0675621
  52.1441460  50.4844475  50.0109901  52.6160889  51.0667381  48.6960030
  75.5673447  71.1639175  23.6479626  75.9820328  71.9537888  23.9948940
  74.7268066  71.4661026  23.3038425  54.6434174  29.7463150  81.8462524
  55.2184334  30.2861900  81.3039169  54.3162766  30.3447666  82.5178604
  16.1164989  58.4296570  34.2835503  16.8281231  57.9428444  33.8678131
  16.3134289  59.3476486  34.0971565  53.4125290  41.9127693  48.0953369
  54.0538902  42.6063766  48.2495995  52.7500648  42.3190842  47.5365181
   3.8412962  62.7209740  87.7869873   4.0813332  62.0713577  87.1262207
   2.9288130  62.9347572  87.5923004  51.5497589   5.6046734  33.8274155
  51.6583328   6.5513968  33.7370911  50.8493805   5.5043426  34.4721146
  38.2818260  67.8426056  21.3510437  38.5486603  66.9562149  21.1074657
  37.3340454  67.8526382  21.2174854  84.2420654  53.3300743  68.7423019
  84.2054520  54.1749535  69.1907120  83.3308411  53.0394745  68.7041702
  62.9444656   7.6108494  47.4963264  63.8118477   7.2177529  47.5930748
  62.9014893   7.8729038  46.5767021  76.7256775  31.1867313  48.5373077
  77.2045670  31.3213539  47.7195244  75.9232101  31.6977654  48.4318581
  85.3236389  59.6564827  44.8739014  84.9634094  60.0394936  45.6737595
  84.7243042  58.9415359  44.6597099  48.9119034  12.6082039  22.8003502
  49.6047173  13.0884552  23.2537785  48.4585571  13.2735844  22.2826824
  52.5850334  25.3824883  77.8647156  52.2656708  26.1727753  78.3002472
  51.9921150  25.2615147  77.1230698   8.8146868  64.1234436  36.6258926
   9.3853598  64.3425903  35.8893204   8.1726484  63.5157089  36.2589073
  71.1004257  15.3679285  31.0553493  71.3252335  15.6149654  31.9523811
  71.9089813  15.0004921  30.6983318  82.9728241  10.7857437  74.9983749
  82.0232315  10.7782497  75.1186066  83.2415848   9.8810043  75.1578827
  76.0270386  16.5872822  80.0233994  75.5996399  16.1722946  79.2741699
  76.4928055  15.8734894  80.4590530   8.9551811  60.4027672  38.7898369
   8.5334730  60.5937080  39.6276512   8.2554588  60.0400200  38.2466660
  55.2226181  25.9451523  45.7322731  55.2763519  26.8558502  45.4424896
  54.2854042  25.7506733  45.7384567  45.9716415  11.5891495  68.8128052
  45.1829834  12.0011301  68.4599228  46.6698380  11.8577404  68.2156372
   7.7698121  60.1093407   9.9087915   7.7420650  59.6776009  10.7626429
   7.7902899  59.3902473   9.2773523  12.7069111   3.4797416  81.5520630
  11.8019285   3.1729448  81.6078644  13.2344666   2.7088211  81.7608719
  15.0506325  48.4630775  75.3329010  14.9507837  48.6063499  74.3917618
  15.5136299  49.2402687  75.6456909  22.4330673  49.0260658  30.9475822
  22.7711926  49.2930870  30.0928288  22.8355923  48.1726418  31.1084270
  32.0107193  69.5158997  48.1775856  32.2782249  68.6062927  48.3090744
  32.0635910  69.6466370  47.2308311  47.5353394  35.9153633   0.2113876
  47.8318253  35.0995903   0.6149195  47.7491493  35.8152466  -0.7162399
  45.0574532  37.6285057  45.3800964  45.6900635  38.2624435  45.0422211
  44.3953552  38.1619148  45.8197937  77.9349136  62.3616829  80.1393890
  78.6813889  61.9450073  79.7088165  78.0009003  63.2843628  79.8933411
  81.1161804  43.2166367  40.0262794  80.8198242  43.8257904  39.3500137
  80.5344543  42.4614067  39.9399376  60.5534973  15.0653887  27.2001152
  60.6728401  14.4100056  27.8874741  60.4439774  15.8906775  27.6724892
   3.0290086  70.4441147  27.9389877   2.9427619  70.0959854  28.8264561
   3.0242805  71.3944855  28.0529995  10.6768446   3.6421397   4.3065143
  10.9902601   4.4598193   4.6930404   9.8290234   3.8676946   3.9236879
  66.5545197  16.8384972  21.6052532  66.0054092  16.7512474  22.3844166
  66.5182114  17.7704201  21.3897781  39.4665756  28.1529522  55.5115433
  38.6724281  28.3984642  55.0368996  39.1481972  27.7108841  56.2985916
  25.1247749  70.9698563  13.6396523  25.0688629  71.9087372  13.4618959
  25.7452831  70.8999710  14.3651295  49.6057777  17.1944408  78.2427673
  48.8318443  16.9712830  78.7599335  50.3408546  16.8537312  78.7524796
  10.8919678  49.4924431  60.6993752  10.8375235  48.8017845  60.0388756
   9.9827433  49.6571350  60.9492149   3.5060773  52.8778610  41.3288231
   3.3936844  53.6493874  40.7735329   2.6391029  52.4729881  41.3546333
  11.1761560  58.7402267  48.0760651  11.8270340  59.3369942  48.4454689
  10.5223570  58.6407738  48.7680817  35.2653427  29.9693413  66.1810760
  35.3169365  29.1258411  66.6306076  34.3288612  30.1637878  66.1434174
  50.2576790  12.7138720  37.5529327  49.3156929  12.8052282  37.4096069
  50.6566200  13.0782518  36.7628021  57.4647484   8.9884720  64.9185638
  56.9465675   8.6823483  64.1742401  56.8832817   8.8888397  65.6723557
  57.0201836  69.9190216  14.9849434  57.6146431  69.4137421  15.5395079
  57.4456444  69.9323425  14.1275997  83.3366394  23.6414948  73.7677612
  82.7089844  22.9503136  73.9788208  84.1506195  23.3619595  74.1867294
  81.4676743  38.7047768   6.1348534  81.2607346  39.5090790   6.6107750
  81.5437698  38.9799271   5.2212162  25.7902813  56.5574570  35.2700272
  25.2833042  55.7502899  35.1823311  26.5766926  56.2955322  35.7487602
  55.7555885  25.7797852   0.2473124  55.7143631  26.6123657   0.7177830
  54.9140205  25.3608723   0.4276095  33.5665703  57.4444771  86.7634735
  33.3751564  57.4428253  85.8256149  34.4936523  57.2128487  86.8191223
  54.2742615  62.6353569  85.6263657  54.0391006  62.5395966  86.5492783
  53.6977425  63.3276138  85.3028870  84.1995926  58.9626808   5.6679988
  85.1384048  59.0384293   5.4973450  83.9158554  58.2277489   5.1243038
  26.7614307  23.7306519   8.4147015  26.2254467  24.5236168   8.4019461
  26.9126949  23.5289230   7.4913077  37.2786713  64.5323868  71.9194031
  36.9183350  63.9003105  72.5413895  36.9310341  64.2581711  71.0707626
  56.7763519   0.4253325  48.5373764  57.4554138  -0.2456678  48.4676247
  56.4777641   0.5583497  47.6377182  21.6503601  51.0268631  24.9380417
  20.7580738  51.0109215  25.2841663  21.9376755  50.1145248  24.9743309
  61.5979843   8.8358898  21.4007187  61.9937401   8.8704939  22.2715893
  62.3347740   8.9394989  20.7985249  74.6185455  24.7432747  32.9064484
  74.9899673  23.8744297  32.7535324  73.6720200  24.6009617  32.9152679
  55.4154701  56.9079208  32.5672646  56.2269516  56.5309105  32.2272758
  55.4439735  56.7296638  33.5072899   2.0019746  33.2470665  70.4240952
   2.4400997  32.6938438  71.0708008   1.2965467  32.6996536  70.0792160
   8.0843773  63.2146034  70.0957184   8.7314005  63.7673416  70.5339737
   8.4679546  62.3377724  70.1121826  24.1785927  64.7993393  77.0755920
  24.7729397  64.4135895  77.7191620  23.3647518  64.9446640  77.5580597
  16.2376442  62.2892303  39.0059357  17.0727978  62.6845360  38.7559700
  16.1697025  62.4481277  39.9474068  12.6992130  65.6511002   0.8865641
  13.4279795  65.6818085   1.5063934  12.5467367  66.5661469   0.6506197
  56.4014740  36.1761093  42.8345680  57.1576157  35.6205940  43.0239983
  56.0300179  35.8095703  42.0321312  61.5410004  53.4453926  43.4534187
  60.6727066  53.8113365  43.6218948  61.7309189  53.6869011  42.5468674
  83.7942810  41.4726715  43.3748322  83.3694077  42.3294334  43.4157333
  84.5219574  41.5364113  43.9934235  33.3425827   3.9945633  76.6590805
  32.7068253   3.9156420  75.9478683  34.1217117   3.5426443  76.3351059
  11.0882950  57.6958580  81.5126190  10.3875551  57.5544777  80.8760605
  11.8944626  57.5482788  81.0180969  11.8142824  57.9124451  88.4234314
  11.6299524  57.8752670  89.3619766  11.5983887  58.8105354  88.1723251
  19.0457993  55.4190178  72.4184723  19.2152367  54.7734756  73.1046219
  18.1357403  55.2654686  72.1646118  78.1609726  56.1625099   4.7347698
  79.0571442  55.9614639   4.4651656  77.8456192  55.3544312   5.1394873
  48.3174477  12.6558847  26.3809128  48.6000633  13.5695276  26.4211311
  47.3614006  12.6999712  26.3971348  83.5137024  62.4427643   4.8412852
  84.3588715  62.5817032   5.2686124  83.6955948  62.5556488   3.9083309
  30.2175617  13.2515640   5.0690398  30.3936863  13.9032612   4.3904352
  30.2477589  12.4126616   4.6090798  41.3224869  33.1466942  88.7642059
  41.9901352  32.4909096  88.9652634  41.4161758  33.8032761  89.4543839
   1.4180555  26.1709423  63.6986542   0.6330900  26.2047863  64.2453842
   1.8469473  27.0144348  63.8428879  68.9565201  61.9914055  32.7130432
  68.6060944  61.5049744  33.4592438  68.4542389  62.8061447  32.7010345
   9.3136768  53.1853905  28.6605740   8.6133337  53.3132286  28.0207253
  10.1202240  53.3197899  28.1629314  53.2077332  56.3171310  10.2764454
  52.7161827  55.5023499  10.3800755  53.7549324  56.1702576   9.5049334
  37.2846794  49.9084969  40.1259537  36.7122269  50.3011703  39.4669113
  36.8758011  50.1319122  40.9620972   6.3605633  59.9293442  31.9189987
   6.9717059  59.2497787  31.6345253   5.5024695  59.6135483  31.6358395
  30.0216427  48.3057022  53.4905968  29.3351879  47.6436119  53.5721474
  30.8319130  47.8363266  53.6890335  35.8909492  25.2175407  16.7953663
  36.6345787  25.2111759  17.3980293  36.2883987  25.2259655  15.9246235
  74.7434158  14.3882551   2.6552639  74.7953262  14.3115845   1.7025524
  73.9633789  13.8873491   2.8937190  62.1627769  44.6021690  15.8016272
  62.2462120  44.2793999  14.9043579  62.3621788  43.8425980  16.3489132
  79.2457809  23.4410019  15.3443613  79.9776230  23.2451782  15.9294186
  79.3716278  24.3584614  15.1021614  80.0528336  13.3059645  56.1118507
  79.5206833  13.2191954  56.9027481  79.4610138  13.6919851  55.4661217
  78.7885590  49.3441963  45.7557716  77.9621048  48.9530487  46.0389938
  78.5880051  49.7399025  44.9075813  25.7521286  59.5198059  74.3597488
  25.4231777  60.4031143  74.5264359  25.9074802  59.1537971  75.2304535
  56.4577065   8.0551014  25.4987411  56.8859215   8.7733307  25.0328999
  55.6218224   7.9409552  25.0465221   0.7943731  26.2191811  16.5932865
   1.3620816  26.0480003  15.8418636   0.1365404  26.8305798  16.2621059
  38.4090157  21.6319752  71.7496796  38.8787689  22.4311943  71.9880295
  37.5053711  21.7957668  72.0195541  62.4610939  43.3800392  49.3311615
  61.8911972  42.6112785  49.3525963  62.4823532  43.6367950  48.4092865
  58.1648903  26.4039783  79.9438629  58.1174507  26.8066578  79.0767822
  57.4095535  25.8169479  79.9769745  86.3129044  28.6010704  75.5660553
  85.8987656  27.9165249  76.0915222  86.7623672  28.1270123  74.8664246
  59.3986511   9.7178116  18.7365665  60.0732880   9.0449829  18.6449165
  58.8281784   9.3917351  19.4326019  79.0235519  70.7258377  64.0717545
  78.2812042  71.1672745  64.4844208  79.1729660  71.2144318  63.2623177
  59.6301003  20.8323536  82.1177902  59.6563530  20.0891762  82.7204742
  59.8632202  21.5872765  82.6581345  12.5408621  63.7946663  66.0493851
  12.1187353  63.3669014  65.3043671  13.3385487  64.1781998  65.6849365
  17.5164318  63.3040466  48.5976944  17.7955952  62.9570236  47.7504196
  18.0751934  62.8588486  49.2347298  86.0722427  53.9146423  22.2758675
  85.1517334  54.0779991  22.0704098  86.5303345  54.6926575  21.9579411
   2.4351161  14.9308958  86.9824219   1.8379120  15.5022793  86.4996109
   2.1314027  14.0449944  86.7845078  67.6157150  27.1125584  81.2003021
  68.1224747  27.0752716  82.0114975  68.2738342  27.0912762  80.5055695
  42.0809593  51.5059853  86.9029999  41.7202187  51.9338760  87.6795349
  43.0185928  51.6951141  86.9391251  65.7313080  30.3188992  32.3558693
  66.5884094  30.0677509  32.7001419  65.1416321  30.2483845  33.1065636
  65.3759918  16.0751457  61.4508400  65.7540359  15.5701218  60.7309303
  64.4508286  16.1632786  61.2216492  71.2335815  24.7226772  30.3473301
  71.4534454  23.9039650  30.7918530  70.9515686  25.3084278  31.0498943
  67.6551895  26.4979591  17.4588070  68.5947952  26.3823223  17.6002197
  67.5184021  26.2506962  16.5442677  17.0645046   8.6818056  22.9622574
  17.6684017   8.2852526  22.3343353  17.6310253   9.0437145  23.6436558
  86.4357529  64.8274612  26.7463703  86.6637955  64.4248886  25.9084206
  85.8336411  64.2055359  27.1549015  26.7292881  61.1339989  32.2215881
  26.3205624  60.4285583  31.7200642  26.6609592  61.9019165  31.6542549
  65.0753098  20.9657021  77.1228485  65.8391190  21.0738583  77.6895294
  64.9449387  20.0186405  77.0747528  23.9995804   5.7989335  15.7866926
  23.9354229   5.4702024  16.6833820  24.5675030   6.5665841  15.8530769
  80.7609253  27.2143250  45.3887711  81.4913177  26.6235638  45.2050438
  80.8542252  27.4291210  46.3168793  65.4363403  31.0715599  49.5467682
  65.3480530  31.9999866  49.3312225  66.2323303  30.7949200  49.0927734
  55.7672653  50.7597771  61.7830048  56.3028641  51.3011131  61.2030716
  56.0996590  49.8711929  61.6558647  44.4242363  65.3359985  88.2683411
  44.3017502  65.5040741  87.3340073  43.6444435  65.7056961  88.6824417
  78.0958099  45.6455879   0.7921807  77.4254379  45.1407814   1.2526253
  78.0472031  46.5189171   1.1809781  65.5140686  70.5490036  42.3296509
  65.8837280  71.4118729  42.5168190  64.8803329  70.4024811  43.0318909
  28.6029968  29.2853069  71.1763916  28.5588341  29.1965427  72.1284485
  29.5164585  29.0977058  70.9604721   7.4882922   3.7439811  25.8634739
   7.5572901   4.5535874  26.3694477   7.3973184   4.0355086  24.9562988
  51.0143356  14.1524286  23.2473583  51.5788918  14.6820393  22.6843128
  51.4245415  13.2875948  23.2523670  13.6468401  33.3582115  86.2997131
  14.3835573  33.9095688  86.5633163  13.1359892  33.2419968  87.1008148
   7.2674356  40.2955894  83.9177780   8.0167542  40.4633408  84.4892807
   6.5442243  40.1143227  84.5180588  70.7611084  18.3241329  64.6500549
  69.9561996  17.9817162  65.0387802  71.1027985  18.9333916  65.3044891
  52.1482964  68.2934113  32.5995865  51.6623306  68.1318512  31.7909012
  51.8061638  69.1271744  32.9221153  23.2286263  65.6207733   6.3438721
  23.4126053  65.7840729   5.4188228  22.6861153  64.8321609   6.3445950
  57.5601616  10.3997431  72.7642365  57.1518097  10.6676464  71.9410095
  56.9484711   9.7666759  73.1401291   4.1019540  37.6773491  36.7126884
   3.6257727  36.9572525  37.1261368   5.0232043  37.4898033  36.8925667
  48.9196396  60.1898766  54.7119102  47.9840508  60.0251808  54.5944977
  48.9968796  61.1439514  54.7107506   1.9215246  16.5324631  74.9571075
   1.7389109  15.7171793  75.4242249   2.2224936  17.1356239  75.6366959
  57.8925362  57.4523277  74.2330322  57.9601364  56.5033150  74.3380890
  57.9476471  57.5932007  73.2878647  37.4148827  71.3087082  15.2605152
  37.4682274  72.0111084  14.6124249  36.5134087  71.3457565  15.5802107
  30.2164516  64.8258362  19.1393204  30.8687420  64.2872391  19.5872726
  29.6970234  65.2098999  19.8456669  23.8275261  24.5647354  68.4892502
  23.3565693  25.2414017  68.0028763  24.7407627  24.6697388  68.2224045
  46.0267334  42.7992172   5.3054338  45.1213303  42.7634659   5.6139812
  46.3852577  41.9366760   5.5145230  65.3881989  62.8916092  81.4134445
  66.1701355  63.1291008  80.9150467  65.0010300  63.7299461  81.6654968
   3.2505012  23.7073803  15.4257650   2.8293836  23.7550125  16.2840328
   3.2479062  22.7750244  15.2091141  10.6330986  47.3481064  11.9191561
  11.0492764  47.4349709  11.0615530  11.2116928  47.8234444  12.5154085
  55.1201057   6.8310218  27.6906471  55.8253365   7.3207512  27.2675114
  54.3321877   7.3451319  27.5142727  47.6922722  68.3372040  88.0630951
  48.5407639  68.5121689  87.6560516  47.1074600  68.1529388  87.3280640
  76.4391632  33.1833954  65.5710907  77.2159348  33.7405548  65.5217819
  76.7861023  32.2975922  65.6769867  46.1150894  39.5384369   8.7410431
  46.1483994  38.6707001   8.3383551  46.2767372  39.3774452   9.6706572
  40.8176575  21.8434010   0.9744175  40.9546318  21.0680408   1.5187398
  40.3688850  21.5133514   0.1960196  39.4171906  25.9588547  71.3283691
  39.5754662  25.7642879  72.2521286  39.8819389  25.2686825  70.8551865
  34.5287590  55.3793182  58.7179031  34.4712448  56.2351074  58.2929840
  33.6184731  55.1032257  58.8245964  72.2513809  22.1668282  76.9678497
  72.2556610  21.2227039  76.8102341  72.3169785  22.5555706  76.0956039
  25.2567043  59.1308174  35.8095818  25.9925060  59.6156235  35.4356956
  25.4885521  58.2104340  35.6856041  45.1730804  15.4138136  17.9816360
  45.9969635  15.0118761  18.2571297  45.3915787  16.3348923  17.8398457
  76.1935349  11.8459988  13.0458565  75.4374008  12.2644072  12.6342487
  76.0627289  11.9844723  13.9839106  85.4234695  65.2352371   6.5468097
  85.4344177  64.2878799   6.4103155  85.2978134  65.6018829   5.6715899
  53.4036560  59.9865952  43.9620819  53.0821228  60.7040100  43.4160347
  53.4348335  59.2327042  43.3730927  60.2708244  47.2505112  28.8091679
  60.1128349  47.8553810  28.0843201  59.9011841  47.6915627  29.5740681
  12.4617939  40.1435356  23.9292355  11.5200586  39.9733505  23.9493523
  12.8086109  39.4986420  23.3127441  52.6424713  35.5240974  41.4935455
  52.8492966  36.0280914  40.7064972  52.2470551  34.7170296  41.1641159
  16.7233734  68.2604370  56.1194878  16.7404194  67.5941620  55.4324532
  17.3004131  68.9524460  55.7964020   1.5101709  61.1135597  35.4547501
   1.4922025  61.9938202  35.0791779   2.4403505  60.9253426  35.5795364
  35.0465012  39.2345543  84.4963837  34.7516861  39.8329239  83.8098907
  35.9190292  39.5505486  84.7310715  75.5233002  68.0520554  80.4849472
  74.6211166  68.3031158  80.2867813  76.0396729  68.4344711  79.7754822
  65.0588226  52.7322121  43.4780579  64.5113907  53.0700951  42.7692680
  65.6904984  52.1608582  43.0412750  73.4785461  25.0538578  25.7983818
  73.3078690  24.1458569  25.5481091  73.3367920  25.0721169  26.7448521
  50.1408348  33.4728165  12.6904869  50.5794868  34.0679169  12.0824823
  50.7813568  33.3266602  13.3866186  84.2421417  50.1345215  45.6243782
  83.8986435  50.9378433  45.2333336  83.5706024  49.8675232  46.2520523
  79.0745850  28.5936871  25.9936924  79.5930862  29.3935261  25.9062614
  79.6194534  27.9110317  25.6021233  82.1243057  46.4221344  78.1993713
  82.0141373  47.2083740  78.7340927  82.3998260  46.7510681  77.3437271
   2.6444142   2.3633182  21.0957756   3.3035300   1.7469182  20.7766380
   1.8750545   1.8216101  21.2714748  42.4047432   1.1863831  12.5408630
  42.3617783   2.1360719  12.4291620  43.2191696   1.0383556  13.0215187
  71.1331177  11.8692036  33.4872742  71.3494492  10.9578352  33.2901993
  70.4927673  12.1132755  32.8189812  49.0671921  29.5573883  31.9778938
  49.2604713  29.6512833  31.0451241  48.2121429  29.1278763  32.0032654
  34.1181259  22.3045826  74.3918686  33.1790199  22.4651661  74.4842148
  34.5305443  22.9768105  74.9343185   6.4638262  26.0620975   0.6639563
   7.2069097  25.8754559   0.0901766   6.7663627  26.7782536   1.2223694
  74.1032944  17.1710262  38.3157616  75.0548706  17.1170635  38.4041481
  73.7693405  16.9576626  39.1870728  62.8946342  66.0639191  41.4248734
  63.0522575  65.2908249  41.9668236  62.2710609  66.5866928  41.9289513
  47.8964043  61.5427895  17.8903866  48.5865173  61.1522522  18.4265327
  47.9873276  62.4850616  18.0321121  67.7114944  41.6046333   7.2655878
  67.8447189  41.2323608   8.1373081  67.1038208  42.3308334   7.4055862
  63.6543007  33.7201271  72.2315292  63.3566475  33.0745468  71.5905457
  64.1620026  33.2125549  72.8646469  44.3004379  10.8951511  76.4069901
  43.7391548  10.1401253  76.5834198  45.1596642  10.6382408  76.7415924
  71.2810211   3.5015810  65.4278183  71.6600342   4.3769946  65.3488617
  70.8017502   3.5218990  66.2561417  49.0644913  37.7453194  81.0018234
  48.1854935  37.7287102  80.6232376  49.4759674  36.9403191  80.6873474
  27.6011257  51.4435158  44.4604530  27.1084423  50.6368217  44.6112671
  28.2564564  51.4578819  45.1579933  60.8392715  34.4967270  51.4551888
  59.9854622  34.5475845  51.0254745  60.6397705  34.2355309  52.3541908
  12.6037941  36.6493797  47.5661583  12.2300863  36.6744118  48.4470367
  12.1516829  35.9243546  47.1346893  80.8006210  66.6772614  75.0946045
  81.1661301  65.8665161  74.7405777  80.1186905  66.3878937  75.7007980
  49.6915932  14.9423180  83.1616592  50.0366173  14.4211874  82.4366684
  49.4419060  15.7748280  82.7606430   1.1037766  14.9860430  80.5723648
   1.8645685  14.8300104  80.0128250   0.7819845  14.1108751  80.7886124
  66.6090698  14.6677828  35.8356934  66.1187515  15.4419603  36.1122322
  67.3632278  15.0185175  35.3619194  46.7658272  27.7151108  32.1103973
  46.9756927  26.9300213  31.6046104  47.3454094  27.6720715  32.8709641
  70.4554672  45.2689323  69.9143219  69.9646988  44.6703262  70.4773941
  71.3290558  45.3023720  70.3041229  66.8652267  32.2738647   9.5537052
  67.8214188  32.2416763   9.5835581  66.5932312  31.3571796   9.5977268
  78.0300369  14.2761173  70.1650467  78.9845123  14.3433800  70.1910629
  77.8092957  13.7130508  70.9069748  72.2502670   9.1628876  54.6610680
  71.8113632  10.0123110  54.7066612  72.3449631   8.8928909  55.5745049
  50.7302513  40.3345604   0.4728458  49.9582977  39.8096504   0.2612125
  50.3758125  41.1713257   0.7735692  47.3664970   4.7319140  13.7667532
  47.4805641   5.2419124  12.9648037  48.2080612   4.2938881  13.8937702
  61.5081253  27.8202553  25.5331841  61.8609810  28.7096195  25.5607071
  62.0742264  27.3569813  24.9158211  78.1902618  30.8976631  24.6121635
  77.4599686  30.9539375  23.9959373  78.0338898  30.0863457  25.0954304
  36.5692711  22.5864735  82.9830856  36.4211845  22.9666691  83.8489685
  35.7491188  22.1391964  82.7744446  64.6605911  36.9116631  84.3478851
  64.3169556  36.0896873  83.9978867  65.5501328  36.9673271  83.9988251
  46.6591110   3.3662069   4.1227665  46.5724068   3.3386402   5.0756330
  47.6021881   3.4244668   3.9696624  39.6038628  13.7619257  10.0672922
  40.1730804  13.7875338  10.8364277  39.9145164  13.0090609   9.5643787
  31.9724770  59.4782829  41.0147324  32.1200447  60.3953362  40.7834969
  32.3666306  58.9836884  40.2962227  48.5398598  23.7087574  23.2470207
  49.2516327  23.0687637  23.2514839  48.3273697  23.8242016  22.3208714
  74.8155441  33.5796318  34.1716881  73.8630600  33.6731567  34.1557388
  75.1451340  34.4415474  33.9173279  18.3887043  37.1354828  67.1404953
  17.8221245  37.7863312  67.5547638  19.2560577  37.5403519  67.1372604
   3.4932270   4.3827772  11.1119823   3.6175077   3.4538291  11.3065119
   3.7937291   4.4805689  10.2084522  77.8862228  54.3594170  53.7533226
  78.0164261  53.4533501  53.4734612  77.6343765  54.8229561  52.9546127
  71.3605347  37.0936279  32.8926125  71.9086914  36.4375763  33.3231392
  71.0215759  36.6497345  32.1152496  62.4898911  48.2607994  39.2390671
  62.8884201  47.7364388  38.5444794  62.6884117  49.1660614  38.9996376
   4.0473547  36.7274475  20.5161400   3.9007728  36.5916443  19.5800304
   3.2347674  36.4370804  20.9304123  75.7197571  41.4625130  46.3549728
  76.2758331  41.4182129  45.5771217  75.1582108  42.2230301  46.2049484
  74.7570801   6.7003193  64.6894379  73.9713974   6.2640896  65.0190353
  74.5788498   6.8447337  63.7601280  69.1811142  55.9884186  66.1225586
  69.6045074  55.3828773  65.5140457  68.3010254  55.6315117  66.2421265
  51.2902870  64.4770279  20.1138287  51.6721001  64.6945877  19.2634659
  51.9626274  63.9551315  20.5517902  37.2122688  33.1174316  11.8936815
  36.8671455  32.8770065  12.7535181  38.1380844  32.8772888  11.9315052
  83.0243073   2.6270921   0.6108950  83.0465012   1.6986189   0.8425775
  82.7544174   2.6384215  -0.3073991  76.7708206  24.0319309  30.6120529
  76.1928101  23.9921932  29.8501110  76.2251511  23.7396011  31.3421345
  21.0622349  34.4870682  70.6884232  21.4741402  33.6230392  70.6922302
  20.8912678  34.6668243  69.7639236  25.7713127  63.7595215  85.6616135
  25.6682529  64.4345093  84.9907990  25.9174156  62.9521828  85.1685791
  84.0630188  17.1039810   0.8540503  83.4564056  17.4547253   1.5061496
  83.6939163  16.2533054   0.6166747  40.2439766  16.5179863   5.1731744
  39.4533806  17.0152988   4.9637346  40.9102745  16.8668785   4.5810962
  17.8099594  63.5220222  60.2717819  18.1278114  62.8879700  60.9145699
  18.4157410  64.2596970  60.3432121  61.0145874  71.1251907   8.6724920
  61.8255463  70.6327972   8.7994719  61.2214851  71.7530060   7.9801960
  64.7220078  19.9137554  82.7859192  63.8290253  20.0738316  82.4806442
  65.2024994  20.7064037  82.5470276  61.3861389  40.1833382   4.6068492
  60.8799362  40.9772339   4.4344487  62.2515526  40.3670006   4.2413917
  53.2264061  56.5721550  58.2492371  53.6467590  56.2010193  59.0249901
  52.3188858  56.7191200  58.5157661   5.0798798  65.4196854  64.9437943
   6.0365887  65.3904724  64.9345093   4.8232932  64.6867218  65.5034027
  21.4820690  45.8359642   5.4460368  21.2024136  45.7324104   6.3555970
  21.0617199  45.1117592   4.9822869  64.5709076  59.5433884  65.5088730
  63.6454659  59.4669914  65.2765884  64.8574982  60.3536873  65.0875549
  69.2558823  58.7466774  60.3971977  70.1607132  58.5943604  60.6697960
  69.1300201  58.1639290  59.6483383  77.8580246  69.9767303  11.2632227
  77.6743927  69.2852783  11.8991518  78.7948914  70.1478271  11.3592720
  80.4488220  29.8813591  31.0836697  81.0246429  29.7172585  31.8304863
  80.4102402  29.0435562  30.6223373  12.9946680  14.4432726  17.2664127
  12.5940437  13.6029387  17.4890556  13.8018732  14.4674129  17.7802887
  82.0043564  20.1682663  39.6261559  82.6086731  19.8102665  40.2764435
  82.5364838  20.2746258  38.8376427  81.9785156  22.7140026  78.1292801
  81.5460205  21.8631191  78.2012329  81.3189392  23.2854366  77.7360153
  60.6190872  13.1343527   4.6254592  60.2442513  13.5687103   3.8592594
  61.2879524  12.5510731   4.2667985  39.9570389   6.8131433   5.0018606
  39.4231453   6.4828253   5.7244129  40.8371277   6.4839597   5.1843753
  67.7338867  39.1385345   3.2738779  67.3576584  39.2390404   4.1482821
  67.7267838  40.0226097   2.9070158  18.0130901  70.1661072  86.4290009
  17.7653084  70.8505020  87.0506439  18.0469952  70.6120834  85.5827255
  49.7937622  11.6052732  45.4205818  49.8911781  10.8492432  44.8416519
  49.5021362  11.2334948  46.2530289  24.5741024  30.0909252   7.7469053
  24.2324867  29.2269840   7.5163975  23.8161316  30.5646133   8.0894423
  84.5416107  12.8963261  15.0298643  84.9481277  13.3947573  15.7387667
  84.2276382  12.0954180  15.4496269  56.8076248   6.9082384  71.0255203
  56.0080948   7.1935120  70.5832520  57.2272949   6.3149414  70.4025421
  32.3804321  43.8236504   3.3968673  31.7325516  43.1226578   3.3254933
  31.9456921  44.4995613   3.9168482  17.7032585  12.7839813   1.2339579
  18.3706608  12.3275433   0.7216389  18.1872959  13.4571552   1.7122637
  40.7188606  46.5468712  15.2640715  41.2028465  46.2088165  16.0175362
  41.3962593  46.7796211  14.6290989  67.8536072  18.3016739  26.5466766
  67.2609863  17.6055298  26.2631054  67.6014481  18.4763088  27.4534035
  73.9243164  51.2731400  47.7820358  74.4323959  51.6357079  47.0563431
  73.0528717  51.1260605  47.4143448  40.5723724  13.9198809   5.6647520
  40.5760880  14.8707037   5.5545073  39.8918304  13.6120176   5.0661545
  42.8899460  54.7150383  62.2066345  43.7127380  54.6938591  61.7179680
  43.1005020  54.3098068  63.0478745  14.1701384  69.9112701  49.9555168
  13.7447586  69.2808762  49.3742371  14.9402437  70.2044144  49.4684448
  48.0421600  66.2208557  23.3952427  47.6248627  65.8550034  22.6153412
  48.9673309  65.9943619  23.3004208  85.2970276  26.0248356  48.9813690
  86.1612091  26.0112362  49.3927498  84.7270737  26.4303646  49.6347656
  57.2922211  33.1633644  34.0759125  57.8604851  32.4288063  33.8441162
  56.4436340  32.7607689  34.2604256  64.8482437  27.1306915  63.9667130
  65.0938263  26.5555344  64.6913605  63.9185486  27.3097591  64.1075287
  56.0293846  63.5423927  26.3896465  55.1930923  63.9782829  26.5534878
  56.1736908  63.0014648  27.1660519  75.8701477  16.6275101  68.1392593
  75.2827530  15.8796186  68.2481613  75.3418732  17.2825375  67.6830902
  54.6955681   1.0225307  22.0510006  55.2770844   1.0770577  21.2926464
  55.2438774   1.2796907  22.7922554  10.2729187  54.5783691   5.8650470
  11.1427650  54.3100510   6.1610255   9.8143187  54.8302650   6.6665878
   4.6392655  38.8601761  88.3554764   3.7061369  38.6853790  88.4777451
   5.0767312  38.2559738  88.9553070  46.6543617  63.3066177  44.7371864
  46.3121567  63.9682236  44.1360168  45.9510078  62.6613274  44.8087502
  16.6476650  57.2837257  44.0026894  15.9434395  57.4675789  43.3810005
  17.4358940  57.2289581  43.4623871  61.5322189  11.3207588  36.3939781
  61.1744728  11.4064093  37.2776718  61.7401505  10.3902969  36.3089066
  39.3206902   4.1070585   8.4106503  39.4342804   3.5835576   7.6173811
  39.4164963   5.0126457   8.1157541  70.6079178  16.0366726  60.2047195
  71.4898529  15.7154608  60.0170059  70.5211945  15.9571629  61.1546631
  32.9627342  67.6405334  43.3346939  32.3851776  68.0968094  43.9466400
  33.0278854  68.2291412  42.5826759  20.5405464  52.3682518   8.9811325
  20.5164986  51.6806755   8.3156309  20.4783478  53.1843147   8.4847403
  67.5134506   2.6363778  79.3233032  67.7756958   2.9141765  78.4456406
  66.7002411   3.1122062  79.4921417  48.8197060  45.0087471  35.6991158
  48.2113037  44.5000687  36.2351418  49.3732643  44.3520699  35.2765350
  15.5267849  58.7929192  22.5422077  15.8519878  59.2517967  21.7676697
  16.1423149  58.0709076  22.6688881  65.2427292   1.3053626  38.9813423
  65.6498108   0.6665625  39.5665359  64.3093033   1.2589424  39.1882210
   0.8981981  47.2416077  11.8308258   1.6994516  47.0097542  12.3003654
   1.0146899  48.1628990  11.5986977  72.1878738  59.2522545  57.1985970
  72.9825058  58.7186012  57.1972313  71.4747772  58.6198044  57.2865295
  45.5614357  47.8782043  64.2992935  45.1551933  47.7152138  65.1505432
  45.1512375  47.2428246  63.7125511  29.6143951  70.6247559  21.6465912
  29.3107433  69.7921448  22.0082302  30.2881298  70.3790283  21.0126095
  68.5598679  44.3190308  30.6103973  68.1408310  45.0801430  30.2087097
  67.9007645  43.6269341  30.5573349  55.0413322  35.2114029  66.5921478
  54.7071266  34.5842819  67.2334442  54.2589455  35.5445824  66.1527252
  69.8233109  23.0568905  87.3035126  69.2811127  22.5054092  87.8675385
  69.1995468  23.4895172  86.7204285  16.4726448   6.1897640  58.1008873
  17.3391438   6.5805440  57.9881935  16.5300617   5.3463135  57.6519699
   2.1719878   3.7245884  75.6849899   2.8470259   3.4965529  75.0458069
   2.5083537   4.5085044  76.1192322  30.2465057   4.0114431   0.2997001
  29.3839989   4.4255223   0.2705029  30.8641453   4.7393584   0.2297475
  44.5098495  15.0662394  84.6511612  45.0066071  14.4834394  85.2254486
  43.6034393  14.9772243  84.9456635   7.8872814  63.2477684  86.1703110
   7.2492785  62.5363464  86.2256393   8.0304050  63.5123482  87.0790176
   3.2346554  49.8092499   1.7757865   3.5500455  49.1490440   2.3929455
   2.5029275  50.2294273   2.2277348  34.8413849  66.6914597  33.6661263
  34.6615524  67.3151932  34.3695831  35.2818947  67.2101288  32.9929504
  72.3909531  16.0383587   3.9985025  73.2765656  16.0124855   4.3608060
  71.9476624  15.2887516   4.3957582  33.1453133  65.9805450  24.1602154
  32.4911346  65.3055420  24.3409119  32.6647797  66.8052292  24.2324505
  51.0063553  67.1060333  63.0634041  50.4193764  67.1767578  63.8161888
  50.7592812  67.8374176  62.4974861  41.7849655  68.7394638  25.1206627
  41.6614990  68.1683731  24.3624802  42.2539482  69.4988022  24.7747059
  27.4535751  34.3343658  70.3951645  26.6561203  34.2562790  70.9188080
  27.1543198  34.2535172  69.4895477   4.8470354   2.3151433  65.4595947
   4.3700757   3.0857856  65.7675781   4.1672783   1.6599000  65.3020554
  36.2187233  37.6364899  89.0198746  36.0437927  36.7711792  89.3898392
  35.3809357  38.0957603  89.0782547   7.7319384  46.1756592  64.9847412
   6.8919120  45.8883858  65.3425980   7.8508458  45.6448708  64.1971207
  74.5772476   2.3455429  22.8501186  74.1765289   2.0625978  22.0281696
  75.5002289   2.4776561  22.6335888  10.0415487  49.8540878  38.2235031
   9.4988308  49.6491585  38.9848785   9.4147539  50.0826645  37.5371246
  28.1458874  65.4061203  64.2847519  27.5969620  66.0975189  63.9147758
  28.6971893  65.1220703  63.5556374  42.5093269  54.8048210  42.8421021
  42.3082924  55.2344856  43.6734886  41.7061958  54.8896904  42.3282814
  70.8515778  29.2642746  29.4493523  71.3614502  28.7582455  30.0819626
  70.8232422  28.7120285  28.6680374   1.3128310  41.2962341  40.9511223
   0.9775761  42.1248398  40.6087074   1.1572866  41.3463669  41.8942680
  63.3133926  40.9161873  57.6578293  62.9223824  41.7740707  57.8232765
  64.1668320  40.9546661  58.0895691  42.3014526  45.1096992  41.1355095
  41.7450867  45.0812798  40.3571243  41.8150368  45.6502151  41.7579842
  13.2089109  55.3022423  53.3268394  13.8382568  55.9618111  53.6185989
  13.4164019  55.1655731  52.4024467  65.3930969   1.5441594  85.7723160
  65.6295547   2.2497711  85.1702881  65.6200180   1.8822891  86.6385727
  64.8899994   8.0155783  67.1429062  64.5209351   8.5619631  67.8367996
  64.8358688   7.1236396  67.4860458  85.6458588  22.3034668  59.6892776
  84.9777985  21.7211266  60.0509605  86.3735733  21.7233200  59.4654655
  82.1961746  52.0531578  50.6599884  82.5476074  52.7590523  51.2026138
  82.4071198  52.3127747  49.7631416  41.8009415  41.8247871  75.6609726
  41.6292267  41.9722176  76.5910339  41.7262802  42.6922112  75.2631912
  42.7681618  66.2634659  17.4843102  41.8249054  66.1708755  17.6181927
  43.0607758  66.8115158  18.2124901  57.5776672  25.3827419  62.5173645
  56.9546623  24.6767788  62.6897278  57.0615768  26.0539036  62.0707970
   6.7422171  53.8051033  31.5703125   6.3611703  52.9385109  31.4287071
   7.6870251  53.6521187  31.5831757   7.1696701   1.2458174  72.7605286
   7.3698125   0.3429545  72.5135193   7.6127863   1.3682780  73.6000977
  64.5742416  51.8288345  29.8354702  63.6924171  51.6060333  30.1337719
  64.4792709  52.6906281  29.4298573  68.1162415  54.0153847  40.0828247
  68.0725174  54.9500389  40.2846642  67.2083054  53.7165947  40.1339111
  74.6197281  29.6843090   9.4022722  74.1387253  29.7974701  10.2220697
  73.9643478  29.8241653   8.7187853   5.3773546  39.2563591   4.1312265
   5.2114882  38.5294266   4.7314672   4.5248756  39.6785240   4.0249820
  83.1610031  60.4576073  87.9715042  82.7903061  60.5540466  87.0942841
  82.4258728  60.6233101  88.5617218  37.6502991  31.1475925  54.7134056
  37.6331367  30.2104111  54.5194244  37.6035347  31.1954384  55.6682625
  38.6301956  46.7795639  72.5951614  39.1368752  46.0539360  72.2305145
  38.3278198  47.2688675  71.8300552  42.8092384  33.8745842  69.7592010
  43.0938644  34.6163216  69.2252960  43.6058693  33.5751915  70.1973495
   2.7997220  67.4314499  46.2617264   3.2703233  68.2522583  46.4067955
   2.0562027  67.6758270  45.7106476  62.6925087  20.4140015  27.7521877
  63.5272560  20.8600197  27.8953609  62.0700722  20.8878307  28.3038139
  62.6826897  52.0861244  51.4040337  62.2635384  52.9312897  51.2420502
  62.7593040  51.6867790  50.5374985  73.4535446  13.8190403  48.7095566
  72.7465134  13.9140615  49.3477669  74.2046890  13.5269156  49.2259674
  66.9786911   8.2783375  71.3689575  67.6106033   8.9572496  71.1323318
  66.1657791   8.7554111  71.5357285   1.6106272  40.7740898  63.7941360
   1.5704305  41.6865807  64.0804520   0.8768018  40.6811485  63.1866035
   2.5867541  39.9809227  37.4342613   1.7708660  40.3009987  37.0494156
   2.6839325  39.0943909  37.0866280  48.6322212  21.6616764  47.4123611
  48.8369637  21.7623730  46.4827499  47.6767311  21.6136761  47.4433441
   7.7106748  31.6008644  30.2554722   7.5978990  32.5455780  30.3604870
   8.5043898  31.3979092  30.7505054  44.4796524  63.7868729  20.3373089
  43.9373398  64.4261475  20.7993240  45.2848434  64.2611313  20.1300030
  14.5668278   3.2259712  28.1322098  14.5145626   2.2707520  28.0997143
  13.7204523   3.5002797  28.4852448   4.7952404  60.3985634  70.2633972
   5.5550718  60.0452919  69.8007050   4.6931338  59.8291168  71.0259857
  30.6714916  44.3610725  46.9466705  30.0116043  44.7653122  47.5100288
  31.3347359  44.0315208  47.5530815   2.0646086  34.6544876  27.4610348
   1.5258518  35.0290527  26.7641315   1.8372455  33.7246971  27.4660378
   1.1038735  32.4397469  86.3586578   0.5817845  32.6392632  85.5815811
   0.5688326  31.8195152  86.8539124  37.2933960  29.1567574  19.3534451
  37.0880928  29.0475311  20.2819672  36.5290604  28.8060093  18.8962784
  49.4102364  47.0697708  32.7350616  48.7252655  46.9625969  33.3950310
  49.8242035  46.2086372  32.6774826  19.6708374  24.6797600  75.8870392
  18.9213123  24.3396530  76.3756866  19.2987232  25.3494167  75.3131790
  80.3812103   1.9815807  56.8055840  80.5972748   1.0499877  56.7645645
  81.1973877   2.4269838  56.5782089  66.4114151  29.3552628  45.5273857
  66.7558517  30.1237564  45.0723953  66.0473480  28.8080921  44.8314743
  33.3316879  70.3003540  67.5797043  33.1669159  69.5485306  68.1487732
  32.4604836  70.6337814  67.3650818  74.7798462  25.3783150  62.2998848
  74.1456070  25.8852539  62.8068275  74.6943359  25.7121181  61.4068604
  40.8487511  33.5882988  78.8934250  40.8882637  32.9036293  78.2256622
  40.0461845  33.4017258  79.3805618  19.9216919  67.7427597  54.7194099
  20.1438103  67.0156631  55.3009911  19.1260529  67.4562912  54.2709389
  85.7757568   4.4334698  38.4341660  85.0588837   4.9788775  38.1103477
  85.3886261   3.5638094  38.5344238  33.2588272  53.6576004  73.8875580
  32.7928619  54.3530579  73.4233932  32.9762535  53.7461357  74.7977982
  84.7942810  56.0426674  18.1042938  85.3251419  56.8379517  18.0602341
  85.0374298  55.5487061  17.3212776  79.7488480  47.4391518  13.8710756
  80.0200348  47.9117432  14.6580610  79.0187073  46.8917847  14.1600590
   2.7372944  40.9868088  20.0706043   2.5740764  40.1600647  19.6166325
   2.4280190  41.6587601  19.4630985  34.1782379  43.2983704  80.5428848
  34.1603432  42.7039070  79.7928696  33.7911530  44.1099129  80.2145691
  18.6333199  70.1378632  55.1211166  18.8639736  69.2089844  55.1062317
  19.3097706  70.5611191  54.5924416  54.7322655  36.8640709  44.7003174
  55.3801575  36.8337631  43.9963646  54.6738167  35.9606133  45.0110931
  32.5775223  35.5615044  88.9655991  32.8769073  35.8338547  88.0981674
  33.3248978  35.7278023  89.5400620  46.7240944  60.5344086  26.4729996
  46.2326736  60.0403900  25.8167343  46.1888390  60.4792976  27.2646389
   8.5329304  62.5538750  26.7188988   8.8394566  62.1618462  27.5365715
   7.5930934  62.6786728  26.8506737  81.6513672  32.1209221  43.6274147
  82.3597183  32.7328682  43.4274139  82.0706406  31.2604332  43.6258087
   9.9217615  63.7573776  14.7262821  10.2672777  63.4856720  13.8759718
  10.5749331  63.4558105  15.3576746  22.4381847  30.4378910  24.1840439
  22.2324619  30.2785988  25.1052036  23.3935833  30.3974094  24.1415310
  62.5087585  15.4250994  53.9364357  62.3371582  15.1498375  53.0358734
  62.1716156  14.7086306  54.4742470  14.3182135  29.6691494  75.4991989
  14.9181404  29.8813457  76.2142487  14.8823910  29.5832405  74.7307281
  23.3458767  64.8334198  51.5532494  24.0676651  64.5499496  50.9920883
  23.7171021  64.8409119  52.4354973  22.2711773  57.1982117  20.2282562
  22.2269249  58.0591736  19.8123016  23.2017918  56.9744492  20.2172642
  28.4499893  45.3581123  71.9978256  28.6832428  45.9290314  71.2657928
  28.9888935  45.6690598  72.7252350  79.4537888   0.4387729   8.1976366
  80.1404572  -0.2136174   8.3358412  79.5726395   0.7233237   7.2914710
  81.4520340  55.9408150  86.8702545  80.8409042  55.9750900  86.1343307
  82.2898865  56.2170677  86.4988708   3.8256018  24.6143322  24.6350212
   3.6592770  25.1592674  23.8658581   4.2968750  25.1889629  25.2382908
  79.1436539  53.1538582  66.2590027  79.3051071  52.2861824  65.8884659
  78.1909943  53.2461815  66.2464447  34.9539032  13.6776705  13.0842285
  35.8742905  13.8850050  13.2458858  34.6661301  14.3395920  12.4555168
  70.6616898  12.0398836  85.4010773  70.0942917  12.8103771  85.4262085
  71.5271378  12.3867207  85.1844177  79.6904068  15.5581074   5.3160586
  78.9032211  15.9980526   5.6370215  80.0749588  15.1566067   6.0952554
  30.8206043  68.1785049  67.5135345  30.8971405  69.1250458  67.3933945
  31.5363560  67.9538879  68.1080780  14.9806767  44.6359634  58.6477165
  14.4592791  44.9283524  59.3953018  14.6848412  45.1836052  57.9205284
  60.5378304  59.2410355  75.4117813  60.9800644  59.9641953  74.9671402
  59.7938690  59.0317268  74.8470230  71.6031647   8.8998394  69.9063187
  72.0043335   9.0343113  69.0477066  70.8405609   9.4783411  69.9076309
  36.4436264  61.3427010   7.2311082  36.7653465  62.2439499   7.2528491
  35.5216522  61.4114571   7.4790363  16.8737221  33.9096565  71.2873688
  15.9545155  33.9018517  71.0204773  17.3466282  34.2041931  70.5090103
  65.6541367  61.4422836  39.8566132  64.8487396  61.6747932  40.3186760
  65.5415878  60.5194702  39.6286201  65.7360840  70.7872467  78.6318741
  66.5693665  70.5509949  78.2243576  65.8925629  70.6894379  79.5711136
  57.8205948  43.6783829  82.4516830  57.4653435  43.2222672  83.2145615
  58.2279091  42.9882355  81.9282150  21.5648766   1.4883282  62.3801765
  22.4266853   1.4425663  62.7942085  21.1457253   2.2487929  62.7829628
  85.2372437  42.7878113  62.7336235  85.2210388  42.8614159  63.6878510
  85.0421295  43.6715431  62.4218826   3.2160137   8.4397573   9.1750708
   2.6219137   9.1819191   9.0633879   2.6539814   7.7264838   9.4777136
  -0.0603317  56.4820099  61.3868866   0.5624387  55.8178215  61.0915184
   0.3945658  57.3134346  61.2525940  77.2228851   3.3058965  75.5889664
  77.0738373   3.7675748  76.4141159  76.7082520   2.5026536  75.6675873
  18.0287838  14.8554916  85.9137421  18.0983086  15.1312561  86.8277206
  17.0875874  14.7766333  85.7582932  76.0753860  54.8015938  14.9455137
  76.9037552  54.8644829  14.4700298  75.4449692  55.2601242  14.3900347
  63.3574600   9.4956560  23.7565937  63.6881828   8.6512346  24.0628738
  63.9401131   9.7337923  23.0354576  64.5183868  27.5243149  55.5390167
  65.3750992  27.7911930  55.2057838  63.9391823  27.5751667  54.7786407
   5.1097684  56.2316589  69.5693512   5.8053803  56.5628624  70.1373825
   4.5011263  55.7953262  70.1655045   2.6867716  54.1727219  13.1916866
   2.3166816  54.9681053  13.5746098   2.9840941  54.4413338  12.3223886
   9.3392038  53.6830444  31.2572918   9.1337004  53.4503403  30.3518353
   9.9501886  53.0051460  31.5460434   0.8851631   2.2652791  52.8699188
   0.0595303   1.8079069  53.0292091   1.5187318   1.8183199  53.4312134
  21.4802017  57.7383080   8.3053226  21.1048946  58.0844231   7.4956446
  20.9681396  56.9507637   8.4891758  62.3816338  58.2857323  44.5243378
  62.8461151  57.4499245  44.5680542  62.9222374  58.8305435  43.9523582
  29.4467030  66.0903091  48.0487251  29.3078537  66.9819336  48.3680344
  29.8992558  66.2030106  47.2128258  27.1144485  48.7579498  11.2890329
  26.8304176  47.8537369  11.1550426  27.8739662  48.8579597  10.7151308
  75.1977158  62.6052704  58.9959373  75.3148117  61.8211327  59.5322685
  74.3009720  62.5392456  58.6677284  55.8740959  52.2392006  53.3385963
  56.0443535  51.8764915  54.2078972  56.3120537  53.0903130  53.3442078
  78.3676910  40.4351387   1.9691259  78.6882935  39.8757782   2.6766293
  77.8932648  39.8395042   1.3891541  59.1221619  57.5673409  67.8026276
  59.7979736  56.8919983  67.7441483  58.6841011  57.5421181  66.9519272
  53.9017868  39.3819771   3.7448375  53.1864700  39.9555244   4.0197759
  54.5802917  39.5107574   4.4076176  39.3412399  50.4040985  19.8111401
  39.2925034  49.9578247  20.6565361  38.8356743  51.2074203  19.9348717
  79.6501846  11.4395924  35.2625809  79.6065826  11.6991711  34.3422813
  78.8476639  11.7904606  35.6486855  67.1998596  45.1372566   3.7059274
  66.7265167  44.3621788   4.0083065  68.1024780  44.9925537   3.9897764
  58.1070709  67.6479111  49.9473419  58.5552063  66.9049683  49.5430641
  57.2207031  67.3291855  50.1176262  52.1736031  43.5835876  26.8633900
  52.7929878  43.5344238  26.1352558  52.0346832  44.5212173  26.9967690
  53.2651749  37.8217010  55.9538841  53.4941254  36.9024849  56.0911865
  53.3929100  38.2307701  56.8097916   6.6154609  48.1888885  42.3808517
   5.8091335  48.6963806  42.2885475   6.6577196  47.9737511  43.3126030
  58.3962784  34.0919189  83.6722794  57.5461044  34.4872627  83.8649979
  58.3142204  33.7738190  82.7732162  80.8558273  65.0629959  68.3259125
  80.6807785  65.7467499  67.6793289  80.1313171  65.1303101  68.9478226
  76.5334167  70.7212296  33.5822868  77.3611298  70.4948578  34.0064011
  76.3745651  71.6301727  33.8368874  66.9643555  46.5819855  19.1776161
  66.4880066  46.2151527  19.9224358  67.6745224  45.9603958  19.0178509
  44.2553635  32.8614349  61.2623940  44.4931450  33.3594589  60.4803047
  45.0794334  32.7532845  61.7372055  69.5843124  16.1260681  26.8911324
  70.4018555  16.5014973  26.5641689  69.0463409  16.8845596  27.1180897
  58.6133194  28.6687145  81.4919891  58.4784355  27.9137726  80.9191895
  57.8838844  29.2550850  81.2911758  68.3690338   3.1830642  76.6687241
  69.0164795   3.5214293  76.0502090  67.5425262   3.2053456  76.1864090
  60.4676781  50.5707092  61.3641090  60.9450417  51.3749809  61.5678253
  60.9102974  49.8933983  61.8755493  36.3952103  37.0506973  13.4994755
  36.3562737  36.7113838  14.3936691  36.2684402  37.9945679  13.5957317
  47.3824997  38.7907181   2.4474494  47.6429939  38.7880898   1.5263809
  48.2080765  38.7479248   2.9299672  69.0274811  64.4193802  55.2836952
  68.4358902  65.1332397  55.5217056  69.1007919  63.8934441  56.0800934
   4.1748810  18.9258099  86.7916794   3.3476655  19.0710964  86.3325043
   4.4640059  18.0622578  86.4968643  69.1365051  60.5434189  30.2748985
  69.5465622  59.7834930  30.6879387  69.1296158  61.2131004  30.9587898
  62.7873535  29.7952785   4.3533602  63.2276382  30.6342220   4.2171321
  62.2598267  29.9267826   5.1411762  26.0982094   0.6788179  69.4370422
  26.1339779  -0.1616089  68.9802704  26.0129185   1.3276411  68.7384796
  57.5880280  41.6937141  44.4862061  57.4193344  40.8428917  44.0813904
  57.0494003  41.6934853  45.2774773  49.5634842  66.0511780  82.2684937
  50.3097572  66.6505966  82.2684708  48.8710594  66.5307770  82.7232056
  80.3814087  37.9275017  78.6922531  80.5737991  37.0878906  79.1097107
  79.4818497  37.8379745  78.3775940  28.2995167   0.5409404   3.9439845
  27.7353191   0.9801906   3.3076105  28.5338879  -0.2871121   3.5249012
  17.7539444   2.3236010  68.2318726  17.3768940   2.0550821  69.0697098
  18.5388927   2.8171070  68.4696579  70.5839081  16.8255177  84.3968735
  70.2078629  17.4215851  83.7491608  71.3006516  16.3908691  83.9347076
  47.3783798  54.6552811  56.3452072  47.5570641  54.0112228  55.6600113
  47.8824158  55.4266891  56.0861473  39.5996704  33.3772087  57.8903847
  39.6423416  33.5902290  56.9581642  40.1429901  34.0422630  58.3131561
  70.2142029  35.7763786  30.7664795  70.1410522  36.4522629  30.0926399
  69.3100281  35.5952225  31.0231590  53.1002045  12.1894417  24.3847923
  52.8627586  11.5136490  23.7498474  54.0552864  12.2349281  24.3402882
  63.8637466  31.6491280  69.0462799  64.6239853  31.6100903  69.6265793
  63.1117744  31.6739044  69.6380157  60.9140701  64.2271729  35.0827637
  60.1323586  64.7755203  35.0158653  61.1313362  64.0082550  34.1766167
  52.4515305  70.3364258  70.7775574  52.0177574  69.8800888  71.4985504
  51.7615662  70.8684998  70.3812332  19.0978317  10.9501944  75.2028046
  19.6257763  10.8003969  75.9870682  18.3599739  11.4780645  75.5080109
  69.9492874  12.9341259  13.2694073  70.4323502  12.1078444  13.2575226
  69.0961990  12.7182703  12.8927364   1.0920833  52.8822823  51.8531914
   1.6301901  53.0878410  52.6176643   1.1619313  53.6572685  51.2957458
  72.3376617  43.1964798  70.7678070  72.3991699  43.4561462  71.6870575
  71.5221100  42.6983032  70.7137070  85.1429749  27.1679306  85.7877350
  84.3876343  26.6309586  85.5482559  85.3006516  26.9621487  86.7091599
  31.3331318  55.0584450  23.1197033  31.9206924  55.5077629  22.5121517
  31.4436169  54.1295204  22.9169121  17.2076607  64.6178589  57.3953972
  16.8073215  65.3419724  57.8766594  17.2649670  63.9079170  58.0348778
  75.1914597  16.7518826  41.4504890  76.0712509  16.3985367  41.5821800
  75.1318207  17.4818840  42.0667458  61.6787376  29.5247536  35.8488350
  60.7372246  29.3561058  35.8855324  61.7811432  30.3958645  36.2321243
  77.9137802  39.6026001  70.0463104  78.3067627  38.9839211  69.4306488
  78.2378235  40.4584007  69.7655334  30.4906540  47.2561531  44.3042107
  30.3864384  47.3276176  45.2530327  30.7492275  48.1343994  44.0248337
  22.6294022  48.5334015  24.6871033  22.0970020  47.9630356  24.1326046
  23.4329605  48.0363503  24.8402939  57.6100693   6.5196157  73.7044296
  57.1080132   6.8235149  72.9482498  57.7913780   5.5986032  73.5170975
  30.1825829  26.5821133  11.7349110  29.8458099  26.0953255  10.9826794
  29.8526554  27.4721336  11.6114388  68.2412033  37.9153061  10.7274141
  68.1133194  37.0883064  10.2627058  68.6397018  37.6628799  11.5603065
  56.9345703  68.6839981  26.1155071  56.8441200  67.9015884  25.5715561
  57.5362625  69.2464905  25.6278553  60.3151855  10.2938070  10.7497711
  59.7430229   9.9564753  11.4390240  59.7992744  10.2100201   9.9478712
  37.4030457  37.5653801  10.7772446  36.7584915  36.9473763  11.1219902
  37.1222534  38.4165878  11.1131573  72.3748550   0.5469084  25.6248150
  72.3751068   1.4939885  25.4859962  72.1086273   0.4387414  26.5378647
  26.9277115  33.5624962  19.0658703  27.5967064  34.0306511  18.5663624
  27.4210949  33.0568161  19.7116966  67.9124298  48.7789879   9.7884722
  68.7335358  48.3121681   9.6332531  67.2321320  48.1666527   9.5083361
  10.9187555  32.1575394  21.5964775  11.8459101  32.1649742  21.3586502
  10.9009228  32.4709625  22.5007343  29.7886829  48.4449577  66.0034180
  29.5224571  47.6496773  66.4648132  30.7453232  48.4122391  66.0021133
  63.8728676  10.4593830  48.0879898  64.1189804  10.3614311  47.1681709
  62.9168053  10.5046825  48.0766029  54.9573021  34.1022263  13.8099785
  55.0952759  34.5366707  14.6516752  54.0094299  34.1286507  13.6793385
   6.6435862  66.5195312  59.2581558   6.7843575  65.8481445  59.9257317
   6.7749195  66.0625153  58.4274178  49.5933723  16.2267094  70.6001968
  49.2225685  15.3448734  70.5670471  48.8416634  16.8072491  70.4813004
  15.9591284  15.7430172  67.1352463  16.7708054  15.3121815  67.4031906
  15.4585800  15.8362265  67.9458008  62.1267815   4.9700651   9.4825792
  61.5613747   4.2168617   9.3116016  61.7661133   5.6690230   8.9370422
   5.0545025  55.4598198  17.6794605   4.2344875  55.2795982  17.2197552
   4.9284940  55.0834503  18.5504932  32.3431778  53.1116180  25.8946838
  32.3543053  53.2307625  26.8443737  33.0979919  53.6102524  25.5818768
  20.9585171  22.5307369  84.7307510  20.5012741  22.1030846  84.0066833
  20.5574207  23.3979282  84.7884903  14.6011667  42.4517365  27.9884052
  15.0052462  43.2216377  27.5881462  14.8975353  41.7182503  27.4495220
  63.6638527  26.4051380   9.3458452  64.3330307  25.9347649   8.8486662
  63.5024986  27.2001038   8.8376875  39.0552177  54.5318871  59.8293495
  38.8903999  53.8739014  59.1539841  38.2535629  54.5444145  60.3522491
  35.9582520  56.8253899  65.8489151  35.1321030  57.1644363  65.5043030
  35.9931564  55.9201241  65.5398712  22.6901035   0.1591543  68.3565750
  23.4178600  -0.4522867  68.2436905  22.7618065   0.7568430  67.6123581
  60.3028259   4.3106532  55.3637314  60.4758453   3.4546509  54.9718666
  59.3512268   4.4052353  55.3220177  15.6261425  39.8014908  49.1384659
  14.7852039  40.2025452  48.9188995  15.4511614  39.2983284  49.9337273
  56.9843979  28.5275269  84.8731308  56.4827156  28.0802422  85.5546646
  56.9587326  27.9300537  84.1257324  61.6830902  12.8761997  55.1249390
  61.3745842  12.4510145  55.9251099  62.6179237  12.6732903  55.0910301
   5.2814670   6.4143457  30.3809395   4.9814873   7.2800446  30.6580849
   5.9807887   6.1947660  30.9965401  45.2050552   4.8677444  46.5646324
  45.6248207   4.0076299  46.5493889  44.3426552   4.7066264  46.9474373
  35.3119621  69.8983841  18.1260948  35.8315849  70.7018127  18.0991707
  35.6126328  69.3932495  17.3706665  41.4538002  36.0842781  77.9847183
  41.2780075  35.1716118  77.7558746  40.8653145  36.2650414  78.7176895
  86.6944733   1.3269674  12.7568531  85.8118668   1.2772193  12.3897610
  86.5721664   1.7163365  13.6226845  41.3334961  55.9230423  60.2671204
  41.8057251  55.4858856  60.9757309  40.5219727  55.4236336  60.1763039
  13.6580677  56.7273293  67.9461136  12.9859409  56.0526352  67.8498688
  14.2376070  56.5968666  67.1955490  85.8100586  16.5156021   4.5422487
  86.3027191  16.9275131   3.8324265  85.8133163  15.5830746   4.3263493
  32.9605064  27.8914719  74.4528503  32.9190712  27.1527290  73.8455811
  32.8792915  27.4937725  75.3197250  67.5471115  28.2350674  51.1518555
  67.9889221  27.4226494  50.9048462  67.1471405  28.5466061  50.3399429
  71.2982483  31.8011894  29.0895824  72.1277695  31.8790913  29.5608196
  71.1763763  30.8589191  28.9733868  83.8786011  24.1775780  14.7837763
  84.8175583  24.0157356  14.6920977  83.4772110  23.3125992  14.7005138
  29.4070797  44.2957268  63.5755157  29.3236027  45.1772957  63.2120667
  30.1621971  44.3487015  64.1613693  33.6871605  69.0142822  14.1691923
  33.7178764  68.7520370  13.2491283  33.5799866  68.1929245  14.6489010
  35.4920387   2.8718457  75.6041260  35.3304825   2.1032844  75.0569153
  35.8587151   2.5165806  76.4137955  84.0426102  41.9538727   4.9556613
  84.3048706  41.0423546   4.8268700  83.1163940  41.9054527   5.1923356
  72.3981400  26.5681019  37.2497749  72.5156860  26.0038338  36.4855652
  71.4618607  26.5183887  37.4424706  63.2894287  53.6471367  57.7626343
  62.4345665  53.2541542  57.9387283  63.6272812  53.1590919  57.0117035
  71.6462708  13.6830311  20.6522923  70.8535614  13.9192963  21.1339760
  71.5809708  14.1692581  19.8303738  79.5918961   7.3065391  82.2048721
  78.7332306   7.1920781  81.7976608  79.4715500   7.0067301  83.1059113
  45.9611588  36.2793503  85.5660019  46.9043961  36.3619118  85.4255753
  45.7197876  35.4759598  85.1049881  38.8515320  36.3024788  88.0395889
  38.6557617  35.8970642  88.8843079  38.9909668  35.5644035  87.4462662
  45.2634583  26.3297806  76.1683273  45.4551964  25.9254990  77.0145111
  44.3569450  26.6274166  76.2450027  27.0911579  12.8336325   2.7363584
  27.3806763  13.2231054   3.5614166  27.2713757  13.5050039   2.0783215
  26.2075863  47.0067787  61.5479050  26.7841663  47.6081352  62.0192413
  25.3722134  47.0628662  62.0118408  71.1433640  47.6972504  72.3205032
  71.4578934  46.8278122  72.0727539  70.7548676  47.5736160  73.1865387
  63.6280022  20.3295059  72.1184464  63.1385460  20.4112339  71.2999268
  64.1354675  21.1390781  72.1759262  80.6540298  15.1653862  60.7455139
  80.1723099  14.3486671  60.6145515  80.4305725  15.7000608  59.9836617
  53.1004295   8.7972288  11.8995466  53.6644402   9.5350208  11.6676283
  52.2138062   9.1052551  11.7117920   8.2451897  44.4314270  50.9325829
   7.4892316  44.7500763  50.4394112   8.4395790  45.1337204  51.5532532
  85.6160660  27.2528725  46.1925697  85.2544861  28.1127338  46.4073486
  85.7048264  26.8124523  47.0377808  38.5292625  57.0798416  81.7042084
  37.6798058  56.8810577  82.0980835  39.1607018  56.9282417  82.4074326
  40.9526367   3.9814067  35.9419327  41.0639534   4.9241247  35.8189545
  41.7128983   3.7159479  36.4593964  43.9558945  49.7510796  76.6185074
  44.1896820  50.5941734  76.2302170  43.2164574  49.9488983  77.1932526
  83.3271332   0.1065226   2.4140031  83.5576935   0.7017219   3.1273155
  84.0873489  -0.4685411   2.3267314  77.5975723  51.0522346  28.6569176
  77.2666168  51.8361015  29.0953827  76.9127884  50.8218422  28.0290508
  72.0638657  43.1803741  88.9710312  71.8204117  42.5243530  89.6241760
  71.4722214  43.0179214  88.2363205  82.7441940  66.0505905  82.6965714
  82.4795532  65.2353210  83.1226349  83.6828156  66.1185532  82.8715286
  73.9451141  13.1289167  59.6023941  73.9091644  13.9857197  59.1771545
  74.2201080  12.5288391  58.9091988  67.8759079  47.8530693  39.2801933
  68.5054474  48.5537643  39.4503021  67.8124161  47.3813133  40.1106453
   3.6374319  33.4243507  21.9958687   3.1995060  32.6034012  22.2205677
   3.7084451  33.8932991  22.8272991  58.0790749  70.5698318   3.2174714
  58.6902809  69.8940277   2.9243045  58.3143158  71.3438110   2.7057576
  32.9463348  55.1786079  15.9862432  32.4235458  54.6725197  16.6081715
  32.3768196  55.2832756  15.2240562  85.5024948  28.9152393  31.0529938
  86.2451248  28.3145885  30.9900570  85.0895767  28.6988049  31.8889847
  22.5104065  56.7338867  43.8512001  23.2415352  56.3015709  44.2925453
  22.0837631  57.2448616  44.5390320  30.6330643  57.6949463  57.6110725
  30.6585712  58.4884605  58.1457825  30.1933022  57.9636955  56.8044662
  26.3983250   9.1404991  79.4064102  26.0316620   9.0683794  80.2876511
  27.2020054   9.6473923  79.5221329  35.7082634  11.5381842  76.4255600
  35.3517570  12.3122425  75.9897003  36.0140457  11.8602848  77.2734833
  83.1021576  61.4719048  36.4106216  82.5673828  61.2145767  35.6596031
  83.9013062  60.9520340  36.3249702  37.3935471  46.8763924  87.9125290
  37.4756699  46.9362335  88.8643188  38.2789154  46.6777153  87.6077576
   8.8908854  14.2737455  26.5671883   8.9866514  15.0932846  27.0523834
   8.9756393  13.5904350  27.2321205  73.4042511   0.4088627  21.2042942
  73.9015656  -0.2260477  20.6887360  72.9147797  -0.1229940  21.8318138
  23.2798710  27.4596157  64.5032272  24.2343674  27.5314903  64.5024490
  23.0359573  27.4989719  63.5784683  41.1337318  12.4393148   8.0951939
  41.2213898  12.9020729   7.2618856  41.6295013  11.6296968   7.9728637
  79.6982727  71.0722427  17.3345547  79.8867035  71.2397385  18.2579575
  78.8961334  70.5500412  17.3446808  27.6496944  65.2589951  51.8997002
  26.7503433  65.1409149  51.5939941  28.1911983  64.9133148  51.1901169
  65.0721512  41.8836365  27.7357483  64.5737991  41.0858688  27.9130688
  64.5768585  42.5772552  28.1714191  45.9570503  19.9470043  87.7257538
  45.0424500  19.6872215  87.6150970  46.1686172  20.4259739  86.9244614
  63.4791222  61.9710159  41.5539360  63.4465027  62.8118744  42.0101433
  62.7354660  61.9962082  40.9517937  31.2980175  67.3839645  37.9915466
  30.8651924  66.5754852  37.7172165  30.6069527  67.8942261  38.4138031
  10.5131216  40.0254288  63.0115280  10.8620119  40.0656624  62.1210861
  10.5045977  39.0920296  63.2234840  18.4821301  67.5828400  26.0615768
  18.3945084  68.5122147  26.2732697  19.3895531  67.3716888  26.2811871
  39.5611076  19.5658321   3.1162660  39.4089813  18.6324978   3.2645075
  38.7368279  19.8878784   2.7514641  47.8295212  36.5536652  64.6382294
  48.4695320  37.0772781  64.1561050  48.0966301  35.6474876  64.4841766
  11.7136936  58.4127350  57.6248741  11.0393095  59.0500793  57.8598938
  11.3959961  57.5843658  57.9841805  76.8490982  12.8782454   3.9440179
  76.0359802  13.3595743   3.7910817  76.8128052  12.6345062   4.8689532
  57.5698242  12.3277788  53.2407265  57.0910492  13.0618219  52.8557739
  57.8384476  12.6431856  54.1036224   7.7865529  47.1266670  73.8790054
   8.6069155  47.6027679  74.0077133   7.2927394  47.2781639  74.6848755
  56.8906517  43.4632263  23.2761440  57.8209686  43.5261879  23.0598621
  56.6471443  42.5711174  23.0290108  15.1388922  16.6062298  53.6549873
  15.3143435  16.0504913  54.4143333  14.4764013  17.2262096  53.9598846
  21.7258148  35.0859222  57.7799301  21.3596611  34.4927444  57.1239548
  22.5713615  34.6991158  58.0072327  42.5569267  62.8497620  35.6015625
  41.6989441  62.7989693  36.0228920  42.4659386  63.5512695  34.9567032
  27.0240002  27.9117546  85.8424072  27.5252666  28.7184277  85.7230682
  27.0589314  27.7451954  86.7843552  43.4592590  37.0189514  68.5899277
  42.5630531  37.0524254  68.2553711  43.7257729  37.9361343  68.6530228
  74.6261368  61.2343178  13.2041912  74.0045929  61.9617767  13.2309885
  74.3795929  60.6812134  13.9454927  35.1878128  32.7997704  40.2787476
  35.5363617  33.4574051  39.6768684  34.2975044  33.0961037  40.4678688
  19.8128033  17.8002033  28.5925522  20.5299873  17.8409500  27.9599266
  19.0201340  17.8740482  28.0610867  11.4653511  41.7863121  11.0417414
  11.3696346  42.6331635  10.6059513  11.9384813  41.2442131  10.4104671
  42.2022591  39.0953674  36.8947945  42.2820053  39.7390366  36.1908340
  42.0871201  38.2593727  36.4430275  28.0994968  69.6000519  12.0256214
  27.6755486  69.1977081  12.7836571  28.4212704  70.4412994  12.3496523
  59.4342422  15.6522064  72.2414169  60.0919609  15.9463997  72.8715668
  58.6639862  16.1877403  72.4315262  27.3129444  14.9122171   0.8425998
  26.5767460  15.4318638   0.5197810  27.8271866  15.5256424   1.3674768
  82.6006775  14.5871410  45.5598297  82.5503387  15.1257200  44.7701263
  81.6911011  14.4895477  45.8415680  34.2305298  36.2977982  41.8428383
  34.3492012  36.7090569  40.9866753  34.1247215  35.3665047  41.6486053
  33.7714958  18.6850300  68.3896408  33.8012009  19.1254044  69.2390060
  34.5015793  18.0665073  68.4148788  62.1883240  68.3199539  70.1330795
  61.3534508  68.4397354  70.5857086  61.9990921  68.5367432  69.2201538
  33.9822159  15.1541119  74.9615250  34.5862961  15.7572098  75.3946533
  33.4186897  14.8328943  75.6654358  68.8052292  14.1506262  78.2726669
  69.4313507  14.3360701  78.9725418  68.9344101  14.8588820  77.6418610
  44.2512970  27.5874462  58.9931183  45.0093269  27.2261314  59.4525490
  43.5642700  26.9316139  59.1118851  26.3633060  67.4227295  88.3968964
  25.6629162  68.0528717  88.2277679  25.9128609  66.5833206  88.4903336
  37.2587242  56.3064423  29.1899433  38.0820236  56.1728935  29.6595993
  36.6347771  55.7305183  29.6317978  14.2400341  16.6870556  69.1788940
  13.3404236  16.6612949  68.8529053  14.1615324  17.0213394  70.0723877
  42.4949455  37.4076309  75.5921249  43.2369270  38.0091743  75.6541214
  42.1488266  37.3615875  76.4833679  21.6236706  18.2515030  81.7766190
  21.9169598  17.4171143  82.1426926  20.8550491  18.0261574  81.2525330
  27.9542885  50.6490593  20.7671127  28.7317047  51.1883659  20.6221790
  28.1912766  50.0789032  21.4985428  76.9217834  63.4863167  33.3787117
  77.2151566  64.3025970  32.9739189  75.9662552  63.5399628  33.3607407
   4.5060744   9.3908987  82.8423157   3.6203830   9.7411308  82.7468185
   5.0658383  10.0327148  82.4053192  29.7763577  56.7146606  40.1409340
  28.8904171  56.6104279  39.7938385  29.8143559  57.6261406  40.4307404
   2.3033824  53.2801132  84.9594193   2.3291981  53.7512245  85.7922592
   1.3714623  53.1379547  84.7934494  76.4554977  21.0309410  78.8327866
  75.8376770  21.3372860  78.1689453  77.0729980  21.7547913  78.9374847
   0.7457469  29.7965851  14.6492996   0.7105544  30.7479248  14.7490253
   0.1942295  29.6149654  13.8883305  36.4606934  61.2529411  77.0906525
  37.0985985  61.2653656  77.8042068  36.9273376  61.6315765  76.3455963
  78.7957458  12.7371492  12.8951597  79.1797867  12.3170433  12.1255770
  77.9497528  12.3036833  13.0075169  70.3451538  45.7854805   1.5837722
  70.1273727  45.3099403   0.7821085  70.2715759  46.7087364   1.3420773
  23.7226734  65.8397446   3.7880797  23.4998856  65.6389465   2.8790820
  24.6531792  65.6268539   3.8592622  42.9365349  35.7788200  83.3655167
  42.5574417  35.6047401  82.5039978  43.8803787  35.6878052  83.2347031
  66.3914948  42.3067970  11.7371407  66.9405746  41.8145790  11.1268406
  66.2415466  41.7031708  12.4647245  37.7533455  27.8431797  65.4994659
  37.9510651  28.3913479  66.2588425  36.8737450  27.5062504  65.6697922
  52.1284828  12.8915462  71.7685699  52.6472282  12.5245066  72.4844055
  52.7117043  13.5249949  71.3504486  14.0953932  13.8431416  76.8109741
  13.1714211  13.9108982  77.0516281  14.1470861  13.0479288  76.2806931
  63.8102608   0.8826432  83.0089874  64.7436371   1.0599273  82.8923187
  63.6878891   0.8583025  83.9580231  43.9991760   7.7352152  79.9739914
  43.4949989   7.5289092  80.7610626  43.3668633   8.1482544  79.3859329
  25.9160957  28.0533371  63.8728943  26.1154232  27.5577621  64.6671906
  26.7182560  28.0050869  63.3528557   3.5825038  70.4354935  63.8935814
   3.4801137  71.2155228  64.4388351   2.7382858  69.9884338  63.9541359
  56.5611343  25.6940460  24.7308578  57.0621834  24.8920803  24.5824318
  56.7621880  25.9383373  25.6342564  58.8847771   1.0090473  19.6169548
  59.4890823   0.3418008  19.2916431  59.2172623   1.2295538  20.4870472
  86.2234268  51.8186417  17.9131985  86.5323334  52.5672379  17.4028950
  87.0230179  51.3973694  18.2284985  23.0294037   5.5665498  11.4593143
  22.7345638   6.4502554  11.2393923  22.2279472   5.0434055  11.4741201
  62.6273613  34.5141945  15.2717209  62.0229874  34.9911385  14.7029572
  62.0957680  33.8161659  15.6543388  24.1877556  39.3450890  68.9456024
  24.1537952  38.4441605  69.2671738  25.0342026  39.4098053  68.5033646
   5.7794924  68.7652817  61.6388512   6.1394930  68.1076736  62.2339821
   4.8426418  68.5716629  61.6063881  43.4442215   4.5762696  50.9106216
  43.5061913   5.4864464  50.6208496  44.3484383   4.3211040  51.0936890
  16.8011684  42.9220963  49.2604942  16.8840904  43.8306923  49.5499954
  15.8647289  42.7346497  49.3251076  48.1722412  37.9122047  66.9028702
  48.0090523  37.2416611  67.5661697  47.7415161  37.5798683  66.1153030
  54.6472588  26.7631321  12.9541893  55.2149239  26.1252575  13.3867464
  55.2484856  27.4218426  12.6065388   8.7529783   6.5336733  26.5702839
   8.3329496   7.3524780  26.3069057   9.2375088   6.7577915  27.3647842
  37.4106636  70.6234589   8.1221228  36.7516518  69.9484558   8.2843084
  37.6154175  70.9717102   8.9898968  71.1055756  53.4270668  22.5602894
  71.6624298  54.1644440  22.3104591  71.1820068  53.3813362  23.5133362
  13.4682570  12.1764860  85.2775497  13.8072443  13.0708532  85.2397842
  13.7018824  11.7958450  84.4309311  61.4082413  57.6276016  87.7863083
  61.6403084  58.4439201  87.3435822  60.7047501  57.8727150  88.3873444
  52.0923729  63.7089043  82.0037537  52.8366241  63.1073341  81.9829865
  51.9262047  63.9161644  81.0841522  83.8940659  19.6219769  32.8075333
  83.1562500  20.1247845  33.1525612  83.6312408  18.7076797  32.9134216
  76.2327576  17.6703262  83.1028595  76.9279709  18.1169758  82.6197205
  75.6664581  17.3038654  82.4237137  13.6685104  48.8857117  46.2875595
  14.6103792  48.7271500  46.2245369  13.5371447  49.1950264  47.1838303
  79.0360641  22.9899807  29.2192192  79.5270615  22.4347954  29.8249607
  78.3088608  23.3291931  29.7410927  49.3075829  28.1199245   0.4032449
  48.8706360  27.4082432  -0.0645347  49.7326355  27.6924057   1.1467441
  56.5374031  38.8293190  34.4786491  55.9562302  38.0871277  34.6448517
  57.4191437  38.4685555  34.5714836  -0.1983684  32.6616173  43.1576729
   0.5203866  33.2427330  42.9088135   0.2273553  31.9362106  43.6145897
  39.4829254  13.8184099  82.0119553  39.1729698  12.9144745  81.9566574
  38.8059540  14.2735338  82.5127487  43.1226349  63.8609009  39.6705513
  42.4514771  64.2675629  40.2186470  43.6452332  63.3389931  40.2794342
  11.9499283  23.9172935  79.3764343  12.6590967  24.5294418  79.5728683
  12.3473368  23.0517406  79.4719238  29.5112419  47.0492668  84.0087128
  29.5808201  47.9079285  84.4259644  29.4995956  47.2390747  83.0705948
  71.3312912   8.8602257  64.8417664  70.6774521   9.0521278  64.1695328
  72.1435013   8.7239990  64.3539276  76.6861877  36.5087166  51.0983543
  77.5513992  36.5283432  51.5073280  76.8359985  36.8206215  50.2058830
  47.2688446  58.9789467  35.7344208  47.8816185  59.1285629  35.0144539
  47.8247337  58.9007416  36.5097275  10.8631964  21.3507996  71.3518829
  11.0236826  20.9744091  72.2172165  11.3922272  22.1483574  71.3357391
  17.8814030  70.3365784  61.6945953  18.6934509  70.1946106  62.1810684
  17.7623081  69.5333786  61.1877213  36.7360001  24.5215187  23.4695206
  36.6472778  25.4529533  23.6714821  36.1870689  24.0822468  24.1190968
  56.3676224  49.3418465  70.7522049  56.9952469  49.4061470  71.4720535
  55.9908752  48.4663391  70.8404083   8.8394318  52.6236076   1.7637268
   9.0186462  53.3834801   2.3175352   9.4756985  51.9663887   2.0456183
  53.7015419  20.6793652  58.0744896  54.5349045  20.2486153  57.8842468
  53.0393181  20.0894985  57.7142792  23.7228947  55.8813019   0.7516336
  23.2153683  56.6902390   0.6863058  24.1051540  55.7674522  -0.1185087
  18.4422436  59.4415283  23.0382595  19.0821018  60.0323257  23.4354610
  17.8521290  60.0185432  22.5534401  40.5626869  67.1049423  80.6634445
  41.4496574  67.1100159  81.0232925  40.1121330  66.4123001  81.1466446
  47.3748436  59.7045059   9.2699041  46.9850197  59.0139961   9.8060646
  47.1265068  59.4803505   8.3730669   7.9559398  36.6205940  85.9213181
   8.3722506  37.2793541  86.4771500   7.8175101  37.0655327  85.0851974
   6.5748725  13.6994524  86.3450775   7.4977775  13.7882347  86.5829773
   6.1120839  13.6831656  87.1828079  28.0190792  43.9580460  65.9033966
  28.3530064  43.1145058  66.2086182  28.2069817  43.9646111  64.9648438
  62.7925644  -0.0462088  30.4815960  63.6091537  -0.2361348  30.9434872
  62.6070251   0.8694676  30.6897850  65.4362106  18.9107418  45.3117790
  64.9114990  18.4003410  44.6950150  66.2651672  19.0580063  44.8563957
  27.7298546  59.4321556  70.0968094  26.7758942  59.5073891  70.0737686
  28.0445385  60.3136826  69.8965225  22.8521919  46.8955612  44.4289703
  23.3970089  47.2499695  43.7262611  22.9179173  45.9460487  44.3273010
  62.4401321  54.6802864  50.2936058  63.0458603  55.0403824  50.9414139
  61.6537437  55.2199097  50.3750534  78.8165207  42.5913353   0.5344682
  78.6142197  41.8193703   1.0630299  78.3518219  43.3070297   0.9681407
  45.4693336  58.9128761  75.8890991  45.1402893  59.8056641  75.9934616
  45.2712631  58.4856644  76.7224579  62.7263603  59.1942062  47.9935417
  61.8792725  58.7575760  48.0831718  63.0147667  58.9777336  47.1068687
  32.0239830  15.9469681  10.8495817  31.6039085  15.2103281  11.2935734
  32.9556503  15.8437290  11.0434132  78.5765610  19.4199257  54.5458717
  79.5053635  19.1926804  54.5021706  78.4808655  20.1542950  53.9394226
  37.5455437  58.0310059  46.1397972  37.3082123  57.9078255  45.2207031
  37.6942902  57.1448135  46.4696007  73.7256927  68.2808151  27.8297634
  73.1281052  68.5452194  28.5291977  73.8393936  67.3387146  27.9552746
  58.1267395  15.1477776  87.5569153  57.8786392  15.8247452  88.1865158
  57.3765411  14.5536423  87.5359955  45.0960808  63.1955070  81.1307678
  45.0589867  62.2671623  80.9004974  45.4702225  63.6191330  80.3582458
  42.3636627  33.9239044  62.7532387  43.0597610  33.4797249  62.2691078
  42.7777596  34.7162323  63.0952530  71.4418030  56.7936249  83.1530304
  71.0475540  56.7119713  84.0214386  71.5426636  55.8912849  82.8499756
  61.5908356  16.3445530  32.4297752  61.6420021  17.2123299  32.8304977
  61.6801872  15.7362967  33.1634445  23.5249062  36.4429893  81.6315155
  23.9689445  35.6115417  81.7981186  22.6845646  36.1929703  81.2473984
  60.7794113  27.7023849  18.9729691  60.2679977  27.6616783  19.7810745
  61.5601273  27.1800556  19.1570339  32.2576180  50.5489273  51.2660751
  31.4854641  50.4609222  51.8248787  32.9916534  50.3115158  51.8326950
  85.6964111  23.6601734  64.6918106  84.9902039  23.5245361  65.3235550
  86.4935608  23.4357281  65.1718292  77.1984253  14.8675995   9.5019474
  78.0604477  15.1055708   9.8433046  76.8594284  15.6778975   9.1215191
  86.6034698  60.2301331  54.3736839  86.6942291  61.1309128  54.6844788
  85.9891891  60.2899551  53.6420326  79.4467850  24.1936035  58.9237785
  79.5924072  23.2530022  58.8223267  79.5922470  24.3593979  59.8552208
  23.3029213  60.8472023   1.7745982  24.1682701  61.2269783   1.6223738
  22.6914024  61.5014343   1.4365817  13.2775431  59.2854805  33.8677979
  14.0388145  59.2519951  34.4470863  13.5510826  59.8505516  33.1452293
  10.1863031  55.6425781  52.9639091  10.8688726  55.2426643  52.4250221
  10.0043058  54.9917526  53.6417999  80.2242355  15.5427055  36.8598099
  80.9580917  14.9293909  36.8206215  80.3695450  16.0389023  37.6653595
  50.4612427  47.0198479  88.7641144  51.1421432  47.0434723  89.4364624
  49.9565010  47.8206558  88.9061584  52.2033386   7.0134897  70.0465088
  51.8697395   7.8488503  69.7192230  51.5945129   6.7689791  70.7434921
  42.2923584  17.7853909  18.6547508  41.7188759  17.1344337  19.0592346
  43.1766472  17.4494457  18.8010502   7.0195470   1.1680386   3.1638637
   6.7343450   2.0605445   3.3596315   7.2586308   0.8008922   4.0149069
  51.9707108  44.8615341  75.7704086  51.4486122  44.8962822  76.5719299
  52.8304367  45.1927414  76.0300293  62.2032433  45.4241676  89.1670380
  62.3067665  44.5999031  89.6425400  62.8409233  45.3716965  88.4551086
  14.0429983  52.8511276  33.2701149  14.9708290  53.0491943  33.3971329
  13.7456074  52.5387497  34.1246376  17.7468929  49.3888626  77.5499802
  18.0990467  48.8640976  78.2688980  18.4827251  49.4930840  76.9467239
  55.0615692  12.9716578  86.4708328  55.9184990  12.6363459  86.2072601
  54.7084618  12.2970400  87.0508652  61.6246414  67.3060303  79.8179779
  61.9647408  67.1222916  80.6936493  61.9024429  66.5567551  79.2910538
  61.2310181  44.0493698  81.8311462  60.8017998  44.5981789  81.1747818
  61.2016678  43.1668282  81.4617004  19.5510807  51.8283653   1.8466738
  19.3417625  52.2248268   2.6923902  18.7056007  51.7439194   1.4059182
  80.3495865  25.4415264  61.5963211  81.1045456  24.9576492  61.9311867
  80.6932373  25.9370613  60.8529625  35.1671181  29.3390503   9.0364122
  35.3888245  28.5068302   9.4541302  34.5692635  29.0997868   8.3282061
   2.2277551  44.4130096   5.2048802   1.3690853  43.9906578   5.1817207
   2.8365731  43.7062836   5.4196224  41.4396439  18.6176052  15.3776093
  41.2324829  18.4649391  14.4556494  41.6203423  17.7461605  15.7299767
  23.9238358  37.6887627  33.1790009  23.0541592  37.7830734  33.5675888
  24.4960785  37.4857941  33.9189796  43.3793678  37.4233856  24.8038960
  42.9764137  37.1803207  23.9703617  44.3194122  37.4267731  24.6235104
  20.8339157  29.4585476  85.4381943  20.0968571  29.0306969  85.8739929
  21.4475403  28.7478428  85.2521973  56.3912888  51.6407280  45.8432236
  55.4872360  51.8024673  46.1129684  56.8125000  51.2780190  46.6224899
  51.4789696  53.9852829  52.7006264  51.1105957  53.1732941  53.0487709
  51.9257736  54.3848953  53.4468880  36.1143341  -0.0461912   3.2244420
  35.9495735   0.7615283   2.7379498  36.2591133   0.2422670   4.1255879
  19.4822140   2.1671369  58.1246109  19.9970341   1.6809947  57.4805145
  19.0526905   1.4904869  58.6479530  63.7450142  41.9481468  36.6978912
  64.1880417  41.5662689  35.9401779  62.8158607  41.9245148  36.4691048
  74.8320465  52.4578209  45.5129166  74.7030411  53.2630196  45.0116768
  75.7808990  52.3322182  45.5243263  71.9709320  58.5185204  50.1621284
  71.0722961  58.2423630  50.3422127  72.5100708  57.9584808  50.7206230
  32.9001808  36.7337799  15.1157246  33.3366089  37.1858406  15.8378077
  33.2499428  37.1485672  14.3271503  79.9359894  62.0854454  78.0976639
  80.2520905  62.8757858  77.6598663  80.4979630  61.3859482  77.7643127
  61.9961243  38.5190163  83.1103973  62.7586784  38.5107079  83.6889038
  61.4330864  37.8215714  83.4462357  59.8629799   8.8210144  79.8959579
  60.0509148   8.0329123  79.3862457  58.9581757   9.0401268  79.6733398
  54.4055519  11.8616180  66.6602478  55.0642128  12.5549603  66.6193085
  54.2472267  11.6273670  65.7457581   0.3925072  13.3030424  54.0276375
  -0.5222712  13.4780436  54.2485123   0.8940674  13.8348656  54.6455612
  33.7624817  31.7874680  80.1110001  33.3691902  31.6113205  80.9657135
  33.0261040  32.0475464  79.5575256  34.4570770  58.4251442  63.7773972
  34.1265411  58.9632835  63.0581017  35.2805023  58.0648460  63.4481850
  86.0415649  55.4875298  28.8336353  85.4275818  55.9734268  29.3842373
  86.8715439  55.5258713  29.3089275  58.1795311  44.2727051  20.1052628
  57.8329506  44.7218628  19.3343067  58.2820206  44.9640312  20.7593250
  35.3622856  56.0918312  77.4008713  35.2016144  57.0251350  77.2617416
  34.9869118  55.9099960  78.2624130  39.8670692  70.1945724  15.2556505
  40.1933479  70.1756973  16.1553268  39.0168190  70.6297531  15.3183079
   1.0916808   4.7170963  72.9288712   0.4629335   4.8211112  72.2146683
   1.8956558   4.4246836  72.4995117   8.5449772  61.9562645  63.6188278
   7.8315492  61.6822052  64.1951523   8.1056309  62.3236618  62.8518715
  69.7771225  16.8867512  36.3375816  69.5499344  17.6397018  36.8831863
  70.7234955  16.7905769  36.4441795  52.7368431  25.2844753  63.5573082
  52.1561546  25.6894684  64.2015228  52.9288635  24.4191017  63.9185410
  54.4339447  67.5236282  14.9516335  54.9236259  66.9503632  15.5413895
  54.9233932  67.4958572  14.1295033  64.2429657  34.5153542  66.6895981
  64.1428833  35.4671860  66.7046967  63.5537148  34.1928062  67.2702255
  75.3772964  23.8575840  81.3664474  76.3216705  23.8652306  81.5224152
  75.1110840  22.9571781  81.5525436   3.7064526  63.3100548  42.0864944
   3.5907619  63.7740746  41.2573204   2.9832559  63.6148911  42.6344872
  47.9768639  38.4876823  85.4740524  47.1941795  39.0122032  85.6429214
  48.4664841  38.9907112  84.8233109   4.6574225  39.3125114  44.9915161
   5.0655546  38.4623909  44.8273544   3.9327221  39.3547554  44.3676147
  86.6296158   6.9427547  31.2107944  85.6835709   6.9346824  31.3562813
  86.7518692   7.5268178  30.4623585  77.1156082  11.7328758  26.7790489
  77.5932465  11.2536364  26.1019821  76.2015762  11.4780226  26.6532383
  41.8996010  50.1817741  56.5148621  41.0619507  50.5879250  56.2921104
  42.1613998  49.7202950  55.7181625  73.9582596  64.8175964  68.7698212
  73.0068359  64.7993011  68.8732376  74.2739716  64.1104660  69.3324280
  10.8464642  51.2502060   7.8464856  10.8534451  51.0601082   6.9083776
  11.7562246  51.4630203   8.0545187  34.3029709  49.1453781  45.7545433
  33.9776382  49.7481499  45.0859222  33.7123260  49.2702179  46.4973679
  13.5818062  19.3323898   4.7871585  14.0215149  19.1394062   3.9591210
  12.6899900  19.0063133   4.6664495  30.8095226  40.6049461  11.7045794
  30.9605408  39.7701569  11.2612391  30.0839634  41.0035286  11.2240334
  58.6369057  46.8491249  24.6110268  59.2866936  46.3972816  24.0726566
  58.3413811  47.5793724  24.0673046   5.1613178  42.4340820  84.6203690
   4.3817458  42.9163017  84.8959885   4.9051838  41.5134048  84.6749191
  16.9743900  71.0098114  71.9495926  16.1921310  71.3648682  72.3717651
  17.0585957  71.5127945  71.1395569   5.8464069   7.4937091  80.1727600
   4.9011488   7.5217161  80.0246582   6.0160494   8.2181149  80.7749939
  44.0714531  26.8051052  65.4888916  43.2237816  26.3750572  65.6017914
  43.9566422  27.6686516  65.8855438   6.7330589  14.2940845  13.5445061
   7.1454101  13.5202999  13.1605062   7.3376846  14.5708981  14.2330074
  48.2557335  24.7422047  20.3671074  49.1649590  24.5363941  20.1498890
  47.7418556  24.2971897  19.6932182   9.8107624  10.0074482  21.6289959
   9.5297604  10.9209270  21.5758305   9.8177891   9.8131847  22.5662498
  72.0372467  57.4995842  70.1035995  72.9338455  57.7003098  69.8351746
  72.1294250  56.7786064  70.7264328  46.1506195  28.1477814  78.3448792
  46.8754768  27.5620975  78.5634918  45.8889885  27.8859291  77.4621506
   2.3690751  34.5824394  64.7368088   2.0728316  35.4524574  64.4693451
   2.7651050  34.2113762  63.9483299  16.7180405  61.7552338  11.4579191
  16.5406399  60.8487129  11.2069550  15.9505692  62.2416573  11.1569042
   6.9876900  53.2157440  69.7048492   7.5720773  52.5419388  69.3574219
   7.5126572  53.6723175  70.3622589  16.3633862  58.2111855   6.9352255
  16.3183384  57.4320908   7.4894938  17.2605553  58.5280037   7.0398445
  66.5842743  15.7668877  25.8605461  66.2192307  15.0827274  26.4217072
  65.8420792  16.0681534  25.3364983  48.7727394   4.7826810  28.0979042
  49.6290932   4.5150752  27.7643223  48.9724998   5.3743920  28.8233051
  86.1425171  68.8189240  47.8862343  86.7230606  69.4494934  47.4601021
  86.3343124  67.9866791  47.4540138  78.9011841   4.7233157  71.3909607
  79.0618896   5.6556473  71.5364380  78.0611725   4.6936679  70.9329910
   6.5100555  67.5986786  41.1903419   7.0582323  68.2320557  40.7271347
   5.8175063  67.3800735  40.5667877  52.7957191  25.2820625  44.7299652
  52.9627533  25.1793480  43.7930641  52.2937698  24.5033474  44.9705505
  44.7801018  36.7988281  65.8254242  45.5296211  36.2705421  65.5508957
  44.7097816  36.6435661  66.7673264   4.5398350  27.2505093  24.0687466
   5.2441840  27.6428738  24.5846672   4.4568481  27.8204575  23.3042183
  55.0724869  60.3871460  84.2288895  54.8848572  61.1381264  84.7919693
  54.9665871  60.7228203  83.3387527  29.5693798  43.4577827  73.9200592
  28.6325893  43.2657242  73.9621353  29.8234520  43.2170410  73.0291443
  69.6514130  45.7457237   4.2547007  70.1890411  46.3652954   4.7479749
  69.9813080  45.8033447   3.3579955  12.5667067  71.0706482  64.1966324
  12.1235046  70.2371292  64.0383759  12.9024572  71.3300858  63.3386116
  19.7812862  15.7930679  59.2042427  20.5642319  15.8101978  58.6538429
  19.3337040  14.9833136  58.9588852  86.5088730  61.0737991  78.1398392
  87.3009644  61.3116684  78.6217499  86.1502991  61.9094696  77.8409958
  73.5837097   3.1103916  77.1833649  73.7827682   3.8058486  76.5565109
  74.1730728   3.2754126  77.9193344  86.1360168  20.7856255  51.6244011
  87.0209503  21.1426640  51.6995125  86.0840988  20.1265545  52.3166161
  30.0285740  53.8357048  44.9488945  30.2371693  54.7054024  44.6078033
  30.5672379  53.2390709  44.4291840  15.1342859  58.1487007  75.9148331
  15.5404224  57.5129128  76.5039520  14.2042542  57.9223976  75.9226074
  18.9252338  61.6118279  64.4366226  19.6444893  61.4990730  65.0580597
  18.1408062  61.3791695  64.9333878   1.3451798  44.3117447  47.0682602
   1.0699867  45.1836281  47.3516579   0.5347380  43.8034248  47.0361748
  81.0806046  53.5163994  19.5681038  80.4425430  53.1934395  18.9318619
  81.8851242  53.0398254  19.3635273  67.0902710  44.3411484  60.7114563
  67.0685959  44.9457703  59.9697075  67.7149963  43.6644325  60.4506721
  12.0374289  34.0501404  23.6238098  11.4481239  33.7621193  24.3209438
  12.7829065  34.4354248  24.0842972  76.7084427  68.6723099  31.4732933
  76.5714035  69.3553772  32.1297035  76.4318390  69.0730972  30.6492214
  12.3935814   0.2673340  71.3710251  12.5985250   0.7056397  70.5451202
  12.9218588  -0.5307477  71.3561630  82.2457962  38.5745354  49.5719795
  82.0943375  38.6725311  48.6319351  82.9111099  39.2314224  49.7771416
  45.6265755  56.9370422  74.1720428  45.5307541  57.7750549  74.6245728
  46.0107803  56.3538895  74.8266754  81.1885223  61.4083290  68.0266571
  81.8226852  62.0553131  68.3356552  80.4154358  61.9227104  67.7943192
   8.2431402  17.2678432  55.9015236   7.9778433  16.8249798  56.7075768
   8.0223665  18.1873798  56.0496521  18.3419189  42.8507156  40.1324310
  18.0547848  43.2843208  39.3288345  18.3552742  43.5472908  40.7888107
  81.8710098  38.6249657  83.2043991  81.1948013  38.6890450  83.8788376
  82.4795456  37.9653358  83.5372696  64.6095886  17.2696819  23.6806984
  63.9490547  17.2397614  22.9885750  64.5065384  18.1367855  24.0727997
  80.0084915  33.1132698  78.2199860  80.9560699  33.2147179  78.1303864
  79.8408279  32.2032166  77.9752045  21.0756569  27.0672970   9.9439917
  20.2235870  27.5005322   9.8938437  20.9377708  26.3367100  10.5468683
  49.4117699  51.5880928  48.0384254  49.0063667  51.7076302  47.1795959
  50.1704788  51.0294838  47.8694763  16.3502560  62.0211487  82.1665115
  17.0274754  61.3457527  82.2044983  15.9358130  61.9935455  83.0288925
  39.5145836  40.1859245  10.6143274  39.7377968  40.1375122   9.6847763
  38.8770142  39.4839172  10.7444229  15.1282816  53.1128120  11.3186083
  15.5585136  52.4077377  11.8023481  15.4860191  53.0487175  10.4330873
  35.5117188  50.1980553  74.0922165  36.1607094  49.5607872  73.7940063
  34.6884689  49.9007034  73.7048111  34.7705307  24.1298485  76.2991943
  34.9680824  24.0749512  77.2341766  33.9884949  24.6797409  76.2515182
  76.6969910  57.3175125  32.3072586  75.8312378  57.0418015  32.0061264
  76.9797974  56.6178703  32.8961182  50.2997208  67.2491074  42.9029541
  49.8815384  67.9107361  43.4539490  49.5849838  66.8869324  42.3792992
  64.7966461  21.2768173  16.0133820  64.7722855  22.2328663  16.0534954
  65.7278976  21.0590782  16.0532398  63.6015434   7.3711133  18.0634670
  63.8063049   7.5875926  18.9731064  63.8594093   6.4538836  17.9716721
  49.7131004  70.4744949  64.3556061  49.2087898  71.2777786  64.2266312
  49.0997925  69.8714981  64.7756958   3.3755863  22.6610622  77.5306396
   3.1081545  23.3826790  76.9614487   3.0281253  22.8937416  78.3916626
  43.5644913  19.8831806  63.5135651  44.0664940  19.5370121  62.7757339
  42.7876129  19.3256989  63.5572739  11.3432693  43.1941338  60.5573502
  10.5854435  42.6633415  60.3120155  12.0319920  42.5562630  60.7444687
  54.1784935  23.5078869  47.8905144  54.1165581  22.7653446  47.2896576
  54.6805840  24.1649036  47.4083672  57.0800362  50.1471596  86.2730103
  57.2558022  50.0470848  85.3374252  56.9486923  51.0877113  86.3927765
   1.6738247  48.2987137  59.4257050   1.2592601  47.7801552  58.7361641
   0.9684290  48.4781189  60.0473633  46.2534523  56.8320656  84.6533203
  47.1966591  56.6770210  84.6027679  45.8722992  56.1858368  84.0588989
  23.8120155  43.9257431  17.2250900  24.6434765  44.3344345  17.4656582
  24.0401669  43.0176315  17.0263042  63.1289673  55.0507469  35.0709724
  62.8658676  54.6796303  34.2287827  64.0624008  54.8502960  35.1399193
  59.2069664  32.3223534  57.4548111  59.7002831  32.9101143  58.0270081
  59.3510170  31.4513283  57.8246689  81.9788208  24.7150288  34.4680595
  81.3234940  25.4124794  34.4865074  82.7514267  25.1226177  34.0766792
  43.3628387  15.2761145  41.4454155  43.8002472  14.8517170  40.7073174
  43.8700638  15.0070868  42.2112999  30.1296654  21.5892811  17.3660526
  29.8043995  21.8392811  16.5012188  30.6814232  22.3234482  17.6358566
  86.3665237   0.7134830  76.2437592  86.2305603   0.3619910  75.3638687
  86.4665070  -0.0604716  76.7980423   9.8353949  39.0423508  82.6223373
  10.4406471  39.7634239  82.4492569   9.0499096  39.4666100  82.9676590
  23.4334297  33.1212730  54.3918800  23.2712822  33.5743332  53.5644302
  22.6455536  33.2817802  54.9112244  76.3271484  27.0759106  11.1633997
  75.7405090  27.5669556  10.5881119  76.7543869  26.4431076  10.5861092
  57.1015129  38.2585449  76.3319321  56.1642799  38.1190758  76.4674911
  57.2319870  38.1145363  75.3946686  24.8830624  62.0502167  74.8415756
  24.0711212  62.5025101  74.6126328  25.5767574  62.6521645  74.5719833
  39.5937309   8.1425285  46.2679100  40.2046928   8.6900635  45.7747955
  39.2626610   7.5147743  45.6256104  47.9262047  45.3250923  82.0267410
  47.0033264  45.2180023  82.2570953  47.9493103  46.1196175  81.4934235
  63.3842392  58.9033775  80.4412155  62.6973877  58.3667030  80.0456848
  64.1988297  58.5553474  80.0785141  44.3945007  36.5145645  29.0319729
  44.5199928  36.0468407  28.2063122  44.8599815  37.3422432  28.9115238
   8.6676311  66.1085281  30.1396751   8.0173101  66.8095551  30.1830635
   8.8339758  65.9937134  29.2040596  66.5180740  47.5763168  59.7924271
  65.8747177  48.2368660  59.5355186  67.2957993  47.7855263  59.2751274
  21.5850449  24.4323978  45.2928925  22.2679958  24.8155708  45.8433380
  21.9370213  23.5813084  45.0321426  86.1397476  38.9675293  22.9209080
  85.9680481  39.8524094  22.5988235  86.9330215  39.0547447  23.4494305
  24.8481960  17.4500923  29.5345058  24.3609009  17.4810982  28.7112122
  24.7184944  16.5579281  29.8561440  52.5292206  41.6705589  59.4351501
  52.2075691  42.4851532  59.8214264  53.1897202  41.3569756  60.0529175
  84.4434509  15.7379150  70.1634598  84.2021790  16.1162434  71.0089722
  83.7766342  15.0708008  70.0005264   4.4607215  64.8551407  68.5530396
   4.9508591  64.3863144  67.8776093   4.1670389  64.1707687  69.1543884
  81.5179062  62.6945152  38.7583580  82.1263733  63.3945465  38.9948883
  81.9011154  62.2983475  37.9757767  69.7933960  59.7941399  79.2873306
  69.1369019  60.0976601  78.6603317  69.3083572  59.6771126  80.1041946
  21.0008316  60.6318474  36.9733620  21.7191715  61.1095047  37.3881683
  21.0717010  60.8519287  36.0445061  61.5582352  26.8581848  56.4915352
  61.7065582  27.3078423  55.6596489  62.4050980  26.4674644  56.7069283
  77.0415192  35.4497108  11.4504385  76.4564285  35.0078392  12.0657864
  76.8965607  36.3823624  11.6097584  40.1047249  23.9307632  21.0516624
  40.2804794  24.8538513  21.2340069  40.8391342  23.4638386  21.4502296
  59.8454170  50.2582893   6.8529248  59.7557869  49.8457146   7.7119823
  58.9489555  50.3232765   6.5237303  18.1098576  71.3617706  57.5991096
  18.4654903  71.5344086  56.7273598  18.6011353  70.6022186  57.9120941
  13.0503054  40.0539474  48.3160553  12.3714352  39.6481934  48.8552513
  13.0937023  39.5054741  47.5327759  48.5032120  71.4779587  58.4225578
  48.1462479  71.1019287  57.6179390  49.1256676  70.8225784  58.7376175
  76.2269516  60.1932297  44.3087425  75.6364594  60.7471466  44.8193474
  76.1429062  59.3254662  44.7039108  61.0474586  56.8185577  12.5285435
  61.4967728  56.1641464  11.9936666  61.0889473  56.4696388  13.4189177
   3.3780396   4.1450329  47.1682777   4.0546498   3.4791489  47.0456848
   3.1887195   4.4596996  46.2843246  47.5052032   3.2223909   1.4767015
  48.0106850   2.4130394   1.5520190  46.6716003   3.0247607   1.9036453
  27.0175114  62.6770096  35.6745567  27.1583233  63.5115929  36.1216278
  26.1935787  62.7945900  35.2017593  45.2850723  59.7323532  24.3166790
  45.0040665  60.2945290  23.5947189  45.4728127  58.8890800  23.9045181
  62.0237503  63.2037888  45.4329796  61.3377495  62.8345413  44.8768463
  61.5780754  63.8757248  45.9488373  49.3667450   6.6147046  29.9676018
  50.1972694   6.4541101  30.4155712  48.7452660   6.7954369  30.6728191
   7.2570066  31.2226696  33.3638611   6.4029660  31.6482582  33.2882233
   7.0522666  30.3051205  33.5439110  45.1415138  29.3465118  33.9211807
  45.6685677  28.8494759  33.2955627  44.5059166  29.8149242  33.3800354
  74.9581223  67.0319443  88.4586716  74.5588913  67.7379074  88.9670715
  74.3083038  66.3292694  88.4731750  58.3942909  12.2681265  21.9903927
  58.3724403  13.1986494  22.2137337  59.2544441  12.1377668  21.5911751
  27.8220215  66.8547440  81.3557892  27.9204521  67.7806931  81.1340714
  26.9453068  66.6263657  81.0468445  27.1593189  27.8324909  81.0203705
  26.3249893  27.4078236  81.2198334  27.4640446  28.1693935  81.8629074
  62.3751030  38.5037880  19.8749084  63.2508202  38.2830315  19.5577049
  62.0719681  37.7090378  20.3138943  51.0644302  48.1193619  69.9792252
  50.9612617  48.4451790  70.8733368  51.9998589  48.2101555  69.7976685
   0.9672381  20.0766220  79.0877686   1.7280731  20.1755085  79.6601181
   0.3891073  19.4769382  79.5593414  21.7643566  66.8242722  40.0104561
  21.1800098  67.2736511  39.3998604  22.3668900  67.5049362  40.3102455
  83.6457443  27.1310730   2.7285814  83.7233582  26.3256130   2.2172675
  82.7044754  27.3007088   2.7668538  38.6114120  10.8393955  73.2810822
  38.3722649  10.7704916  72.3568039  37.8370705  10.5320034  73.7523956
  19.6080379   4.3370156  71.6794968  20.1366253   5.0994978  71.9149704
  19.4885921   3.8646913  72.5034332  44.5008316   1.6660360  43.9771957
  43.5586205   1.7391031  43.8250999  44.6788826   0.7267116  43.9302979
  30.1957092  38.5552330  43.3200493  31.1152573  38.7694283  43.1626282
  29.7228832  38.9958153  42.6139641  70.2762146  45.8240891  33.9834099
  70.5137711  46.0982437  34.8692093  70.9393234  45.1753273  33.7475548
  51.8310127  65.2468796  10.1238985  51.3498764  65.1833344  10.9489441
  51.1509590  65.2593842   9.4504004  55.8838539  47.8093109  81.7100143
  55.1795197  48.0646858  82.3057785  55.8336411  46.8540611  81.6753082
  22.8464222  60.6808281   9.7200861  23.2091961  59.8777657   9.3462925
  23.5692043  61.0601006  10.2200565  53.0243340   4.9649720  56.7318802
  53.8473740   4.4839687  56.6454163  52.7088165   5.0632105  55.8335304
  70.9454193   3.0755172  24.0534878  70.7436371   2.5892057  23.2541027
  70.5306091   3.9286878  23.9259605  60.9436378  52.2507248  77.6968307
  61.8298340  52.5014534  77.4360199  60.3844185  52.9398651  77.3382339
   2.4558785   8.6259003  72.7003784   3.2379556   8.1990566  72.3505325
   2.0778913   7.9806890  73.2979202  52.0914841   2.5772815  69.9911957
  52.6628609   1.8249903  69.8368607  52.6283913   3.3364403  69.7639465
   8.8512917  26.7656231  28.3617134   8.3556490  26.5727882  29.1575680
   9.1623793  27.6624699  28.4846897  38.3535118  59.1037483  39.4187584
  38.4835320  59.6802902  40.1717072  39.0355759  59.3619423  38.7987938
  11.6307487  66.8199081  23.3782558  12.0235176  66.5726471  24.2154083
  12.3424835  66.7314453  22.7443447   7.9876499  57.0390244  14.7795315
   8.8748465  57.3953590  14.8258009   7.7368627  56.9014359  15.6929903
   5.4539866  69.7236862   6.1589842   5.2205462  69.0961914   5.4748831
   5.1210375  70.5620346   5.8387527  41.0228424  38.5454636  66.2966614
  41.1695633  39.4910698  66.3197403  40.5052032  38.3641853  67.0811462
  79.8360291   2.6321301  65.9267197  80.2076416   1.7536695  65.8464432
  79.5177460   2.6760721  66.8283844  27.5693111  55.8408775  42.5352516
  28.2527771  56.1528320  41.9421310  26.7946262  56.3500824  42.2969170
  23.5022659  59.7975998  54.0792236  24.2507648  60.3851967  53.9757309
  23.5680103  59.4824524  54.9806633  84.4539413  33.9842033  11.3666239
  83.9608002  34.6437187  11.8545628  85.1313171  34.4818802  10.9086914
  73.4262619  69.1439896  17.6851444  73.1719055  69.9326553  17.2060394
  73.8668900  69.4716873  18.4691658  57.1122894   4.4364009  45.8354454
  56.1746254   4.2988935  45.9700050  57.3260803   5.1874895  46.3889694
  83.5333099  48.4019279  54.9012222  82.7274857  48.8382759  55.1777763
  84.2341614  48.9810524  55.2006302  59.3710938  36.8064270  23.2302456
  59.4715767  37.3996048  23.9747410  58.9345474  37.3336563  22.5611515
  59.6462173  45.9379044  88.2531128  60.5702972  45.8435631  88.4842148
  59.4843292  46.8804626  88.2931747  74.0777740  70.3456879  44.9313011
  74.6089935  70.9506378  45.4490623  73.9666977  69.5808792  45.4960709
  30.7188492   0.2651178  12.5816917  31.4594078   0.7649995  12.2382908
  31.1041908  -0.3106675  13.2421570  42.6821098  30.7590313  86.3265991
  42.6178703  31.6591854  86.6457062  41.7758713  30.4532719  86.2882156
  46.9076385  60.9376678  59.0234184  46.3043365  60.2022438  58.9166031
  46.8147469  61.1922760  59.9414482  14.9334288  52.1471710  19.6544876
  15.4635305  52.4844627  20.3766079  15.0543242  52.7844620  18.9505882
   5.1125450  35.3094521  81.8485184   6.0651031  35.4024544  81.8632050
   4.8505111  35.3832397  82.7661896  38.4230309  66.9654770  51.2331734
  38.6963348  67.0927505  50.3246918  38.8871574  66.1770935  51.5147057
  35.3073311  55.1842690  69.1739578  35.5838203  54.2692032  69.1245880
  36.1211052  55.6743507  69.2915497  49.5023804  49.8270340  45.2423363
  50.2519875  49.4559555  45.7077637  49.8845062  50.4766579  44.6522484
  70.8034363  30.9003754  71.2802429  70.9857712  30.1541195  71.8512878
  71.1250076  31.6589680  71.7674408  24.9054203  50.8663940  53.0556908
  24.8762589  49.9489784  53.3272171  24.0072422  51.0669327  52.7924538
  15.4095554  44.7827873  26.6951675  16.0430851  44.8054123  25.9779778
  14.5781202  45.0261230  26.2880592  45.7893486  21.9218407  34.3012390
  45.6278877  22.8365040  34.0698242  45.4021339  21.4211617  33.5831757
  42.7941322  32.2366638  72.5932083  42.7509995  33.1748619  72.4083786
  42.2631721  31.8326721  71.9068375  59.0599861  54.4515343  21.9465294
  58.3066788  55.0276260  22.0764465  59.7672577  54.8672066  22.4396954
  51.5767708  14.5542364  68.2723999  51.3405190  13.6645346  68.5347900
  51.0980034  15.1181917  68.8798294   9.4713879  28.3162594  13.7389984
   9.9999409  29.0150375  14.1244488   8.5716105  28.6380157  13.7947350
  65.7635803  60.1685104  81.3736801  65.8554001  61.1190834  81.4385986
  64.9883881  59.9664268  81.8975906  45.4240685  20.7500610  47.4978485
  45.6347847  21.3494358  46.7819023  44.6699791  21.1500397  47.9309769
  85.4963379  27.9526672  16.0569344  85.2436600  27.9715118  15.1338797
  86.1185989  28.6740704  16.1496964  24.9124432  39.7753792  15.5678473
  24.1616249  40.3463821  15.7305069  25.1837997  39.4828339  16.4379120
   1.8952279  66.8151321  72.9446411   1.0036068  67.1024704  72.7479630
   2.1872547  67.4012833  73.6427689  13.4763155  36.1043282  11.8681574
  13.1736126  35.2358818  12.1334906  12.7252054  36.6772652  12.0224581
  69.2179031  45.0818939  64.9846573  69.0960922  45.8245659  64.3931885
  69.6405869  44.4132729  64.4456558  80.3686905  59.2858925  12.5903130
  80.1156464  59.0627708  11.6945343  81.1904373  59.7672729  12.4942179
   6.9093270  34.2460327  36.6789322   6.2363071  34.6185570  37.2485847
   6.6606011  34.5275459  35.7985229  77.9461136  22.1612606  82.0315628
  78.0400314  22.5655689  81.1690369  78.4211578  21.3332615  81.9609604
  48.3752937  12.3846846  54.3294144  48.4986115  11.8485193  55.1127090
  49.1563187  12.9367771  54.2916718  59.9700089  71.1452942  16.8913898
  60.1984863  70.2773972  16.5585442  60.4369316  71.7525101  16.3173676
  75.4172897  66.1795807  15.9406805  75.5461044  67.1117630  15.7655563
  75.3790741  65.7760162  15.0735521  55.2408409  16.3337860  79.8136215
  55.7279510  15.5275774  79.6433716  55.0355263  16.6776924  78.9442520
  45.5852547  26.1639538  70.2125168  46.5196648  26.0547848  70.3891373
  45.2377663  25.2721214  70.2016220  85.8338089  36.9965248  85.8123245
  86.2259750  36.1995583  86.1690903  86.4980698  37.6720924  85.9486618
  62.5671921   1.2308557   6.7153292  63.0966530   0.4452935   6.5782323
  63.1270485   1.9507705   6.4246073   0.7832381  66.4357376   1.9793718
   0.5787543  67.1867371   2.5365238  -0.0471798  65.9672928   1.8945379
  52.3481750  14.8394575  83.9148331  51.3961830  14.9089422  83.9863510
  52.6552315  14.8142223  84.8210983  40.5267754  59.2258224  37.3930855
  41.3262787  59.7519875  37.4062233  40.0279388  59.5666161  36.6506195
  82.3038483   0.3042286  60.6829681  82.2803345   1.2513837  60.8192635
  82.8196487  -0.0305763  61.4165154   8.5943804  23.4283409  86.0759735
   7.7287717  23.8340054  86.0270767   8.9905396  23.6056976  85.2228394
   7.5339646  29.7571907   1.5976450   6.7678738  30.2873135   1.8174374
   7.3017831  28.8723621   1.8794283  71.3958282  68.9666824  53.1058731
  71.3845520  68.0847931  52.7338829  70.8959656  68.8902283  53.9185982
  69.4629517  38.0331116  83.4537354  68.9548187  37.5657539  84.1167679
  70.2204132  38.3744812  83.9290848  18.4998131  60.6635437  61.3399162
  18.5799770  60.5905838  62.2909584  19.1573715  60.0583534  60.9969978
  73.8641357  33.9906235  71.7710342  74.1802826  34.4837952  72.5280457
  73.1605530  34.5302544  71.4104691  85.4198761  24.2703285  17.8839035
  85.0625381  24.5754108  17.0499573  86.2455139  23.8462906  17.6499119
  85.3465805  69.8966370  44.4615555  86.0171967  70.5598755  44.2984161
  85.8053360  69.0625076  44.3615112  57.2049522  22.4213562  89.2843628
  56.6873703  22.3985443  88.4794922  57.5951500  23.2953663  89.2935104
  56.6492920   1.4303992  26.2580776  56.7671509   0.7807395  26.9511032
  55.7619286   1.7638758  26.3907814  -0.0858994   4.7549958  32.7996674
   0.3708486   5.1162572  33.5593376  -0.0870821   5.4670506  32.1599731
  34.9620056  54.4411278   4.9291229  35.9022636  54.5769844   5.0461226
  34.7710838  53.6461945   5.4269829  14.1958981  61.6596413  13.7558384
  14.3494930  60.7205429  13.6522417  14.9295311  62.0738831  13.3015022
  64.7941208   2.2788792  33.2704430  64.5059433   2.0368984  34.1505737
  63.9871597   2.3211637  32.7573624  30.2430878  43.1157265  58.9977493
  29.9221325  42.4019966  59.5489426  30.1141701  42.8033104  58.1022034
  56.9556656  30.2654057  18.4023457  56.1762962  30.8205070  18.3763065
  57.2739258  30.2568951  17.4996433  71.4157867  30.4587250  37.2215691
  71.1613312  30.8469715  36.3844604  72.3190689  30.7463017  37.3542519
  68.5505981  26.1186314  21.9376984  68.8552856  25.5351830  22.6326714
  68.1455688  25.5354347  21.2957764  75.9614792  29.0224686  24.3133183
  76.7150879  28.4876499  24.0637722  75.2420273  28.3970451  24.3997364
  36.7224998  62.7448769  56.0434914  36.5270538  61.8412476  55.7955246
  37.4811630  62.6754684  56.6230087  15.9867487  61.1071777   7.8450289
  16.8083305  61.5077362   8.1292620  15.9833813  60.2456894   8.2622337
  78.2997894  52.5424576  33.6102791  78.0933609  51.8300705  34.2153549
  78.7346115  52.1127014  32.8737488  56.8494339  55.2630501  61.1948204
  56.7145004  56.2053032  61.2957382  56.3672981  54.8726273  61.9237556
  11.8937397  61.5991440  22.2611427  12.0117321  62.5181084  22.5015907
  11.3408394  61.2391968  22.9546623  30.4297695  66.7178574  76.9689178
  31.2413387  66.2511826  76.7694168  29.9021549  66.6309738  76.1750031
  82.8961105  36.4759865  87.7496033  82.2510071  36.7677345  88.3937683
  82.7944870  37.0833893  87.0168228   3.8606274  22.5104103  49.2428093
   3.2635376  21.7964077  49.4662247   4.4093509  22.1540146  48.5441551
  29.5440731  20.7562561  70.3674164  30.2277679  21.3836803  70.1326141
  29.6477871  20.6308403  71.3106766  18.6422462  37.0461502   1.8090404
  17.7915249  37.4839020   1.8386537  19.0370045  37.2319603   2.6610224
  66.4285202  43.4945908  72.3238449  66.5465240  43.6932259  73.2527390
  65.8778458  42.7117119  72.3143997  34.5856590   8.9124489   5.0766954
  34.2764053   9.2058058   5.9337454  35.5398674   8.9558296   5.1386585
  35.7328453  70.2590637  66.4001312  34.9222298  70.1699295  66.9013290
  35.4912910  70.0106659  65.5078430  42.9199982   8.3701010   4.8909192
  43.7823143   8.3377562   5.3051567  42.4907227   7.5606298   5.1678843
  51.3358116  34.5907364  44.1931725  50.3827896  34.6471367  44.2624512
  51.5773888  35.3157921  43.6168365  79.9782867  30.5167828  38.7500496
  79.1691437  31.0060024  38.6011162  80.5319214  30.7356472  38.0004997
  71.1767273   0.4160731  27.8781338  71.3899841   0.8680606  28.6945057
  70.8128204  -0.4240251  28.1574898  72.2869492   8.4999666  57.5120239
  72.5581284   9.0155706  58.2715263  72.2045288   7.6067142  57.8459969
   2.4638917  27.1185112  72.0836563   1.9104030  26.9548435  72.8472672
   3.3111584  27.3697720  72.4514084  44.8846855   9.2288074  70.6341629
  44.3866463   9.9593229  71.0009613  45.2839355   9.5855589  69.8407135
  62.8140068  11.1156435  26.1597042  61.8903503  10.9776001  26.3695583
  62.9747543  10.5512571  25.4034901  61.8615265  11.0074196   8.2681980
  62.7960510  10.8140774   8.3424587  61.6226158  11.3666143   9.1226768
   2.9421523  59.0770798  23.7205276   2.2274580  59.4059219  23.1752682
   3.7312105  59.2356911  23.2023964  25.3150139   2.6637888  16.4632301
  24.7146854   3.3902531  16.6308174  25.9612389   3.0225363  15.8550158
   1.5068312  27.0009518  33.7787514   1.3045707  26.1446724  34.1557274
   2.4103699  26.9207134  33.4731216  42.7287636   4.3628001  30.4768982
  43.3929901   3.8259153  30.9090881  41.9343338   4.2214675  30.9918156
   6.9929919  42.5638351  21.8599567   6.8001809  42.6063385  20.9233418
   7.8185315  42.0822639  21.9129353  47.9697151  18.9208221  33.9325180
  47.9782104  19.8764324  33.9869843  48.4269028  18.6318359  34.7222633
  84.2312393   8.7913580  57.2984886  84.8460312   8.2933903  56.7597084
  84.7663574   9.1421595  58.0103989  64.1508560   9.7768021  32.2235222
  64.5832901   9.3477058  32.9618378  64.5484314   9.3790283  31.4489632
  17.9577847  23.4434052  72.9742966  18.2033539  22.5250263  73.0861359
  17.2529087  23.5816059  73.6069717  41.5042801  53.8853264   6.6313596
  42.4225349  53.6949921   6.8232193  41.5103683  54.7822304   6.2970562
  18.7385254  12.1371784  20.6571617  18.1098976  11.8709440  21.3281155
  19.5396061  12.3322525  21.1434212   3.7639754  16.8785973  68.0663528
   4.0901246  16.1384354  68.5782318   2.9817014  16.5416126  67.6296387
  81.0234680  56.3304443  45.7571564  80.8553543  57.1478539  45.2883148
  80.7227402  56.5001717  46.6498985  45.8203011  51.9358635  75.7224884
  45.4734650  52.4342079  74.9824905  46.5893364  51.4878807  75.3701630
  67.0954819  46.2631607  78.1130447  66.1761093  46.3230400  77.8534393
  67.3354416  47.1582413  78.3528137  23.8889484  53.8037109  67.7229233
  22.9348335  53.8620453  67.7728653  24.0669174  52.8683167  67.6249390
  80.6246109  53.2782440  77.4719391  79.7927856  53.1079216  77.9138565
  80.3816147  53.7605515  76.6816406  36.4968109  16.1919880  72.3230209
  37.1573792  15.8875170  71.7007828  36.4484329  15.4974785  72.9799423
  46.0272865  65.8339920  71.4990234  45.9357185  66.7050476  71.1128769
  46.8962517  65.5406647  71.2250061  60.6799164  39.1152229  31.2357521
  60.9405785  39.9174194  31.6882648  59.7630234  39.2593689  31.0017414
  84.9989014  33.9337921  32.3938332  84.3962708  33.7380333  33.1112900
  84.5040817  34.5163307  31.8176098  56.4265671   3.9557350   4.3527560
  55.7678566   4.6084270   4.5900831  55.9282684   3.2537715   3.9342158
  20.3590832  71.3653717  59.6568489  20.2194347  70.4773865  59.3278999
  20.4804134  71.2551270  60.5999069  80.3651199   6.4553852  14.3462486
  80.5212250   7.3700662  14.5812378  79.9329300   6.0812550  15.1140203
   1.4246199  63.7534752  34.4191360   0.9318755  63.9293747  33.6175804
   2.1989923  64.3120728  34.3517036  72.6833267  65.5711670  60.7192039
  72.1891632  64.9300003  60.2083855  73.5470581  65.5913239  60.3071404
  51.8000946  25.0645142  52.8590813  51.1080933  25.4171257  53.4185715
  52.5282364  25.6769218  52.9639549  58.0675354  21.1938782  12.9270382
  58.8596268  21.5669918  13.3138361  57.4940910  21.0224190  13.6740284
  72.9938049  61.3786507  87.9283676  72.4550781  62.0899239  87.5818176
  72.4011765  60.8826599  88.4931870   0.2816508  40.8105278  35.7008705
   0.9518732  41.0842133  35.0746651  -0.2346381  41.6007347  35.8597679
  53.0244255  42.1637306  54.1898689  53.0888329  41.2393074  54.4297066
  53.2591705  42.1874084  53.2622032  51.6539688  37.9296913  22.0194473
  51.8658752  37.2809525  22.6906147  50.9172554  37.5483627  21.5418777
  86.1856842  15.9604654  67.9562988  85.4875717  16.1427765  68.5852814
  86.7341309  16.7447834  67.9731903   8.4872894  45.9417343  22.4076519
   8.3356676  46.5589066  23.1234322   7.7504373  46.0795593  21.8124352
  60.9365616  14.4509640  65.9933777  61.5929718  14.6255178  65.3189240
  61.4271126  14.0373831  66.7036896  56.6953583  15.8594627  27.4883690
  56.6480637  16.5177135  28.1816940  56.7088013  15.0227194  27.9530315
  54.2138901  17.2245140  77.3063660  54.8132820  16.9210720  76.6245422
  53.3771248  17.3392735  76.8559418   8.6966419  60.3991508  77.1781311
   7.8965735  59.9031792  77.3517151   9.3446350  59.7344170  76.9447479
  80.5297699  59.3055267  59.3250542  80.3156281  59.1545715  60.2456970
  79.8614578  59.9197960  59.0213013  50.8834343  68.5978775  82.2708664
  50.3520470  69.0334549  81.6044388  50.5661774  68.9541473  83.1007156
  85.2677002  15.8625784  80.2706299  86.1446991  15.4887104  80.1850357
  84.7115479  15.2928438  79.7392807  79.4121246   1.0082794  39.7707596
  78.6922531   1.3404328  40.3071327  80.1561661   0.9611410  40.3711014
  42.0658493  30.4103622  69.8608627  42.9575577  30.5149059  69.5289612
  41.6990395  29.6953030  69.3408890  63.4870186  55.0254326  -0.0044173
  64.2681351  54.5334969   0.2487351  63.1344223  55.3566475   0.8215404
  64.9222412   8.8160677  38.5811653  64.4921646   9.0519915  37.7592125
  64.9121094   9.6224251  39.0968361  79.8746414  59.0500641  85.9911575
  80.5497284  59.1291580  86.6651230  79.0956650  59.4426994  86.3851929
  63.4693298  61.0296860   7.0430231  62.6066208  60.7758064   6.7151361
  63.3114357  61.8368607   7.5326824  35.8942337  70.5077744  83.3778305
  35.2647705  71.2263184  83.4386597  36.7413826  70.9400101  83.2694550
  65.5964050  15.6269999  49.9287872  65.3984833  14.8630934  49.3870239
  64.7699127  16.1074867  49.9763985  37.5921326  55.6734467  23.8624992
  37.5009193  56.0963364  24.7163601  38.4951019  55.8538589  23.6011086
  82.3092117   4.4566202  83.1224823  82.4637527   4.5119634  82.1794586
  81.3743973   4.6362424  83.2229385  70.9700699  38.0606346  68.0364151
  70.3800507  38.2141800  67.2984848  70.4399338  37.5778351  68.6705170
  31.6691990  41.3912811  51.8524055  32.0333633  40.7286797  52.4394150
  32.3417282  41.5132294  51.1822815  68.6038513  22.3293877  79.8826294
  68.2885284  23.0837212  79.3848495  68.1857452  21.5758018  79.4660645
  42.6460724  69.8914032   0.5191145  43.0196037  70.1341400   1.3663366
  41.8288612  69.4432602   0.7372089  82.8267365  69.4033127  55.6429825
  82.4741669  69.8534470  56.4106445  82.2692108  68.6320114  55.5405464
  73.1070786   3.7449088   4.4589319  72.6609268   3.8863287   3.6239591
  73.9278183   4.2306581   4.3772316  72.4164581  48.4385986  80.7680511
  72.8632812  48.9068909  80.0628662  71.8546448  47.8075829  80.3181458
  58.6372414  45.8202324  62.9051552  58.9800797  46.2892113  62.1443939
  58.4543114  46.5063515  63.5470352  14.8827114  24.4383488  59.6452179
  14.5426579  24.8377094  58.8445244  14.9094391  25.1559544  60.2781143
   1.7396657  24.3882103  48.2327232   1.0641057  23.7146111  48.3109169
   2.5440443  23.9549866  48.5182495   0.8071886   7.1121640  57.7618790
   1.2997562   7.8782301  58.0564156   0.4299414   7.3778954  56.9232483
  28.8381214  59.7184868  63.0213356  28.5551033  59.6726608  63.9345894
  28.0263863  59.8167229  62.5236702  71.5997696  23.9674664  19.6898022
  71.1243591  23.7444706  20.4901104  72.4535065  23.5471878  19.7933769
  75.9392624  31.7466640  87.9036789  75.4735031  32.5291443  88.1986847
  75.3782654  31.0187874  88.1714706  38.7444687  57.7919502  65.5245819
  39.0923653  58.0058174  66.3902969  37.8379288  57.5319214  65.6883011
  38.2205772  58.9782600  75.0316620  38.8704720  59.6385612  75.2722244
  37.7328186  59.3742294  74.3094864   6.0504861  14.4841127  62.8331184
   6.3518791  14.8053732  63.6829338   6.8059225  14.0216494  62.4702492
  44.7436981  20.4790707  11.5525074  44.8040962  20.9154320  12.4023151
  43.8046570  20.3587685  11.4112377  16.9242001  52.6287918  41.4522133
  16.7494144  52.5879974  40.5119896  16.1359596  52.2681541  41.8582306
  64.3462372  36.4783058   1.0029441  63.9465294  36.4152298   0.1354845
  63.9425545  37.2515984   1.3970153  83.5855560  52.8779678  18.8233776
  83.2148438  53.3422279  18.0728683  84.4871521  52.6865273  18.5650826
   2.7331769  26.7242355  41.9281693   2.6459851  25.7929478  41.7248611
   2.1939845  26.8504486  42.7089195  59.2009506  62.1553535  49.0777626
  58.5788918  61.5709724  48.6444283  58.8256340  62.3035393  49.9457550
  12.9613857  44.3491325  51.0945816  12.6133814  44.9887695  51.7158585
  13.5779009  43.8272667  51.6081924  24.2254734  45.4357338  78.3508835
  23.4616966  45.2877541  77.7932281  24.0160904  44.9843178  79.1685715
  69.7225342   0.9049400  38.6567383  70.6582565   1.1048440  38.6304359
  69.6691589   0.0688351  39.1196747  68.0690842  50.2775841   3.2528095
  67.9519119  49.3348160   3.1358075  67.5797958  50.4827003   4.0495234
  55.7703171  12.9133158  23.2490997  56.4326019  12.8507938  22.5608406
  56.2526817  13.2146873  24.0189896  31.2068920  70.2696304  51.7082558
  32.1026764  70.1109848  51.4105377  30.8638554  70.9226227  51.0982056
  75.6249619  52.0498466   0.7348558  75.7090836  52.8137741   0.1642637
  76.3781967  52.1059799   1.3228400  68.2579727  46.1239815  25.1035442
  67.6688080  45.6360130  25.6788692  69.0819397  46.1706734  25.5884514
  33.8035965  29.9181728  75.9669647  33.6357384  29.0684624  75.5594711
  33.2459679  29.9250546  76.7449265  11.6012850  55.6885910  58.7788429
  11.3566236  55.2681427  57.9544678  12.1188555  55.0285187  59.2399902
  20.0850315  58.6775246  42.7933426  20.7145042  58.7561569  42.0765343
  19.6335163  57.8502769  42.6259270   2.7802353   1.2579299  46.2776031
   3.6640589   1.5529774  46.4967690   2.2215228   1.6608328  46.9422379
   4.1618266  70.4691315  83.9793930   4.2645454  69.8851395  84.7308121
   3.2186606  70.4869385  83.8170547  63.6120300  37.5603561  69.0813980
  63.9750862  38.4459457  69.0938644  63.6436348  37.3014832  68.1604080
   8.7461462  52.2687187  77.2202606   8.3620758  52.9497261  77.7724838
   9.6466808  52.5584145  77.0741653  75.5388489  71.1565018   0.2882945
  76.3651581  70.6769638   0.2293332  75.5830536  71.7979507  -0.4208058
  52.0673065  18.9376106  73.0110397  51.8934059  18.0048885  73.1376114
  52.8253593  19.1175346  73.5671082  11.5773907  53.8047142  17.4522800
  12.0021200  53.0367775  17.8345203  11.5817862  54.4552040  18.1544762
  12.6110010  16.2699242  74.3856049  12.9112930  15.3947964  74.1402359
  13.3241568  16.8508701  74.1207581  10.0416145  70.2362061  46.8298683
  10.4725561  69.3963165  46.9883194   9.1158762  70.0672302  47.0050468
  50.3729935  58.4684868   7.3861723  50.8124847  59.2593460   7.0737290
  50.0546150  58.0413475   6.5909238  74.1536255  39.2452965  45.4583778
  73.2546997  39.4950905  45.2444382  74.5526428  40.0489616  45.7917442
  38.1640434  34.1171875   5.0570908  38.5565147  33.7980423   4.2444744
  37.2207565  34.0761032   4.8997712  44.6393471  44.3389130  19.0574951
  44.5673599  45.1611595  19.5422211  45.5238571  44.3530655  18.6918831
  65.3072586  57.7529182  40.0554199  64.7662277  57.0063324  40.3125801
  65.1497574  57.8506660  39.1163406  10.7494869  57.3876495  50.5248222
  11.4668665  57.9972496  50.6979828  10.3922386  57.1862907  51.3897247
   9.3643761  23.6906109  15.9713163   9.6342335  24.5359573  15.6124353
   9.5355463  23.7633858  16.9102707  56.7074547   7.3302693   1.5213869
  57.3531609   8.0366898   1.5375650  55.8694229   7.7746758   1.3931737
   0.4080893  10.5610371  54.8108063   1.0122812  10.7246008  55.5349808
   0.2546979  11.4244814  54.4271812  28.7017193  58.4037666  78.6504440
  27.8348026  58.0076904  78.5620422  29.0863132  57.9707184  79.4125366
  46.5973587  39.2252312  62.9512405  47.2663422  39.7482147  63.3930359
  45.7894554  39.4185867  63.4267845  30.2563839  52.3104210  59.8042450
  29.9660530  52.7917290  60.5790253  30.3186512  51.4010811  60.0965767
  81.9852371  60.9444923  10.0085020  82.3440781  60.9556122  10.8958254
  82.3833237  61.7020149   9.5796471  37.3487015  45.3457298  55.6982002
  38.0372925  45.3022079  56.3616638  37.8024292  45.6144791  54.8993645
  58.3870697  71.2860947  71.4421005  59.2894936  71.2551804  71.1244431
  57.9025002  70.7188034  70.8424301  58.5616837   9.8183680  34.9130478
  58.9150276   9.1319962  34.3471222  58.4162979   9.3843813  35.7537308
  59.0101624  11.8274155  83.6563187  59.7019157  11.4521475  83.1114502
  58.7830124  12.6497755  83.2223129  46.5493317  56.1744919   5.2870588
  46.6755905  56.7585945   4.5393186  46.1468887  56.7268982   5.9572225
  60.8868408  54.9981995  36.4493256  61.8028374  54.9327698  36.1793175
  60.8651619  54.6026535  37.3207092  70.5966721  32.9084854  85.2514725
  71.3397064  32.4078178  84.9146271  69.9072876  32.2569466  85.3798141
  11.0761194  63.8171654   8.3661680  10.6227312  63.0065842   8.1345882
  11.5349779  64.0720291   7.5657153  45.7022705  50.4750061  65.1952744
  45.6848907  51.0065842  64.3994370  45.6104851  49.5745354  64.8838806
  34.3028183  18.7816353   2.7123704  34.1929779  18.5493031   1.7903138
  34.6192970  17.9783783   3.1257091  33.4038010  64.4154282  45.9986610
  33.4267960  63.6847725  46.6165962  34.2460022  64.3726883  45.5457764
  85.4219284   1.8242118  79.1818542  84.4912186   1.8552990  79.4033203
  85.4555359   2.0601020  78.2547836   8.2248278  51.8924141  24.9120636
   7.3975129  51.5339699  24.5906601   8.8848381  51.5483017  24.3102283
  18.5695972  52.7425537  63.9337845  17.9847927  51.9917603  63.8311081
  19.2705536  52.4241409  64.5025558  62.7348938  52.5680847  37.9213104
  61.8038597  52.3920784  38.0570831  63.1247711  51.7043304  37.7865639
  77.7947159  60.4881401  87.9160385  76.9403687  60.9187622  87.8863297
  78.3133698  61.0260277  88.5142975  12.6510086  57.2578087  64.2847366
  13.4776478  56.8926926  64.6003189  12.3877163  57.8775940  64.9650116
  41.5657120   2.3621769  86.7324371  42.1946373   3.0641825  86.5654755
  41.3348122   2.0356317  85.8627853  39.8405380  44.1103439  72.2690887
  39.5514946  43.4957199  71.5946045  40.7687912  43.9117622  72.3921509
   2.4812174   8.0160561  69.5579071   1.7431690   7.8979344  68.9599380
   2.0767052   8.1324606  70.4175873  67.1053772  44.6017227  27.1595497
  67.2081223  45.3172607  27.7869892  66.2600250  44.2101021  27.3791866
  76.7123337  11.9086790  68.4140778  76.7838898  12.0390577  67.4685059
  77.4726334  12.3632545  68.7767487  31.3667202  55.7526855  20.1923561
  31.7128143  56.6075439  19.9361057  30.4468651  55.7779045  19.9287968
  49.3479385  59.1040268  85.9574661  49.7403908  58.2437706  85.8085403
  50.0539207  59.7241669  85.7751236  65.4678345  16.6188850  15.3793850
  65.3040009  17.4421444  14.9193449  66.1566772  16.1925621  14.8695011
  19.5112572  31.0012074  69.5744934  18.7174854  30.5954285  69.2259216
  20.0639286  31.1449699  68.8062973  67.0216904  13.5811672   7.0330739
  66.2190552  13.7669468   7.5204153  67.6155319  14.2938566   7.2689905
  76.8350525  66.7333679  75.8973312  76.6828537  66.2838745  75.0660477
  75.9610901  66.9806747  76.1994095  24.5085335  29.6800766  87.7603378
  24.7201023  30.3884716  88.3683167  23.9199467  29.1087837  88.2537155
  66.0574951  25.8782272  67.4868164  66.5269165  25.6814232  68.2974625
  65.4403687  26.5686874  67.7289886  82.1215973   5.4611707  12.3964548
  82.2246246   6.4125290  12.3733482  81.3962784   5.3134780  13.0033607
  59.1953392   6.7161708  15.4199448  59.0005684   7.6111279  15.1418304
  59.0907745   6.1907411  14.6267109  68.1674576  32.8772774  36.6783104
  68.3935165  32.4717216  37.5153618  67.5307617  33.5551758  36.9048119
   2.4228458  67.8342285   9.1758986   1.6976217  68.3327332   8.7993708
   1.9996349  67.1359406   9.6754131  70.8840256   1.7846513   3.4316328
  70.0399628   2.0855637   3.7681501  71.4163055   1.6407957   4.2140737
  31.5405483   7.0798898  10.4330425  30.5886765   7.0106182  10.5063667
  31.7185688   8.0177536  10.5034046  44.1341972  57.4821739  44.0352402
  43.4719696  56.9944763  44.5249672  44.5743256  56.8197556  43.5025826
  37.6873093  59.1353188  84.8575363  37.7354202  58.1795082  84.8761215
  37.1877823  59.3652649  85.6410141  67.2539597   3.1695137  72.0846710
  67.1561127   3.6925299  72.8803558  67.4229507   3.8116553  71.3952332
   3.0126276  31.3408146   0.7886537   2.5668771  30.5655537   0.4473220
   2.3602128  32.0385628   0.7275341  77.3394852   1.6399839  41.5533066
  76.8225479   2.4035866  41.8100510  76.9522400   0.9134314  42.0415688
  20.1727276  41.0545540  23.6232128  20.4303551  40.8776398  22.7184696
  19.9508438  40.1951103  23.9814854  70.4277191   4.6400361  60.1320534
  70.7267990   3.8632586  59.6594009  70.0567703   4.2975311  60.9452705
  36.4296684  29.3796520  88.8962631  37.3810577  29.4106483  88.7956085
  36.1123810  30.1400681  88.4090958  66.9223022   6.7571554  88.0186844
  67.7970886   6.4287114  88.2262955  66.3294830   6.0733991  88.3305740
  59.5131531  57.9747963  20.8286419  60.0971107  57.4272881  20.3038006
  59.9836578  58.8027611  20.9252434  47.3085670  30.0438137  66.4955521
  46.5767822  29.8707123  65.9033051  47.2390251  29.3651218  67.1669540
   4.2270894  49.2613220  62.3157845   4.1511803  49.1212158  61.3719444
   5.1421947  49.5087891  62.4483528  57.5827446   4.7072735  55.0650406
  57.2428970   5.5094776  55.4615288  57.3821983   4.7969885  54.1333961
  80.1242065  22.8119812  63.9155998  79.2945709  22.3566418  64.0591125
  80.5703735  22.2918987  63.2472534  80.4743195   7.5449986  87.0647049
  80.9230423   6.7890720  87.4434586  79.6774597   7.6369543  87.5869980
  11.6648312  -0.0104974  54.9955902  11.6949759   0.7565976  54.4238510
  10.7310600  -0.1854846  55.1125679  15.7304688   3.9238424  61.0816116
  15.7024088   3.4673376  60.2407494  16.5295525   3.6046286  61.5008965
  19.8717308  51.6426353  39.6969833  20.6641293  52.0874557  39.9977684
  19.1656513  52.2633667  39.8769264  55.0720482  64.8303070  55.9535294
  55.1477623  65.1757202  56.8430176  55.4375381  63.9472847  56.0075722
  57.2899055  60.0433731  49.6413994  58.2424889  59.9919205  49.7199402
  56.9647827  59.8051033  50.5095901   5.9034934  67.5854340  84.6119232
   4.9711518  67.3910141  84.7076797   6.0814252  67.4527512  83.6808090
  27.2062206  52.4637566  73.5833282  27.5092678  52.6627464  74.4692154
  26.2743263  52.6821213  73.5942764  19.1382771  56.1036186   5.2153935
  18.9168892  55.8025589   4.3341541  19.7895718  56.7912903   5.0770001
  84.5908127  46.6653595  35.8591614  84.1362686  46.1873627  35.1655159
  84.5136032  46.1015244  36.6288109  29.5351925  25.9107075  69.8343735
  28.8122921  26.4871483  69.5866547  29.7025223  26.1179295  70.7537689
  22.4829998  68.7504578  70.9293365  21.6786079  68.9856186  71.3918076
  22.3006020  68.9552002  70.0122528  50.1299515  18.1561909  22.8756065
  49.2988815  17.8697128  22.4968071  50.2705116  17.5678215  23.6174259
  36.8090515  50.3130722  50.7920189  36.6572227  50.5007324  51.7182808
  36.5954781  49.3847923  50.6975708  28.7444782   0.9478730   8.1362495
  28.5822659   0.1878937   7.5773664  28.3630772   0.7095631   8.9812193
  24.1219044  48.9274139  16.2381935  23.8443775  49.6186714  15.6370525
  23.3048687  48.5321426  16.5422401  28.3709717  57.1121902  33.2029457
  28.1610584  57.0933723  34.1366539  27.7907391  56.4578896  32.8137779
  70.0447769   0.2399006  23.2233219  69.7515869   0.5502816  24.0800228
  70.8959427  -0.1636833  23.3932304  65.5231094  22.5362473  11.6166182
  64.7609482  21.9644833  11.7084446  65.8913803  22.3091869  10.7627716
  13.4230108  61.3586159  48.8615227  12.9939680  62.1085281  48.4494705
  14.1003942  61.0976295  48.2376099  20.2270699  36.6532745  80.0037537
  19.9529934  36.2304115  79.1899338  20.4122639  37.5582542  79.7528687
   1.0792744  27.5350227  38.5426254   1.7726787  27.8918457  39.0976944
   0.2708711  27.7196808  39.0207672  84.6865082  62.9018288   9.2581024
  84.3188629  63.6724052   9.6908560  84.6192398  63.0971107   8.3234520
  20.0728970  70.0409317  29.8493195  20.3084908  70.7705154  30.4224072
  19.2364655  69.7269363  30.1928635  13.4291945  36.2720337  56.9061317
  12.6400185  35.8019791  56.6369095  13.5841990  36.9024124  56.2026901
  25.3069973  57.3155937  42.0006599  24.8974419  58.1396561  42.2641296
  24.5806770  56.7765770  41.6873703  72.9662933  40.5909119  31.4956131
  72.0196991  40.5937653  31.6376820  73.3108597  40.0281410  32.1890068
  44.0527992  36.5066566  78.6971817  44.5602646  35.7608566  78.3770294
  43.1576958  36.3290215  78.4082718  81.1288528  12.2041559   3.9361792
  80.6364059  11.7855558   4.6422272  82.0182419  12.2861528   4.2804041
  73.9074402   4.6721082  45.2468758  74.3228836   5.4970422  44.9956474
  74.4505081   3.9968591  44.8402481  49.1002693  67.4727020   2.3768668
  48.6378555  67.4729691   3.2149625  49.0757446  68.3854141   2.0894940
  33.1780167  43.8334198  87.9243851  33.9340706  43.7351837  88.5031433
  33.0581512  42.9660797  87.5376205   0.5029488   2.1165142  56.5033646
   0.6451562   1.3812608  55.9071999  -0.2987137   1.8907297  56.9751587
  69.4791260  64.3034286  37.5413513  69.5067520  64.7733688  36.7079086
  70.1036224  64.7675858  38.0988426  25.3326836  47.1995621  87.9651184
  26.0132027  46.8641243  88.5487366  24.6941586  47.6064873  88.5507126
   6.6020627  41.9772034  49.6446304   5.8102870  42.3315849  50.0492783
   6.3150506  41.6715431  48.7841530  11.9716492  50.2462006  42.3786125
  12.6146507  50.3324547  41.6748085  11.1859207  50.6746101  42.0390091
  40.3821754   1.3830420   4.7047439  40.2680931   1.1201800   3.7914419
  40.1665688   0.5982489   5.2085748  40.9650536  41.0116692  12.9202728
  40.7497673  41.9359474  12.7953959  40.4470215  40.5535469  12.2584581
   9.2006645  38.7719917  86.8273773   8.5624256  38.9189339  87.5254364
   9.1021519  39.5287476  86.2495804  68.9211884  54.0989304  10.1331940
  68.3775482  54.8417664   9.8707275  68.3573532  53.3349304  10.0122585
  58.1369667   9.0516491  50.2698746  58.7474442   9.0710764  49.5328712
  57.5454788   8.3255873  50.0718613  78.0899734  51.0894432  83.8668518
  78.5359344  50.3410683  84.2634354  77.6837540  51.5445976  84.6044540
  72.4588394  68.5280533   8.6065760  72.8722610  67.9496002   7.9657149
  72.9893341  69.3245773   8.5875740  78.4355698  59.7508888  55.4803314
  77.7401657  60.2332802  55.9274788  77.9795685  59.2337494  54.8163528
  18.4070892  15.4937592   8.6717901  18.6553192  16.0505981   7.9338579
  17.4963055  15.7267199   8.8518858  11.8679409  13.7171412   4.5895848
  12.2083416  12.9732103   4.0926690  12.3536730  14.4710436   4.2550287
  13.7348642  38.2340431  54.4539642  12.7796001  38.1741753  54.4431076
  13.9177313  39.1665077  54.3386345   8.3333540  16.5080547  72.8968201
   9.0953169  16.0571499  73.2605896   8.0484743  15.9507999  72.1725693
  43.5469551  70.2073288  37.3604965  43.1059074  69.4460144  36.9835320
  44.2294617  70.4270706  36.7263603  64.8560944  34.5456734  56.5745430
  65.4523392  34.1927567  55.9141045  64.8156586  33.8666687  57.2480049
  43.7559624  68.1700974  64.2012634  44.0410919  67.4922485  64.8140030
  43.0473022  68.6232071  64.6581268   7.0192146  43.9599571   4.2685442
   7.2604942  43.0562210   4.4717126   6.6198459  44.2881279   5.0741744
   3.9191413  52.1971283  60.2082291   4.2559152  51.7742958  59.4182739
   2.9796557  52.2882195  60.0491676  17.7688255  24.5724831  82.1037064
  17.5662136  23.6381855  82.0560760  18.6682816  24.6391544  81.7831345
  78.2038803  34.2411652  79.9220963  78.6685638  33.8819275  79.1662903
  78.6642761  33.8805695  80.6798859  85.2273254  57.4912224  49.8541222
  85.4319534  56.7705727  49.2582817  85.1461868  57.0762787  50.7128830
  27.2143059  55.3564415  39.0414772  27.7046490  54.7864113  38.4491386
  26.3702488  54.9185371  39.1512108  51.6427307  50.3590469  30.6636162
  51.8184700  51.1388512  31.1901665  51.4603386  49.6727562  31.3054657
   2.0284870   5.1896415  16.7607327   1.2682078   5.5448785  17.2211819
   2.7721944   5.6775570  17.1143837  82.1523514  14.0643101  28.4120941
  81.4271622  13.5318260  28.0853081  82.8594818  13.9173212  27.7839260
  46.3843575   6.5020986  59.9923286  47.1276283   6.8766217  60.4650993
  46.2376022   5.6535759  60.4103050  84.9094467  40.9342422  81.2531509
  84.3682556  41.7066917  81.4164276  84.4289093  40.4413567  80.5880280
  42.6082039   0.7891162  16.0738411  43.5617485   0.7746171  15.9915390
  42.4216423   0.1968753  16.8023167  61.3283882  40.9861641  47.9978714
  61.4300079  40.0527725  47.8116379  60.8174019  41.3229980  47.2618904
  70.7166138  66.9224777  62.7067719  71.6480484  66.7999802  62.5233231
  70.2704086  66.5022736  61.9715462  74.1744614  47.6423225  47.9020424
  73.9610138  47.9044075  47.0065079  74.8765488  48.2374916  48.1648865
  29.6343918  19.0390854   8.1885557  29.2924385  18.5625763   8.9450216
  28.8768501  19.5077705   7.8382783  85.8977890   9.0587044  67.5858078
  86.5833054   9.6195879  67.2229004  85.1468124   9.6412678  67.6993484
  80.2584610  33.9963646  39.4746590  81.0828018  33.5233078  39.3610001
  80.1632996  34.5081711  38.6713943  41.0374069  36.6615829  23.1704140
  40.3551598  37.2497635  23.4941654  40.6085320  35.8080292  23.1092110
  -0.1034156  66.5468140  16.3224316   0.0513850  67.4504700  16.0473537
   0.5766384  66.0411453  15.8773937  57.2541084  50.8072281  20.1759739
  56.3059959  50.8923264  20.2763405  57.3640099  50.1702042  19.4700298
  76.1780243  26.9844551  88.1049728  76.1194229  26.3070965  87.4311905
  77.0426636  26.8591251  88.4960251   0.6544863  28.3709450   9.6481123
   0.0768930  27.8419456   9.0978594   1.3473195  28.6636848   9.0560675
  27.6775990  29.5184383  77.4584961  27.6945572  30.3834724  77.0490265
  27.9278240  29.6791725  78.3683243  55.6450005  10.3107920  34.2236595
  55.4260712  11.0709381  33.6847000  56.5776405  10.1652050  34.0648613
  83.6804733  57.6228065  25.4288330  84.4254227  57.6823654  24.8307247
  84.0750198  57.5904999  26.3003368  32.5708084  61.8842735  73.5463104
  33.3179893  61.4098129  73.9107819  31.8139725  61.3374023  73.7569275
  37.0259323   9.4499550  39.1543655  37.1800194   8.9523783  39.9574280
  36.2685814   9.0255346  38.7512321  31.4077206  59.9543114  54.4560547
  32.3561363  60.0439682  54.5493507  31.0466461  60.6640701  54.9871864
  85.4549255  -0.2285900  15.3415699  84.7591705   0.2363856  14.8768501
  86.2223358   0.3363381  15.2512188  11.0883694  19.5824623   7.7892489
  11.1626358  19.4197884   8.7295961  10.1481838  19.6760807   7.6358938
  14.9798212  39.5324516  73.4276047  14.3772936  40.1318130  73.8680115
  14.4650574  39.1575775  72.7129593  -0.0614137  67.7004852  43.9494820
   0.8911798  67.7847137  43.9082031  -0.2991686  67.2660751  43.1303406
  65.1082611  30.2477093  66.5310440  64.9658127  30.8828125  67.2328873
  65.3445282  29.4385509  66.9845505  80.1351166  64.1221161  19.8297958
  81.0764618  64.1788940  19.6658726  79.7472000  64.0101166  18.9619198
  71.9419785  65.9480515  15.1944132  71.7741165  66.8774338  15.0385256
  72.8484802  65.8183594  14.9157495  65.0249634  26.1026096  76.2109375
  64.9917221  26.8756466  75.6474228  65.4831696  25.4446278  75.6881180
  56.1949387   6.0920329  32.3993301  55.4520378   6.5163255  32.8286362
  56.4441452   5.3853726  32.9949455  38.3036652  25.7886524   7.2551460
  38.3261795  26.3120728   6.4540486  39.1899605  25.4362698   7.3360019
  36.3334427  10.3170490   2.8189628  37.0502739   9.6841555   2.7761941
  36.0582695  10.3056746   3.7356868  15.4525394   8.6851578  75.3183136
  15.2061481   8.1995764  74.5310822  16.3694572   8.4532232  75.4656219
  58.2047920  44.9585228  74.8487701  58.8756752  45.0525436  75.5250168
  57.6139717  45.6976624  74.9931183  60.9526901  13.3561487  57.9286919
  60.2639999  13.8809013  58.3368263  61.4353218  13.9770689  57.3830223
   3.0618060   7.8465576  51.6442986   3.3238726   8.4650450  50.9623718
   2.1208589   7.9885578  51.7476768  40.7118607  50.4288292  63.7286530
  40.3153534  50.6743202  62.8927422  41.3906708  49.7957039  63.4949951
  71.3375702  39.2862587  25.8644905  71.9392242  38.8413239  26.4613762
  70.7872620  39.8227882  26.4350433  12.1316366  61.1105843  80.9128571
  11.6353846  60.7314377  80.1874466  12.5646095  61.8751411  80.5330887
  43.0834312  53.3084984  23.2784824  43.0086823  54.2574654  23.1779633
  44.0249329  53.1477318  23.3413754  48.7672272  23.6737537  15.8329525
  48.5801392  22.8615074  15.3623314  48.3383827  24.3549232  15.3149452
  43.3114700  42.6825218  62.2927856  42.8294411  41.8746719  62.1159782
  44.2295914  42.4481239  62.1573563  64.5329056  59.1513786  72.3736877
  65.0484695  59.3546143  71.5932312  65.1774597  59.0980072  73.0793381
  51.7462769  67.4948120  56.5771637  52.1522026  66.7189941  56.9639091
  52.1662865  67.5835876  55.7216263  54.2200394  40.7096100  44.3078003
  53.7544899  39.8914146  44.1344452  54.6244087  40.5780334  45.1653557
  14.2426577  32.5368271  14.2701168  14.0602045  32.4691582  15.2073269
  15.0781412  33.0014267  14.2216902  81.3003082  42.2106781  11.4400053
  81.6210022  43.0002823  11.0042143  81.2405777  42.4544029  12.3637276
  45.8551102   1.1761501  71.5529327  45.5821838   2.0042601  71.1579971
  46.6564789   0.9404832  71.0854950  10.4987993  27.8043976  88.2288208
  11.1319199  27.6650372  87.5245743   9.7091656  28.1118469  87.7836380
  68.9769821  42.4836578  59.9227448  69.8533096  42.1399574  59.7491112
  68.5133514  42.3889389  59.0906944  50.9742012  34.3912201  53.8912773
  50.6922340  33.8967552  53.1217079  51.6572914  33.8497581  54.2868042
  62.7942314   5.5034561  81.1383667  62.0682106   5.1343117  81.6412125
  62.5284004   5.4023395  80.2243958  41.2751083  30.7477551  14.4262371
  41.5411110  30.0409241  15.0143375  40.8092957  31.3656216  14.9897013
  49.4436722  33.5117073  23.1443729  49.9200439  32.9879379  22.5001965
  48.8882675  32.8808975  23.6024475  17.4832287  21.6949062  81.6062927
  17.9455357  21.2597084  82.3226013  17.9283199  21.3919048  80.8148880
  54.4780121  48.1088715  58.0916328  55.3274879  48.0967140  58.5326271
  54.1166229  47.2356796  58.2438278   7.3708143  66.4448318  71.8698883
   8.2628918  66.4417496  72.2169037   7.0862932  65.5330505  71.9325409
  18.0826035  40.8915062  70.5522308  18.9550304  40.5249481  70.4082260
  17.8682518  40.6525230  71.4539948  53.6768799  30.1327934  15.0260029
  52.9121742  29.5596561  15.0804949  53.3891602  30.9545116  15.4237804
  50.0949440  70.4955292   3.2859402  50.6398811  71.2550430   3.0799911
  49.3629761  70.5523071   2.6717498   3.7779615  59.1565094  46.0179787
   4.0375862  60.0011101  45.6499138   2.8711574  59.0402298  45.7343979
  62.9712181  23.2683487  84.2651520  63.3636818  23.0284138  83.4257202
  63.6246071  23.8289719  84.6835022  34.4652824  62.4112091  67.0086060
  34.3377991  62.0427780  67.8828125  34.1950569  61.7126808  66.4125595
  19.7992516  70.1766891   7.1803689  20.6376228  70.4118042   7.5779705
  19.9250793  69.2805710   6.8683343   3.1055942   4.8986983  82.1600647
   3.4579728   4.2625399  82.7824478   3.8012662   5.0105643  81.5121765
  61.2658310  16.9806252  77.9292755  61.7249260  17.1215172  78.7572937
  61.0988426  17.8618908  77.5950241  56.1674232  43.0033417  40.5879364
  55.7509079  42.8430672  39.7411423  55.5265045  42.7006226  41.2312241
  23.9904785  24.8230057   8.8202305  23.7007408  25.7197590   8.9879112
  23.2465420  24.2787418   9.0782375  85.0325012  57.1029396  74.1127167
  85.8013535  57.6475372  73.9438782  85.0666199  56.9252052  75.0526505
  13.4678307   3.0167577   3.5703182  12.8811531   3.0744941   4.3244457
  13.2164860   2.2032068   3.1330621  19.4951115  52.5441742  45.3622360
  19.8768063  51.7591934  45.7551041  20.2444324  53.1142540  45.1897278
  51.6773567  35.8306847   0.1940310  52.0546799  36.3363647   0.9138544
  50.9593620  35.3413734   0.5956422  78.3483200  19.2950859  82.1499405
  78.8239822  19.1340218  82.9648209  79.0085602  19.1971512  81.4638443
  64.4802856   5.3218541  34.9842072  65.1517563   4.8282309  35.4550514
  64.7222214   5.2358370  34.0620918  18.4434090  46.9901543  20.6703529
  18.1348953  47.5953712  19.9959908  19.3968410  47.0041199  20.5866661
  37.4060135  71.4931946  75.9111481  37.7350655  71.6245575  75.0219269
  37.8087387  70.6731949  76.1968613  30.8866253  65.1687012  35.4981842
  31.6410675  64.7895584  35.9490700  31.2651443  65.6576157  34.7674866
  82.9565659  16.9658718  33.5866089  82.5858459  16.3258858  32.9789772
  83.7070541  16.5183430  33.9773979   2.0617280  43.3154907  35.8147240
   2.4430211  44.1050110  35.4306602   2.0511317  42.6814384  35.0977173
  78.4799423  32.6995087  70.0470734  78.3762970  33.4438324  69.4542160
  78.0312119  31.9779682  69.6063309  50.0242233   9.0842943  44.7252655
  50.4059334   8.2621078  45.0327339  49.4993820   8.8350039  43.9645882
  31.9118328  27.8390961  13.3950815  31.2711792  27.3978443  12.8373251
  31.6405239  28.7570343  13.3915567  34.0359383  59.4657745  28.0389385
  34.3423004  59.7358017  28.9046535  33.3813591  60.1223755  27.8009605
  27.5427685  67.4138489  29.3839359  28.1221676  66.9142303  29.9591885
  26.9340076  66.7634811  29.0336952   1.5664953  35.0608215  42.8467636
   1.3238050  35.5303497  42.0487213   1.2456927  35.6154327  43.5579071
  14.2138691  69.2940598  54.8293877  13.2993832  69.4762955  55.0455818
  14.6577139  69.2581024  55.6767044   1.2498971  14.6117668  12.7737637
   1.5565871  14.4553556  11.8806181   2.0508392  14.7221184  13.2861557
  58.5382042  15.4477386  67.2271957  58.1291046  16.2329044  66.8633499
  59.0570755  15.0918274  66.5058517  22.2648849   0.8462401  28.9671688
  22.9926682   0.4749232  29.4658566  22.2586422   0.3511955  28.1479473
  71.1783066  30.5701637  14.6840305  72.0569992  30.3264809  14.9751472
  71.0995026  31.4969311  14.9101381  73.0729828  69.6848755  82.8999710
  73.9602890  69.7941589  82.5579529  72.7412186  68.9024353  82.4595795
  71.8252335  12.6527796  43.6816444  71.5879440  13.2233419  42.9506302
  72.4394836  13.1717138  44.2009087   0.5587175   9.8584452  51.4851875
   0.6603255   9.3275232  50.6952324   0.1772252   9.2606564  52.1281052
  37.5994873  57.4082489   6.2106857  38.0253487  57.8770065   6.9284186
  37.3049507  58.0977821   5.6156864  68.0899582  63.0309258  29.1328068
  68.4426956  62.1449623  29.0498943  68.2013168  63.4154053  28.2633209
   8.8406458  34.0896187  33.3969994   9.1730509  33.4186287  33.9932480
   7.9129763  33.8783722  33.2919388  63.5305672  60.1751442  56.6198616
  62.6984596  59.9097900  56.2281761  63.2855339  60.5777054  57.4530106
  62.1328964  64.9522324  78.2309647  62.5146141  64.1276321  77.9300232
  61.1897240  64.7893753  78.2426758  34.5267601  24.0672588  79.1224670
  33.7480354  23.5269814  79.2563248  35.2501564  23.4411964  79.0912323
  22.3705215  35.6792259  62.3432846  23.0934963  36.2203102  62.6607246
  22.6257782  34.7839241  62.5657806  21.7316399  53.4746323  80.6469498
  22.0936699  54.2734337  81.0304642  21.9886284  53.5134506  79.7257156
  74.0208130  55.9421005  13.4835739  73.3750381  55.4739876  12.9543543
  74.3865433  56.5981407  12.8902082  54.0495224  20.3756561  77.7800827
  53.5910721  21.1276531  77.4051743  54.4105721  19.9136868  77.0234756
   1.8492843  36.7005539  53.6665878   1.8695304  35.8434525  53.2409134
   2.3608899  36.5826263  54.4669533  62.8168068  40.9539413  60.6923523
  62.9015503  40.7335739  59.7647285  62.2253151  40.2883530  61.0435829
  54.1494751  33.0922737  77.7291489  54.3404312  32.4019356  77.0941620
  54.5353050  33.8812370  77.3484879  61.5261955  36.0860138  58.1393585
  61.4766655  35.8549385  59.0669289  61.9648933  36.9366798  58.1275368
  76.9036331  11.6340914  83.1343765  77.5839157  11.7210579  82.4666290
  76.0869446  11.5775881  82.6383362  48.2794838   8.7241650  16.0141621
  48.1166000   7.7832971  16.0810108  49.2090302   8.7914009  15.7958632
  39.2735367  67.9595337  37.4303741  38.7564621  68.7636261  37.3824806
  39.8335457  68.0802078  38.1972237   6.1946306  50.6270866  31.4247532
   6.5786958  50.1896248  30.6649132   5.8142123  49.9176407  31.9426365
  69.2146149  50.6292419  18.0231724  69.4039459  50.9013863  18.9211273
  70.0545731  50.6992912  17.5695248  83.5090561  41.8903389  17.9641590
  83.0830765  41.0331841  17.9566364  82.9443283  42.4336395  18.5138264
  49.3107033  53.1832275  70.7455978  49.3311195  52.2283592  70.6820145
  48.5375519  53.4402466  70.2431946  77.4938431  70.4461212  44.0384674
  78.0890503  70.6627884  43.3208160  77.1828003  69.5643234  43.8337250
  66.2726288  15.2816591  71.0401764  65.8447800  14.6425295  71.6099930
  66.9526443  15.6736155  71.5880661   5.2430596  29.1302204   4.8309584
   4.4661918  28.6396980   4.5624542   5.6317558  29.4315128   4.0097580
  78.8881760  57.8548737  39.1129761  78.0319290  58.1702347  39.4021645
  78.7697678  57.6586418  38.1836166  63.4338646  27.2484722  73.6853256
  62.9294815  27.3886909  74.4866791  63.4881363  28.1147652  73.2818146
  50.9980049  60.3712845  60.9814339  51.0265808  60.6182594  61.9057808
  50.8127060  59.4322319  60.9900436  25.8825760  54.7581482   4.3843656
  26.5693855  55.3697662   4.6497827  25.6055050  54.3405418   5.1998820
  86.6842422  35.7364159  59.9457626  85.8000412  35.3917046  59.8208694
  87.1381226  35.5336418  59.1277733   9.6285496  38.1760368  59.8057022
  10.3062019  38.8471985  59.8866882   9.4933195  37.8630600  60.7001266
  63.0917206  36.4885521  75.9109802  62.7917175  37.0620232  76.6162262
  62.4117203  36.5571976  75.2408142  17.4870548  23.8407097  27.4121017
  18.2373199  24.4097347  27.2402191  16.9162960  24.3611336  27.9774532
  45.4062233  52.3997955  78.3638763  45.5261345  52.0261536  77.4908066
  46.2890129  52.4363060  78.7320862  68.1942596   4.5085249  20.1213207
  69.0468903   4.5151219  20.5563030  68.3569031   4.9133048  19.2693062
  76.2288971  37.4112587  27.8064957  76.0886078  38.2791214  27.4278526
  76.4462738  37.5820541  28.7229061  28.0326595  49.3149033  61.9629593
  27.2954788  49.8893394  61.7560310  28.5470371  49.8065414  62.6032219
  85.3995590   2.5079758  87.4914093  85.4293518   3.3859241  87.8716049
  86.1807861   2.4589090  86.9404907  14.1391201  36.4356117  51.4647903
  13.2257719  36.2748337  51.2277794  14.3256102  35.7930565  52.1493149
  62.1072464  40.6268997  50.6398811  61.7796364  40.5573578  49.7431831
  61.4525757  41.1577492  51.0935707  77.5107574  32.5908241   3.9418249
  77.8908157  32.9342995   4.7504139  78.1148453  32.8723640   3.2547672
  36.6562157  41.5265350  56.9185524  37.3393440  41.7613754  56.2905273
  36.5413933  40.5829506  56.8058701  51.7796249  63.8960304   1.8046939
  51.6057396  63.9771957   0.8669264  51.1984558  63.1935081   2.0961261
  71.8872910   2.3926623  41.7294235  71.9307404   1.4508941  41.5638428
  71.1117783   2.5036209  42.2794228  16.1077099  66.1746597  10.9759922
  15.7898731  66.9523697  10.5173149  16.5177345  66.5161285  11.7706699
  13.2441225   0.2756448  15.3173857  13.5773287  -0.3252029  14.6509113
  13.8728256   0.2086992  16.0360527  50.2315674  70.3026047  17.1695518
  51.1219330  70.3097916  16.8182335  50.2664871  69.6825485  17.8979321
  29.4288197  68.2493057   7.9420829  29.2745266  68.8179016   7.1876841
  28.5797348  68.1980591   8.3810148  41.5600548  14.3592672  48.2236862
  42.4997826  14.4013500  48.4008179  41.3834457  15.1294003  47.6833763
  62.6972008  48.1187553  71.8819656  62.2030411  48.7390709  71.3460159
  62.0445175  47.4833832  72.1761398  64.4253998  63.4802628  46.9099998
  63.6208992  63.3853531  46.4001007  65.0479355  63.8804207  46.3029137
   8.6962385  18.9857750  81.9712296   9.4147387  19.3486443  82.4892197
   7.9130864  19.1588917  82.4936600  65.9137192  51.3431206  33.4769936
  65.3690872  52.0179062  33.0716820  66.3068466  50.8773460  32.7389297
  31.9344902  34.6308098  63.2914581  31.3471718  34.1803780  62.6845016
  32.4337921  33.9280930  63.7075310  20.3484344  58.8571243   5.8616138
  19.4742546  59.0609360   5.5291948  20.9420300  59.3390770   5.2857695
   1.0568413  65.5993347  55.3743172   0.8273867  66.4107742  54.9213867
   1.9972609  65.6733551  55.5366859  16.9650497   1.9090610  85.7503128
  17.2751999   2.7192104  85.3457184  16.2066040   1.6540750  85.2249756
  81.6660004   6.3907957  20.6427898  81.5995865   7.3128271  20.3944378
  80.7697296   6.1368895  20.8629341   0.6754450  40.8620682  15.6403980
   0.6590828  41.1953812  14.7432547   0.1312679  40.0750618  15.6134729
  33.5835495  38.6487503  57.6830292  32.9862518  37.9355774  57.4575195
  34.1962051  38.6893044  56.9486961  58.5459442  67.2811584  89.1676788
  57.8127747  66.6882324  89.0029526  59.3179131  66.7926407  88.8819351
   2.6939118  22.5366802  23.2601261   3.2528312  23.1489353  23.7386494
   1.8457311  22.9772530  23.2080078  45.4200096  11.2336483  86.1934738
  45.6672554  11.3315134  85.2739563  44.6631508  10.6478825  86.1769562
  29.3303070  34.4706764  18.0204544  29.3404446  33.8550491  17.2875633
  30.2283554  34.4635849  18.3516502  17.3016262  70.2044601  24.0841732
  17.3173466  69.2754059  23.8543205  16.4552402  70.5161896  23.7637196
  76.2760162  25.4687099  40.4459801  76.2784195  25.3608189  41.3970757
  76.2751083  24.5748634  40.1035347  50.1874352  53.7741508  29.9404068
  49.2955246  53.7197227  30.2835732  50.1840286  53.2023315  29.1727848
  53.3606071  24.1645641  23.2455521  53.6087532  24.9933033  22.8358612
  54.1599846  23.6384354  23.2250423  69.0642929  19.5487328   8.1038666
  69.7756042  19.0632782   7.6860166  69.4069443  20.4368725   8.2040033
  26.3655167  61.3764610  84.5120010  25.4250469  61.2094345  84.5740585
  26.7537613  60.8110352  85.1796799  66.6115723  22.7180004  44.9123230
  66.0729904  23.4392662  45.2377968  66.0179520  22.2037907  44.3651237
  30.8131428  47.6848526  14.5266743  31.7505188  47.8735771  14.4826202
  30.4388275  48.1553764  13.7818747   9.9259968   2.0389340  70.7015839
  10.6458197   2.0570331  70.0709000  10.0157719   1.1945205  71.1433258
  15.8660746  38.8451233  87.7242126  15.3686352  38.3903351  88.4038849
  15.3636560  39.6414680  87.5520477  56.4437294  45.3410339  36.5099640
  56.6362190  44.4429283  36.7793884  57.0377808  45.5038261  35.7772751
  50.3788261  29.3015118  39.9450607  49.8299904  29.5779781  39.2111816
  50.2924194  28.3483887  39.9630165   7.2950010  30.7548447  40.1686897
   7.2967291  29.9360485  39.6729050   6.5559959  30.6686325  40.7709122
  45.7611771  30.7841911  18.6971951  44.9720039  30.3609657  18.3590832
  45.4944725  31.1491356  19.5409470  70.3506393  57.6879883  21.3983059
  70.7945404  57.3041801  20.6420822  70.6383133  58.6008987  21.4070053
  51.5713234  57.4632492  32.5553932  52.4232597  57.8256454  32.7985039
  50.9428139  57.9512329  33.0874443  25.8230057   5.1571517   7.0620799
  25.4894104   5.4780216   7.8999276  26.3956451   4.4267316   7.2961788
  23.1931229  41.2775726  54.3965149  23.4826107  40.3766136  54.2526436
  23.0780029  41.6356087  53.5162926   4.1400566  60.1421165  16.9139309
   4.3445325  61.0230331  16.6002312   4.8637347  59.9228859  17.5008373
  14.0825205  52.9791679  53.8891640  13.6301279  52.7298164  54.6950150
  13.7027531  53.8255768  53.6533737  54.9782486  27.9023628  73.0322037
  54.4969978  27.9681892  73.8570023  55.8816719  27.7268696  73.2953796
  80.9510422  44.6618500   2.0204642  80.2997589  44.0236816   1.7292610
  80.5873718  45.0234489   2.8286841  36.9241066  48.7420540  54.8262138
  37.1131058  48.8182907  55.7614670  36.2236252  48.0916672  54.7756538
  10.4764118  51.2751198  20.4052982  10.3910456  50.4490395  20.8812580
   9.8234043  51.2182236  19.7077484  74.9161606  70.0384369   4.1096549
  75.6326599  70.1446762   4.7354150  74.7006378  69.1066132   4.1482711
   5.5339408  44.6398277  65.5036926   5.7338781  43.7744370  65.1468201
   5.0858417  44.4603539  66.3302689  50.7565384   4.6466064  26.1008625
  51.3889961   4.8116941  25.4015961  51.2903481   4.3740582  26.8471851
  26.4749794  22.6271210  71.6582718  26.9464741  23.3148766  71.1882553
  25.5732517  22.6979027  71.3450470  44.2223434  50.5759430  39.4206429
  43.3751869  50.8315048  39.0556068  44.6823387  51.4036179  39.5606117
  53.0892143   1.1492219  19.5123730  53.2079430   0.3744841  18.9629021
  53.3497696   0.8639526  20.3881359   8.8525200  11.7905216  18.8357639
   8.7154484  10.8856010  19.1160526   8.5025625  12.3190374  19.5530033
  28.2827835  42.9014282  50.0953560  27.6303997  43.5503197  49.8316002
  27.9760170  42.0819626  49.7072830  58.8399582  61.4310417  78.0656204
  58.9778099  62.3161392  78.4030075  59.7216759  61.0994301  77.8957901
   0.4607589  47.8008614  41.4286003  -0.2857224  47.2857475  41.7346344
   0.2052669  48.0971756  40.5550156  79.3825302  70.3747482  31.8831253
  79.1719589  70.4131165  30.9501610  78.5485840  70.5378189  32.3237839
  50.8811378  43.0463638  85.4554138  50.6685181  42.1602974  85.1623077
  50.0576210  43.5281677  85.3784637  66.3064651   7.0913219  58.9692497
  66.1551666   7.7394876  58.2813377  65.4304276   6.8634396  59.2804794
  11.0604916  20.0775871  68.9397049  10.4325829  20.5974503  68.4380035
  10.7712145  20.1638107  69.8480682  85.1101227  26.3804054  39.0299149
  85.4403839  26.8800240  38.2832260  84.8300705  25.5456142  38.6545143
   7.2491822  52.6641502  79.8692551   8.1673603  52.9073448  79.9877319
   7.1153288  51.9329987  80.4723587  64.3746490  65.2770691  85.1402206
  65.1840210  65.5861740  85.5471649  63.6864853  65.5238419  85.7580948
  60.5163307  37.0268440   2.5813458  60.1248779  36.7091408   1.7676759
  61.0547905  37.7714615   2.3133137  13.4964676  28.8105793  58.0091667
  14.1463213  28.4490929  57.4064636  13.2118959  29.6249123  57.5943031
  67.4028702  56.0353813  62.3646431  67.3870621  56.7327995  63.0200691
  68.3198624  55.9801483  62.0957413  58.5817146  65.4804688  67.0370636
  59.2451668  65.4408569  66.3482285  59.0786858  65.6404648  67.8393478
  63.6680984  26.9857655  23.6519394  64.4228516  26.4042206  23.7434654
  64.0051193  27.7417240  23.1711311  86.7928925  50.7950096  46.0799942
  85.8947983  50.4903259  45.9502487  86.8086548  51.6680145  45.6877632
  17.6162777  33.2905960   4.2751513  18.3125095  33.4741402   3.6444335
  16.9231491  32.8838844   3.7551613  66.1435318  52.6525574  60.2000122
  65.8173752  52.6389389  59.3001976  66.6660843  51.8543282  60.2774734
  40.3879356  67.0382004  54.8861046  40.5701790  67.5184555  54.0784073
  39.8553696  67.6391602  55.4071159  64.1003723  41.1882172  63.3933907
  63.4064941  41.5028801  62.8139496  63.7529640  41.3184052  64.2757721
  69.8744431  56.4006462  15.0907679  69.4196396  57.1870461  14.7891722
  69.9193268  56.4997940  16.0417614  68.1361237  27.7372398  75.2737732
  68.8006592  28.4257717  75.2973099  67.6859360  27.8100033  76.1153564
  44.1701965  29.8558731  38.8559341  43.3192253  29.9554653  38.4291306
  44.7530632  29.5520992  38.1600761  59.0318871  28.1679897  23.0864353
  59.8102913  28.0701180  23.6348286  58.3006439  27.9668140  23.6704254
  51.2483330  36.7663040  33.2072525  50.4969864  36.2439270  32.9264793
  50.8644104  37.5741463  33.5481682  52.2275505  37.5521431  50.0350456
  51.8221970  36.8771095  50.5793343  52.0693130  37.2623596  49.1365929
  50.0420723  44.4667130  19.3005772  50.2401810  44.3302765  20.2270622
  49.4703789  43.7351799  19.0676422  67.0135117  67.3247299  31.3562737
  66.2517014  67.6135635  31.8587227  67.7203522  67.9055328  31.6378174
  58.2924843  12.6488190  30.5849953  58.4309273  13.0744944  31.4310837
  57.7815819  13.2810574  30.0795422  73.4165878   2.5195045  27.5831528
  73.5239029   2.6777887  28.5210571  74.0923615   1.8759730  27.3699989
  16.5281429  31.5924492  79.5618515  16.6274357  30.8625526  80.1731033
  17.0640125  31.3476582  78.8074265   6.7991853  39.1180420  67.1381607
   7.2885795  38.3059158  67.2692032   6.7227616  39.2009087  66.1876221
  18.2523670  52.2151756  35.6412697  19.0920544  51.8054504  35.8493118
  18.1547947  52.9069901  36.2955627   5.7916727   0.6219639  29.8383217
   6.3101563   0.3304361  29.0883770   5.0115743   1.0185632  29.4505234
  34.5350685  51.0254517   5.8462024  35.1583939  50.4663200   5.3824511
  33.8216057  50.4364548   6.0917358  54.9692001  70.8071136   9.3026266
  54.3165321  71.0252075   9.9679775  54.9761581  71.5640564   8.7167683
  85.8681183   2.0623012  66.2751846  85.0285034   2.5204866  66.3120041
  86.2633209   2.2171791  67.1331177  52.6552238  -0.2251140  74.0497284
  52.5118942   0.6447002  74.4227066  53.1392975  -0.0618213  73.2402573
  82.0727615  60.6199951   6.1804514  82.7547455  59.9488640   6.1538420
  82.5435028  61.4447212   6.0602179  19.0930500  47.4622002  58.4136696
  19.4150867  48.2282524  57.9385986  19.3043423  47.6422043  59.3297386
  86.1286545  57.7935944  36.7955284  86.9212418  57.4009171  37.1613770
  85.4158020  57.2476883  37.1272774  23.9206104  12.1932316  13.5247860
  23.1870422  12.1112442  12.9153700  23.8157196  13.0631018  13.9102144
  15.0430098  54.4724922  18.1925888  15.0386839  54.4943275  17.2356491
  14.4653149  55.1905746  18.4511623   4.7641606  13.5081062  88.5197372
   3.9809859  13.9414597  88.1805115   5.2203259  14.1897507  89.0131989
  35.7523727  67.3373795  44.6112175  34.8125153  67.2186432  44.7483406
  35.8240013  67.6664963  43.7152367  54.0006752  15.7381620  54.2682419
  53.4520378  15.9830227  55.0134087  53.6789322  16.2780571  53.5462837
  50.8867149  49.6364326   7.9908333  50.8775558  48.7603226   7.6053762
  50.0712814  50.0384140   7.6913161  24.4297791  52.4959412  55.5114861
  25.0451584  53.2261047  55.5778313  24.7070770  52.0193443  54.7290573
  68.1563721  34.3271751  15.4607840  68.4436951  34.9431000  14.7867556
  68.7763290  33.6003265  15.4010019   7.5496378  66.5317078  62.7300568
   8.3767443  66.3065186  63.1559868   7.2233248  65.7002716  62.3858757
  66.1379166  13.4264650  78.9440155  65.6817017  13.4654255  78.1034317
  67.0357437  13.6895285  78.7416763  42.3925095  59.9064713  40.6940956
  42.2965393  59.1293678  40.1435204  42.8971634  59.6041756  41.4491959
  55.8262939   4.8541441  86.5725098  56.5247917   4.4859438  86.0314331
  56.1430550   5.7249265  86.8125763  38.0101166  51.5201683  54.0236588
  37.7591248  50.6712227  54.3877029  37.2868538  52.1030846  54.2545929
  77.8177948  56.4795647  87.1185684  77.8372192  56.0744858  86.2515182
  77.4308701  57.3425713  86.9711227  73.8229294  55.3011932  44.5943375
  74.4115372  54.9132996  43.9467964  73.4759827  56.0830231  44.1646843
  37.3086166  25.3975067  75.9363556  36.8915024  26.1438351  75.5059509
  36.6431732  24.7096214  75.9211044  71.5812683   8.6336527  84.9178848
  70.9048538   8.6957645  85.5923004  72.3507690   9.0445871  85.3118744
   5.4050965  52.0725861  62.5053253   5.2997580  53.0188065  62.6043472
   4.8318996  51.8430252  61.7739029  78.3763657   7.1911736   6.1711354
  78.4021759   6.6536808   5.3795123  78.1106796   6.5856457   6.8632202
  13.6935501  43.0616722  16.7301750  14.4605770  43.4658318  17.1358337
  13.6223679  43.4871597  15.8757010  61.5869255  10.5178566  68.4893417
  61.8274612  11.3759451  68.1399689  60.6640739  10.6063585  68.7275543
  67.3144226  10.6751680  30.6354809  67.1335220   9.7381439  30.7096024
  66.4786682  11.0969725  30.8350716  66.1003113  40.1949692  20.4216957
  66.9663620  40.5989952  20.3674469  66.2155533  39.4616318  21.0259876
  64.6644669  14.3912649   8.0127296  64.1706467  15.0902910   8.4413738
  64.5407867  13.6290569   8.5783920  77.0997009  22.0165443  88.2267532
  76.6280746  22.7294521  87.7959824  76.5607910  21.2418022  88.0668259
  85.2923584  59.5679588  84.1880188  85.9631348  59.8698502  83.5755234
  84.4687195  59.6718254  83.7115097  23.0888100  65.3082809  37.9426460
  23.0164013  64.3819656  38.1727104  22.6444607  65.7675171  38.6553116
  67.7018127  25.8648930  73.4070892  68.5046158  25.3494644  73.4850311
  67.8484344  26.6235008  73.9721069  66.2197952  10.9839544  44.1169930
  66.8605652  11.6153450  44.4440918  65.9821548  10.4642172  44.8848648
  81.1488571  45.8192139  66.7957687  80.6478271  46.6319771  66.7278671
  80.4911804  45.1464310  66.9719772  31.9779167   4.3617191  42.0529137
  31.4249668   4.4102783  41.2730942  32.8554764   4.1855307  41.7136803
  44.5526848  57.9817810  62.2453232  43.9046249  58.3542480  61.6473961
  45.0494423  57.3658867  61.7066803  24.8132229  31.9376621  22.3425980
  25.5219269  31.7108898  21.7404804  25.0765743  31.5525074  23.1783829
  53.8811378  12.6468658  44.4428482  52.9897614  12.3298149  44.5883255
  54.0115395  13.3130131  45.1177368  72.3731003  58.1288147  40.2065964
  71.6881561  57.6677780  39.7223167  72.2591476  59.0482178  39.9658890
  43.1586075   1.6500052  34.1578598  42.4487648   1.5485053  34.7919388
  42.7838211   1.3520088  33.3290253   4.4443130  60.2730980  40.9262161
   3.7728217  60.2687149  41.6083565   5.0858340  60.9172630  41.2257729
   7.8011298  20.0675793  56.4074211   7.5918107  20.8313713  56.9450455
   7.7046700  20.3753452  55.5061951   2.4778891   5.6463151   3.1145868
   1.6600952   5.4403024   3.5673604   3.1015520   4.9967422   3.4391348
   5.6449718  33.5728951  51.4184418   5.9072962  33.9505768  50.5789337
   4.9133592  32.9945793  51.2027435  55.5713539  64.4867172  83.2403793
  55.0911331  63.6593132  83.2723083  55.5649490  64.8023911  84.1440048
  70.4268951  40.1191254  11.3260860  70.5369263  39.1775436  11.1935883
  70.4000549  40.2256660  12.2769594  22.2688999   0.3931926  11.8122320
  21.5896015  -0.2811850  11.8137436  22.2009354   0.8035436  12.6743364
  44.0148010  43.9711647  42.7077713  44.7936325  44.3091278  42.2656975
  43.2831879  44.2790337  42.1728020  82.6138611  37.2916832  38.6244812
  81.7798843  37.0201225  39.0078468  82.9738617  36.4911995  38.2425690
   4.4795952  20.0034885  22.9136791   3.7222776  20.5821514  23.0022850
   4.6975226  20.0351448  21.9821548  18.8790894  58.6173439   9.0206919
  19.5260277  59.3171501   9.1099873  18.0745373  58.9871140   9.3842783
   4.3377728  60.5970192   4.7311525   3.4080245  60.4184303   4.5900655
   4.3643861  61.5058975   5.0302539  47.6591339  44.9248009  42.0993996
  48.3654366  45.0123291  41.4593163  47.8912392  44.1474228  42.6073837
  67.8454056  54.4472084  30.9043808  68.1066513  54.6933823  30.0170345
  68.5897446  53.9504013  31.2440586   4.7752542  54.7618713  66.0211945
   5.3043752  55.5036354  66.3145370   4.7863312  54.1528816  66.7595978
  12.7404795  63.3441887  52.8315506  13.4980955  63.3096886  52.2475471
  13.1079397  63.2276993  53.7076950   4.7813153   0.2427666  77.1377106
   5.1948166   1.0750996  77.3667755   3.8597250   0.4626527  77.0015030
  76.6962967  10.3073721  77.0053940  76.7465210   9.3824787  77.2468109
  75.8923798  10.6199312  77.4204254  70.5285263  47.0104065  74.9875183
  70.6555099  46.1080093  75.2804184  70.7150421  47.5419044  75.7614441
  42.6311607  54.9386520  11.5332909  43.0623436  54.9929047  10.6804323
  42.0941925  55.7296181  11.5809422  36.3171501  36.1126976  80.2004013
  35.5528755  35.7728348  79.7349854  36.5257759  35.4360619  80.8445053
  86.3945541  59.5251961  73.1587448  87.0063019  60.0560608  72.6486740
  85.5363617  59.7209663  72.7826996  67.5332565  45.1946335  45.4410400
  68.3133698  44.9195518  44.9593964  67.7494278  46.0677032  45.7685356
  34.3962898   8.4266739  81.9362564  33.7231483   8.0961819  81.3413696
  34.6636810   7.6608982  82.4445114  55.6513748  18.8765736  27.5237064
  55.1000519  18.5315418  26.8214035  55.4783058  18.3010731  28.2687435
  55.8306389  65.3964615  16.5123291  55.6072311  64.5931320  16.9824238
  56.6896210  65.2187576  16.1291828  70.5131302  36.1775818  72.9973526
  71.2160339  36.7914467  72.7844391  70.4951706  35.5686073  72.2590714
  44.2669983  25.0810699  46.4544907  43.7430840  25.7268677  46.9285049
  44.8192711  25.6020069  45.8715210   3.8208025  65.8822556  84.2640915
   3.8914189  64.9279633  84.2881317   2.9121180  66.0489426  84.0136185
  21.8577347  38.1474266  15.5112934  22.7146721  38.4564705  15.8052034
  22.0558815  37.4432297  14.8939819  71.0638275  45.6783867   7.6913013
  71.0469894  46.4194183   7.0856428  71.9755096  45.3867531   7.6876645
  40.3622742  -0.0111630   1.2840750  39.9027786   0.2818230   0.4971467
  41.2357483  -0.2522643   0.9756167  64.6957321  30.1826935  37.5427322
  64.3234406  29.5092983  38.1120911  65.4712143  29.7715435  37.1608620
  65.2735596  60.7618523  85.4860153  64.9391785  60.1686058  86.1586838
  65.1552429  61.6360970  85.8574066  85.5931702  11.2084055  10.1182423
  84.8084259  10.8060102  10.4903889  85.6756668  12.0433617  10.5789747
  78.2070770   6.3765173  39.4351845  78.6528702   7.1732860  39.1476746
  78.7627563   5.6639442  39.1194458  62.2040138  16.3398800  62.6790657
  62.6259270  15.8998222  61.9411163  62.6051826  15.9462004  63.4538612
  20.6489658  16.1734905   3.8816581  21.0819149  16.5130806   4.6648993
  21.3660851  15.8784809   3.3204603   8.9522896  22.6701832   1.7607726
   8.5641232  23.4700832   2.1153424   9.0017662  22.8256664   0.8175818
  76.6082077   7.4568443  14.3522930  76.7753525   6.6113319  13.9358740
  77.0171967   8.0961342  13.7689619  69.5968246  34.9503212  35.2448540
  68.7103729  34.6182747  35.1028175  69.5032959  35.5875587  35.9529572
  57.7492485  55.9107132  32.2953529  58.4722824  56.5004196  32.0815811
  58.0839691  55.3712082  33.0116806  48.9100876  54.2756844  21.2429218
  48.9216805  54.4994431  20.3123150  48.0893250  53.7983398  21.3642769
  60.3381653   8.1612568   5.4917040  59.5502472   8.0103111   4.9695625
  60.1646156   8.9801588   5.9559360  49.7184029  37.7568741  46.5928268
  50.6464920  37.7928047  46.3613319  49.2773895  38.2325325  45.8889198
  13.6112614  51.7657967   8.5935631  14.5571404  51.9032211   8.6451168
  13.2444715  52.6473656   8.5262299  71.0496216  21.2330551  70.4927750
  71.1501846  20.3762913  70.9075928  70.3705292  21.1006699  69.8313065
  42.1130486  27.7043076  13.1481915  42.0142250  28.0112000  14.0494585
  42.4724236  26.8212795  13.2339029  74.6054688  36.5365868  47.1172562
  73.8653412  36.2447281  47.6494713  74.2520370  37.2504120  46.5864372
  76.8316956  15.2283430  86.2127457  77.7137909  15.2410126  86.5842056
  76.6368332  14.2992640  86.0899734   8.2802896  48.0506744  47.5574760
   9.0874119  47.7117767  47.9446907   7.5888367  47.4999771  47.9247093
  85.5251465  64.8159180  20.6081905  85.4570312  65.5908585  21.1659203
  85.2443695  65.1172562  19.7441368  50.6941948  27.3447914  25.4982491
  51.5882149  27.0501804  25.3245754  50.1558990  26.5632534  25.3730850
  24.5444317  37.0340614  63.5218010  25.1967411  36.3391724  63.6104240
  24.9168491  37.7746277  64.0004425  47.8588600  26.1486340  39.1742706
  47.1346893  26.1565304  39.8001709  47.4352646  26.0786915  38.3187561
  86.2916336  41.0369568  56.4597588  86.7308655  40.2244949  56.2083397
  86.9268112  41.4912300  57.0133057  72.7717361  25.7804337  28.4445553
  72.1963501  25.3159637  29.0523586  73.3032150  26.3472004  29.0036068
  86.4882660  36.0100670  25.8148804  86.1496048  36.9032860  25.8757420
  85.7972946  35.4657021  26.1923103  43.5976372  42.8344002  81.1609497
  42.7095757  42.4832764  81.0954666  44.0723686  42.4211388  80.4397888
  38.6364136  45.8151169  44.4179153  38.3264961  45.8795242  45.3212624
  39.4289589  46.3514938  44.3977890  40.0787125  58.2439766  27.5883923
  40.2269745  59.1195107  27.2310543  39.6970558  58.3993683  28.4523506
  67.9789124   5.5623627  57.3285027  67.3942337   5.9393644  57.9859581
  68.8538284   5.8428183  57.5970383  34.3369141  31.7878284   9.6103497
  34.9746666  31.1975517   9.2090101  34.4995308  31.7126102  10.5506306
  24.8177147  27.6441536   2.1011722  25.2770634  28.3126698   2.6094210
  25.4855442  26.9843464   1.9143847  81.3665390  56.0075378  20.6153660
  80.5667877  56.5330849  20.5946999  81.0823517  55.1289406  20.3632984
   9.3543386  54.2190514  62.4558945   8.4454117  54.5109177  62.3858871
   9.7084789  54.7136765  63.1949196  20.3701572   4.6203794  85.3208847
  20.9093418   5.4093957  85.3753281  19.4916821   4.9439063  85.1212692
  16.5428143  20.2725849  71.9025269  17.4354019  20.4596615  72.1932526
  16.6537609  19.7978325  71.0787964  30.3700314  44.9199486  80.3971863
  29.7226849  44.3143806  80.0360031  30.0458107  45.1215935  81.2749405
  74.7024765   5.4843369  59.5572052  74.4384689   4.6615901  59.9690552
  73.9032211   5.8137074  59.1461830  62.2031784  61.2184906  81.1199265
  62.8713951  61.5163460  81.7371826  62.6112747  60.4842606  80.6610184
  46.1170883  16.7711334  69.3029251  45.2995071  16.4370384  68.9339066
  46.1514206  17.6851196  69.0206451  80.6145401  39.5380516   0.4191038
  80.5586853  39.6851959  -0.5250679  80.0812836  40.2346458   0.8020278
  55.6511879  34.5750465  58.4741287  55.2634239  34.8892670  57.6573448
  55.9096222  33.6729889  58.2851028  47.7272301  34.1743813  47.2708359
  46.8064079  34.4356766  47.2642975  47.8148117  33.5868492  46.5202599
  27.5194225  61.0270805  23.9939442  26.8302727  60.6170845  24.5166359
  27.8666039  60.3160286  23.4553318   7.1984034  52.3532143  21.1485901
   8.0021935  52.7709160  21.4579086   7.0329247  51.6542549  21.7812862
  31.7738705  40.5879097  14.4199648  31.3846111  40.9195137  13.6107998
  31.0418262  40.1928978  14.8935747   9.8425331  10.3628311  79.9786835
   9.7388802  10.5421667  79.0441666  10.1512814   9.4575624  80.0160446
  58.8812447  58.2750626  11.8022156  59.7925835  57.9832420  11.7790585
  58.4034767  57.5383873  12.1833687  64.6832581  68.1442261  79.4995422
  64.6748047  69.0879288  79.3396072  64.1940536  68.0351105  80.3150253
  22.1333179   2.3312786   5.9706125  22.4165783   3.2317414   6.1292377
  22.3028069   1.8778868   6.7964096  21.3313332  66.4283905  46.7881241
  21.1121464  67.1580124  46.2086105  21.3589458  65.6646729  46.2117500
   1.8206599  18.9804382  76.6516113   1.5286429  19.3168869  77.4988174
   2.7591183  19.1676941  76.6301117  47.9343910   2.8374276  10.1640663
  47.3030853   2.6271594  10.8521605  48.2969742   3.6847699  10.4224758
  70.8044052  64.3340988  17.1848164  71.0851974  63.4866180  16.8396111
  71.1941376  64.9756622  16.5909023  80.4924850  68.2840805   9.6829901
  79.7530746  67.7446060   9.4028645  81.2659531  67.7768250   9.4366646
  19.3657188  35.0493431  17.8807297  19.7263660  34.3498268  18.4255657
  18.5966873  35.3551750  18.3616543  15.9622641  67.6380310  83.5075684
  15.5417156  67.7251968  84.3630066  15.2615395  67.3452454  82.9249115
   2.9775400  70.5173416  50.8476181   3.5083201  70.8802643  50.1385384
   2.0787117  70.5634308  50.5217133  52.3793030   5.3482189  54.1083336
  51.7593727   5.9609218  53.7127190  52.0127716   4.4835916  53.9231224
   5.1945925  60.0695229  58.0748978   4.9885502  59.8876305  57.1580048
   5.7092113  59.3141441  58.3591499  59.6612053  16.6699867  63.1554794
  60.5630150  16.3895397  62.9995270  59.4095535  17.1251125  62.3518867
  62.4130936  56.4568405   2.3477786  61.8230972  55.8485756   2.7929137
  61.9933510  57.3116493   2.4444797  58.7538490  37.3452187  34.0739899
  59.6739578  37.1187401  33.9385834  58.4467697  36.7183609  34.7289581
  51.7979050  41.3672676  41.1808090  51.7519073  40.5394020  41.6590958
  50.9223595  41.4788475  40.8104057  19.7948990   6.5720878   9.0952921
  20.0864506   6.7577505   8.2026787  18.8400364   6.6218038   9.0505915
  44.2101746  67.7515411  46.5044823  43.5899391  68.4384918  46.7486916
  43.9505196  67.4982681  45.6186676  58.2375793  64.4107742   9.3747129
  57.8032722  63.5823479   9.5779829  57.6113701  65.0822220   9.6453676
  82.3011932  51.3282013  78.6964569  81.8889160  52.0306435  78.1936340
  81.5843658  50.9404984  79.1985321  51.1589661  66.0433578  27.5308094
  50.4358444  66.0313721  28.1578484  51.0702209  65.2221298  27.0471344
  51.7543602  51.3421745  80.9458771  51.8893089  52.2586098  80.7046814
  52.2999153  51.2159920  81.7221985   3.2990718  53.5594025  36.1344070
   3.3276091  52.6581535  36.4556084   2.5943727  53.5606003  35.4866180
  71.8732605  18.1980572  22.1976376  72.2098236  17.3127899  22.0588627
  72.6061401  18.6745300  22.5876179  61.8624916   2.7481837  37.6298866
  61.5542946   3.4368131  38.2189827  61.0631523   2.3772941  37.2560806
  73.1757584  33.6145859  39.6383705  73.2672577  32.9490547  38.9565125
  72.7840347  33.1484833  40.3769722  58.9434891  47.6182518  20.0826550
  59.7757263  47.5360451  20.5483322  59.1580925  48.1180916  19.2950420
  84.3485947  39.4239731  65.7848358  84.3355789  40.0392113  66.5180130
  83.7895126  38.7008514  66.0690155  61.0610352   9.8309765  84.1823883
  60.2410355   9.4759912  84.5256348  61.0140495   9.6735287  83.2393951
  32.2345543  33.9697571  15.8650236  31.6602421  33.5300903  15.2380514
  32.3509102  34.8498077  15.5069675  74.8147125  10.5185547  16.8467350
  75.0902328  11.3704004  16.5080910  73.9809875  10.6927261  17.2835293
  45.0489044  37.3954048  37.3874054  44.8039284  38.1063271  37.9796944
  45.5103226  37.8296547  36.6699448  22.0631771  29.9845486  26.9806194
  21.8361092  30.6522408  27.6278114  22.7453957  29.4631519  27.4036503
  26.4740791  11.2117014  12.5681705  26.8761024  10.4706068  13.0213680
  25.5417767  11.1406202  12.7730894  20.1706276  29.3548222  20.2098293
  19.6331902  28.5653858  20.2745018  19.7126427  30.0010529  20.7472935
   7.7638540  42.3256378  80.1184006   7.4341521  43.1908417  79.8756027
   7.9558525  42.3962364  81.0534897  35.7180977  66.2865448  58.5704613
  35.4952812  67.0987473  58.1155815  36.6573334  66.1782379  58.4210052
  15.5408001  69.8354416  75.5466995  15.1122742  70.4305573  74.9315338
  15.2973051  68.9609604  75.2430115  38.4064407  49.6777344  24.8022079
  38.1679077  50.5544472  25.1033878  37.7476959  49.1030579  25.1921234
  50.6253967  53.8412781  83.3394470  51.4260521  53.5496292  82.9034195
  50.9317017  54.3979950  84.0553207  42.9065514  56.0909729  88.1080399
  42.5816193  56.7453308  88.7264786  42.2498856  55.3948479  88.1288757
  47.0343742  15.1245098  24.7248821  46.6900063  15.9627047  25.0332184
  46.6247635  14.4732265  25.2943382  49.6216469   8.6947699  36.4036064
  50.0861893   9.2793713  35.8047142  48.7025757   8.7699661  36.1469193
  13.1167984  13.3391848  74.1792679  12.8481359  12.4517584  74.4170151
  13.8773222  13.2151508  73.6114197  64.7687683  55.9848099  42.2312965
  65.3471222  56.7090721  42.4704247  64.1999207  55.8711281  42.9926949
  41.1679611  57.6350861  83.2234573  41.3343925  57.5084534  82.2893829
  41.7008095  58.3939629  83.4609604  80.7515869  66.7697372  42.4619331
  80.2440720  65.9840775  42.6654167  80.4307327  67.0465088  41.6036301
  12.2590466  37.0339050  38.9698372  12.0666971  37.6852951  39.6443176
  12.8373518  36.4053307  39.4019089  79.3108139  24.6240654  27.1431618
  79.1729507  24.0898514  27.9253635  78.4378662  24.7215443  26.7627831
  26.6070309   4.0527840   0.1734637  25.8574677   3.8860562   0.7449437
  26.2184792   4.3244090  -0.6580894  15.1192188  17.0396442  86.7894058
  14.8064747  17.5050125  86.0136108  14.3265810  16.8530865  87.2925491
  50.0553932  51.1813583  40.0571213  49.3763313  51.8546944  40.0986633
  49.8602409  50.6934242  39.2570801  79.7844849  45.9424858  39.4966965
  80.5405273  45.7111092  40.0362244  79.2729721  46.5382843  40.0440636
  81.6700287  57.4877930   2.0832274  81.9916000  58.3803406   2.2104325
  81.0023956  57.5685501   1.4020675  15.9565430  50.2949791  12.0773335
  16.8011074  49.8648224  11.9435110  15.5478182  49.8037567  12.7899876
  58.4748611  69.9036560  37.9234543  58.1619835  70.2494354  37.0875244
  57.7863159  70.1295242  38.5488510   4.0477948  50.8835487  20.8202305
   3.2636559  50.5661850  21.2681580   3.7161281  51.3107262  20.0304527
  75.1633911   7.3184161  33.3155937  74.9654541   7.0040503  32.4334221
  76.0726395   7.0586867  33.4640198   5.5077391  51.5767479  57.9523888
   5.2841134  50.7723122  57.4842987   6.0684018  52.0593491  57.3449440
  31.8184090  44.4989891  64.8479996  32.0850143  44.6639557  65.7524033
  32.3497887  45.1017876  64.3279037  20.2920475  68.3216476  78.0020523
  19.7331734  68.2141953  77.2324142  19.7058716  68.1798859  78.7453842
  80.9390564  66.3080597  28.9224319  80.4653015  65.5645676  28.5495911
  81.2870331  65.9790649  29.7512321  71.8255310   7.0082607   8.2224112
  70.9009552   6.9072957   8.4486895  71.9961166   6.3071809   7.5934286
  74.4379807  36.2832222  32.7711525  74.0063400  36.3942451  31.9240437
  74.2180710  37.0775146  33.2579460  64.9614487  37.8719254  78.7806778
  64.1370773  38.1899605  78.4125671  64.7014542  37.3749161  79.5563202
   4.3647008   0.0520503  24.4137936   3.7969289   0.6756371  24.8665695
   3.8164077  -0.7220939  24.2860928  20.8707104  47.9036674  27.6238499
  20.8253403  48.2799530  26.7448826  21.8064747  47.7817154  27.7841702
  17.8068848  60.2847748  88.6264572  17.3865490  60.8154068  89.3031998
  18.0420761  60.9115601  87.9423065  38.7602692   8.4419880  88.4030380
  39.2825737   8.0573797  89.1069641  37.9156609   7.9951844  88.4599152
  37.9726830  43.1891594  36.8729515  37.0311508  43.2224426  37.0421867
  38.1183472  43.8522987  36.1982231  72.7107773   9.7619505  60.0774193
  73.6537933   9.9158039  60.0200462  72.6009750   9.2416401  60.8733139
  70.7314072  22.9524536  49.0065269  70.9732208  22.6562042  48.1290359
  71.4125214  23.5820847  49.2429199  65.2115860  49.6671219  70.7355270
  64.7596588  50.4807434  70.5118866  64.7890472  49.0014610  70.1927643
  38.0328445  43.8948708  77.2830963  38.1615944  43.7384987  76.3475723
  37.7351379  43.0530167  77.6278992  72.3574448  54.4371910  31.7667084
  71.7887344  53.6805916  31.9093990  72.5844269  54.3944016  30.8377953
  80.6392441  42.5898514  13.8676710  79.7110748  42.8196754  13.9114218
  81.0386581  43.0669022  14.5950785  84.4494247  67.0712128  56.7963295
  85.0832748  67.4860611  57.3814430  83.9111176  67.7944870  56.4748573
  39.2395363  29.3328762  16.8990593  38.9451942  29.4919300  16.0022335
  38.5244713  29.6567230  17.4468155  10.1864796  33.6767845  50.4421120
   9.8944683  32.8048248  50.1763077  10.1347036  33.6657104  51.3978462
   9.1819639   0.6417007  75.7191238   8.7281265   1.2579982  76.2939682
  10.0665712   0.9979533  75.6367493  33.7812271  70.2565002   1.4752625
  33.3858795  71.1069107   1.6669415  33.3147163  69.6422729   2.0421116
  82.7850647  44.3579292  69.8125534  83.5404816  44.0710487  69.2994461
  82.3753510  43.5456963  70.1102829  64.5595245  49.9672241  65.4631729
  65.1376190  49.4563370  66.0297775  64.2377396  49.3369827  64.8185883
  31.9145336  42.1855202  28.3662376  32.0648193  41.2942314  28.0511951
  32.0102882  42.7340813  27.5876865  40.5968285   8.1096601  12.4182520
  40.3489609   7.9581389  13.3303022  41.4720078   7.7296352  12.3415947
  78.8358231  11.2857189  22.2931824  78.0993500  10.6742935  22.2927170
  78.9267349  11.5504789  23.2085342  63.0005913  54.8517113  60.8924637
  62.7163963  53.9622993  60.6817169  63.8270454  54.7343979  61.3609123
  14.9869709  41.7835808  88.0509949  14.6543455  41.8987350  87.1608658
  15.0330219  42.6712494  88.4061813   7.8385029  46.8059959  33.3921242
   7.8882933  46.3425598  34.2281761   8.2774343  47.6409645  33.5546036
  66.7684021  54.2206535  46.0302162  65.8960724  54.2007751  45.6366882
  66.6380692  54.6404839  46.8805008  59.6805649  28.1252747  11.9121113
  60.4615364  28.0862865  12.4641953  59.8574524  28.8369122  11.2968769
  75.4098282  61.9333458  23.2615948  75.4444885  61.2302399  23.9101887
  75.0877533  61.5096283  22.4660053  26.2804413   0.3679782  61.7896690
  26.9276028   0.8107851  62.3386078  26.7536144   0.1562293  60.9849930
  70.8414612  49.5801468  55.7706070  71.7126541  49.7349319  56.1357040
  70.5166016  48.8135376  56.2428474  57.7866859  18.4673538   9.5047817
  57.4479103  17.6268539   9.8130398  57.1980515  19.1178188   9.8877172
  20.8309307  38.9480400  12.6463737  20.1623669  39.2507057  13.2609043
  21.6413002  38.9462471  13.1558132  47.9545479  58.0479851  67.8674088
  48.3327904  57.5360374  68.5823059  47.8852119  58.9355659  68.2190170
  15.0615091   6.3890967   4.4004664  16.0071144   6.5289822   4.4503922
  14.9297256   5.5122929   4.7611322  64.9403687  67.8420486  53.4097862
  64.5745392  67.9255905  52.5292091  64.1850281  67.9252243  53.9918327
  85.1264114  53.0713997  62.7510948  86.0825119  53.0556412  62.7940598
  84.9253693  53.7910728  62.1528587  62.0312767  24.0206509  74.1241913
  62.3812561  23.2728233  74.6084366  62.8062057  24.4852791  73.8082199
  76.6003418  32.4024811  51.5593948  77.4517136  32.1203156  51.8937378
  76.5856018  32.0961113  50.6526680  77.9412918  37.7773361  77.6117172
  77.2929153  37.3406601  78.1641235  77.4551468  38.4815331  77.1827545
  16.6505699  48.1441803  57.7669945  16.4299164  48.5632439  58.5988159
  17.5252323  47.7811470  57.9062920  23.2213211  64.4211502  15.3490601
  22.3312893  64.7678528  15.4112844  23.1409683  63.6557655  14.7798901
  39.8208847  40.9177475  44.8868370  39.8868561  41.7842255  44.4854698
  38.8799057  40.7539749  44.9498215  86.3818817  46.3643379  21.9581661
  86.6161499  46.8079643  21.1429691  85.8395844  45.6256599  21.6815739
  47.0043526  21.8514500  69.7065201  46.1697617  21.7728443  69.2444458
  46.7656555  21.8534374  70.6334763  29.9003143  50.6908722  55.4685783
  29.2825794  50.0315132  55.7846184  30.2749004  50.3075066  54.6755142
  30.1322308  26.0942535   5.0260105  30.8830681  26.6720753   5.1623826
  30.1537018  25.4937382   5.7710958  24.4119873  22.4773693  70.0118484
  24.2187729  23.1299286  69.3387451  23.7228832  21.8203640  69.9132996
  12.7187796  54.0054245  47.9580841  12.9052076  54.7505684  47.3869095
  12.0161791  53.5320320  47.5125694  14.3994637   6.8846092   1.3689370
  14.5583973   7.4063511   2.1555486  14.0420904   7.5077872   0.7363505
  40.5294991   1.3488256  35.2396393  40.0382729   1.1838360  34.4348335
  40.6235313   2.3008478  35.2719383  42.4545174   3.8539214  27.3929424
  42.7557030   4.1048927  28.2661724  42.1912498   4.6784649  26.9842243
  20.5839710  38.3553467   8.6489134  19.9315052  38.6626701   8.0195694
  21.0740108  37.6823463   8.1765127  80.3383865  57.2397690  67.4001694
  81.0392456  57.5642586  66.8347168  79.5530014  57.6914787  67.0913696
  48.2182198  42.4905663  31.6767044  47.5296440  41.8936119  31.9695148
  48.8368759  41.9308357  31.2074490  69.5419922   3.1774344  31.8681164
  68.8867416   3.0432038  32.5528564  69.4919205   4.1122818  31.6686516
  77.9334488  50.2986374  73.3171997  78.0225754  49.3458824  73.3404770
  77.2976761  50.4627762  72.6207199  75.0755463  16.1710091   4.8470440
  75.8610611  16.3814735   5.3519263  75.3879395  15.6006041   4.1447048
  69.4887695   1.1671333  88.3032837  69.8542175   0.6459785  87.5883865
  68.5587463   1.2460818  88.0910034  60.6805878  63.1562500  85.2695847
  61.0082588  62.7391434  86.0663834  60.7023315  64.0933533  85.4634705
  83.8362808  42.9436951   8.2642641  82.9112015  42.7231941   8.1554575
  83.8314896  43.7458115   8.7865820  11.0836515  41.3141327  82.6023941
  10.7572432  42.0403023  82.0710068  12.0236769  41.4773598  82.6794662
  84.3323212  38.6858788  34.9286156  83.8418655  38.8806229  35.7272148
  83.9080276  37.9058456  34.5711784  42.2911148  37.7016220  12.7713766
  42.6570816  37.4867706  13.6293621  42.6291199  38.5762558  12.5790167
  27.8111439  33.6077576  87.9382553  28.1947784  33.3665771  88.7813950
  26.8925285  33.3485184  88.0101624  24.2873917  39.9608955  77.9776459
  24.1094170  40.0504265  78.9138870  23.9790211  40.7825813  77.5955811
   9.1295528  55.4593773  10.8020992   8.3771801  54.9013023  10.6053209
   9.7254086  54.8937035  11.2932224  85.7152863  38.7049751  25.8833752
  85.9397659  39.6046257  26.1210117  85.6863708  38.7100792  24.9266262
  28.9075680  26.1339512  84.4390869  29.3266239  26.9425354  84.1444397
  28.1517372  26.4275036  84.9477921  52.4343910  63.2942467  17.5054493
  52.4583054  62.4161034  17.1252804  51.7850113  63.7641411  16.9822521
  15.3224392  10.6151104  15.5863438  15.3451242   9.9421320  14.9060364
  16.0507069  11.1978312  15.3711805  44.7005959  68.5460587  22.0043449
  45.6553879  68.5636063  22.0698795  44.4000473  69.0754166  22.7430477
  47.2207527  43.1009254  17.9794483  47.4148903  42.2838669  18.4387493
  47.8906670  43.1576843  17.2981091  45.8881760  10.9329605  16.4348888
  45.2468987  10.4102163  16.9162750  46.5401344  10.2981844  16.1378307
   2.7667215  69.9988022  43.1659737   2.2416663  70.7657700  42.9372711
   3.6063883  70.1447678  42.7302170  33.9872360  68.5318146  84.8750839
  34.2783432  68.4383850  85.7821426  34.0176048  69.4741211  84.7096481
  16.5275478  48.3019180  37.0779037  17.4815273  48.2343216  37.0380821
  16.3006115  48.9068718  36.3716698  86.2502975  35.3938446   9.7169313
  86.3010101  36.3437042   9.8238440  86.1984634  35.2617989   8.7703018
  16.4005585  37.9934311   7.2282639  16.2992496  37.1401138   6.8065805
  16.0509281  37.8676834   8.1104078  60.7015648  64.6558228  71.6607361
  61.4168968  65.2591629  71.8620071  61.1019936  63.7873726  71.7018433
  49.5371361  14.0303612  12.1652269  48.6082458  14.1662531  12.3521118
  49.8834190  14.9107447  12.0194712   3.6768718  18.7070713  19.7587357
   3.4644961  18.0343475  19.1117649   4.4635348  18.3799152  20.1950417
  61.8647232  43.0708351  57.5673943  62.1481972  43.0737381  56.6531372
  60.9086685  43.0814056  57.5217552  81.9504852  29.9647636  65.7194901
  82.0495071  29.1697445  65.1956863  82.1423264  30.6781063  65.1107483
  23.5765018  61.5900459  18.2930584  23.0257931  60.8071327  18.2941856
  24.3872261  61.3132172  18.7200527  41.6489792  42.3312836  34.9165344
  41.4023895  42.1390495  35.8212280  41.6510658  43.2871895  34.8668022
  69.6201172  65.0550690  85.8681641  69.2799606  64.3027649  85.3838425
  70.3416061  64.6995163  86.3870773   2.4216025  20.9753838  12.4395018
   2.5231214  20.0240021  12.4677429   2.6082480  21.2628059  13.3332491
  73.8308563  68.3128128  11.7197447  72.8788986  68.2218399  11.7613449
  74.0606384  68.7923431  12.5156631  81.1461868  22.6126270  40.3227730
  81.7875900  23.0203056  40.9046974  81.3682632  21.6816425  40.3362465
  57.0918388  45.1452103  59.7959366  57.1659164  45.7402840  59.0498581
  57.8259163  44.5395851  59.6930580   7.6156650  27.1452579  85.8879776
   7.5670481  27.8948956  86.4811935   8.2076731  27.4290543  85.1913986
  24.3826180  62.7780838  34.3924370  23.9707031  63.3156738  35.0688629
  23.7044506  62.1524010  34.1377945  24.7385406  31.9358406   0.8783152
  24.7890759  32.5713921   0.1643442  25.5191669  32.1054497   1.4056544
  53.7868805  38.5699348  81.6603165  53.7043800  38.5905075  82.6137314
  53.1524429  39.2164955  81.3510056  15.6702404  61.3581200  28.3049240
  15.3522568  61.9198723  27.5981331  16.4318829  60.9132957  27.9330864
  10.6177788  69.1130371  17.3787518  10.0968056  68.4917221  16.8700409
  10.1797667  69.1532211  18.2289066  68.4173965  31.4662437  22.5666275
  69.3117447  31.1412411  22.6702976  68.2321777  31.9235973  23.3868427
  33.6695213  46.5170822  63.5615005  34.0625267  47.2698174  64.0032806
  34.4137192  45.9655151  63.3203163  66.8447952  58.6800880  23.0077496
  67.0115433  57.7526932  22.8393421  66.8658295  59.0882568  22.1421947
  86.5499420  44.5788002  81.5693893  86.6239853  43.9946709  80.8147125
  87.0310135  44.1321945  82.2660522  18.5331345  15.1935835   2.2690115
  18.0323811  15.7140741   2.8971577  19.4439125  15.4456806   2.4212046
  55.7633133  47.5052490  49.7411308  54.9642792  47.7353935  50.2152748
  55.4991570  46.7938232  49.1577606  45.6985664  19.5934601  61.3250160
  45.1430359  20.3561401  61.1639595  45.8969002  19.2531033  60.4526329
  15.0933628  22.1727066   0.1069451  15.8284941  22.5400410  -0.3838489
  14.9614372  22.7825089   0.8328710  81.9076309  44.2993584  22.3147106
  81.6674347  44.7429352  23.1282101  81.6015320  43.4001427  22.4328308
  17.6546135  54.5289803   7.2656751  16.8510628  54.9662285   6.9839807
  18.2302399  54.5705338   6.5020261  53.2286224  40.2169266  84.2047501
  53.6145401  39.3497238  84.3282700  53.9478493  40.8254623  84.3739548
  11.4227581  47.8073769   9.4444675  11.4703026  48.7581062   9.5448675
  11.2346678  47.6737442   8.5154915   1.4506072  57.0807114  73.6297455
   0.7754698  56.4634323  73.3479843   2.1939452  56.5284843  73.8720856
  13.8045044  57.2642899  86.4936905  13.0985537  57.3953896  85.8606949
  13.4732199  57.6491966  87.3050613  33.5492821  60.0625000  66.3659134
  33.4241943  59.4051437  67.0503616  33.3847656  59.5918159  65.5488358
  37.7597046  31.4030361  57.4190636  38.2666550  32.1875381  57.6283302
  37.3598480  31.1474476  58.2503433  47.6256561  19.1435051  49.0812531
  48.0368881  19.7064705  48.4253616  47.0960617  19.7398148  49.6105728
  72.9899368   6.0196157  16.9841900  73.4326935   6.6126337  17.5912552
  72.0672150   6.2688999  17.0359936  83.2322617  27.6126728  11.5413017
  83.4340668  26.8346558  11.0214977  83.9259796  27.6472511  12.1999245
  58.9995499  40.6026802  15.8083115  58.9377670  39.8930969  16.4477673
  59.9382362  40.6995163  15.6479378  60.3894157   1.1709079  72.7158508
  59.5335464   0.8891990  72.3928070  60.8849945   0.3587396  72.8208008
  34.1644249  40.8365364  31.7338867  33.7084656  40.0163231  31.5452614
  35.0574074  40.6915550  31.4211636  46.9904709  51.2205315  38.2004967
  46.4010887  51.6493950  37.5800629  46.8943138  51.7236404  39.0091171
   2.4726262  50.9997025  63.6556664   3.0996964  50.6889763  63.0026207
   3.0147028  51.2886963  64.3897400  49.5709305  40.2008514  76.3912735
  48.9785347  40.8969078  76.6755295  49.8414879  40.4613075  75.5108261
   8.7615042  61.0920486  44.6722183   9.2311306  61.5864868  45.3439407
   7.9669628  60.7874794  45.1105957  79.2263641  41.1153526   9.8593178
  79.3925095  40.2292786   9.5376110  79.9417343  41.2857628  10.4720516
  24.0784702  56.9108658  75.7493515  24.2484531  56.0126534  76.0331650
  23.8342247  56.8286018  74.8274994  30.5638180  63.7211494  53.2799492
  31.0280685  63.2619362  52.5800705  30.7041874  64.6491089  53.0917625
  14.0470505  17.4402828  31.9734077  14.5888233  18.1932487  32.2095337
  13.2166834  17.8223724  31.6892776  43.0036926  29.9830322  58.7751236
  42.6970062  30.1989651  59.6557770  43.4141579  29.1233654  58.8685265
  45.0862389  19.8278332  23.1371346  45.7211685  19.8517094  23.8530445
  45.4470291  19.1931362  22.5180855   0.4284563   5.5226040  64.3476486
   0.6865237   4.7806702  63.8006859   1.2153814   5.7355013  64.8493042
  47.8761597  42.3580284  76.4845352  47.0399818  42.5613327  76.0653610
  48.0320396  43.0933647  77.0771637  54.3396149  62.1885834  81.8432541
  53.9840279  61.4731293  81.3160782  54.7836189  62.7540092  81.2112885
  68.2355042  70.5079880  52.0551720  69.0210114  70.3563538  52.5807419
  68.5581665  70.9281921  51.2579536  79.0712204  30.1869431  50.1799164
  79.8224335  29.5969715  50.2419014  78.9866791  30.3695660  49.2441101
   6.2504196  59.4154701  48.6951637   5.8049717  60.2283478  48.9339867
   5.5899000  58.7343292  48.8216133  31.4938469  66.5460052  83.5326538
  31.5038567  67.4979172  83.4326782  32.1192284  66.2300949  82.8804779
  13.3125887  45.2689400  60.7838135  12.3900480  45.0243492  60.7108269
  13.6374388  44.7594643  61.5262032   1.8967637  38.8999138  48.9200974
   2.0834906  38.4121704  48.1179314   2.4953461  39.6463089  48.8914032
  75.8057022  12.6778736  50.3517761  75.1697159  12.7747116  51.0605583
  76.0059433  11.7419863  50.3358536  66.4072266   9.8005028  54.1304779
  67.2294617   9.8291693  53.6412659  65.7787476   9.4147530  53.5201950
  72.2281342  39.7011452   9.1251297  71.7202148  39.6676102   9.9357624
  72.3028030  38.7869987   8.8512793  21.8871078   5.3282747  63.0304871
  21.9199848   5.4315491  62.0794411  22.5548439   5.9297838  63.3599472
  85.9796371  13.6558819  17.7960606  86.7732315  14.1052885  18.0867043
  85.2649155  14.2305536  18.0702038  83.7278366  58.0420647  68.9224701
  83.3555832  57.6716003  68.1222153  84.5266495  58.4830513  68.6332245
  70.0147324  38.0686913   6.3941102  69.1132050  37.7901192   6.2332687
  70.0105515  39.0088882   6.2145371  64.4459000  19.1516266   5.5405960
  65.2252121  19.7047749   5.5946717  63.8519516  19.6304684   4.9625225
  58.9661789  57.0018158  81.4124908  58.0428848  56.7510872  81.3825912
  59.4369621  56.2154884  81.1362991  84.6181183  57.1837845  55.7384872
  84.8654785  57.8992615  56.3242645  83.9378967  57.5573120  55.1781197
  56.5814934  46.6606483  19.3387012  55.9284592  47.1040649  19.8801422
  57.3616447  47.2112503  19.4052963  23.7359180  37.7726097  76.4411850
  23.9572296  38.4685249  77.0600204  23.2097759  38.2073097  75.7700348
  61.4824409  10.7090359  41.7761154  61.9603310   9.9037104  41.9743690
  60.8504066  10.4532738  41.1042900  26.4761238  19.7392216  18.9316578
  27.3753815  19.4145813  18.9783344  26.2098331  19.8391972  19.8456192
  79.6508026   0.7644691  74.8332596  79.0174179   1.3218046  75.2854004
  80.4646149   1.2682465  74.8452530  27.9209900   9.2633028  76.0005875
  27.1420021   9.5592709  76.4715576  28.6543961   9.6026211  76.5136261
  61.5120773  25.8911228  16.6687603  61.3440437  24.9857464  16.9300823
  60.9094124  26.4099674  17.2015152  28.0580482  52.8747482  48.8184395
  28.6865273  52.9359818  49.5378151  27.6410923  53.7359200  48.7907143
  29.6962337  66.4551773  30.9332886  29.2766495  65.8446884  31.5394897
  30.4148064  66.8372192  31.4372025  67.1792374  55.4755898  83.0948868
  66.8488922  54.6346359  82.7788239  67.6596680  55.8390465  82.3510284
  56.4199753  47.9330978  42.4475250  55.8592949  48.6563988  42.7280693
  56.3385201  47.2825012  43.1448898  85.6509476  44.4889641  71.0358047
  85.7404175  45.2277527  70.4337921  85.5424271  43.7275047  70.4660339
  68.2422409  32.3522720  89.0077057  67.6900406  32.0149994  88.3023300
  67.6347427  32.5198250  89.7281952  40.7931671  39.8017311  59.3982964
  41.6337433  39.4488831  59.1064606  40.1930237  39.6199074  58.6751099
  40.6519012  64.0338135   3.4917579  41.4216843  64.4516373   3.8778841
  40.1617317  63.6956291   4.2411571   2.2685022  36.2966652  77.5191193
   2.2791495  37.2051659  77.8203506   3.1069770  35.9380531  77.8099594
  47.5881233  20.0687561  63.4413338  46.9954720  19.8880291  62.7117233
  48.4630127  19.9255390  63.0803757  57.0019760   2.7394078  89.2512665
  57.3266068   3.0934443  88.4233170  57.4898300   1.9246174  89.3710403
  17.5817432  67.6996002  60.4050484  17.0867119  67.4834061  59.6148338
  17.0086117  67.4381485  61.1257401  18.8689270  62.9353638  46.0913734
  19.1162167  63.0491982  45.1737022  19.5764828  62.4113388  46.4668655
  70.6431198  53.5752335  85.8192596  70.6740265  54.5286407  85.7399597
  70.8395691  53.4050179  86.7404861  40.5210228  29.1373863  21.6998501
  41.2941895  29.7009068  21.6699409  40.0161591  29.4627972  22.4451351
  40.1208420  49.3845062  71.0048141  39.6165924  50.0665817  71.4483643
  40.9991112  49.4543610  71.3789749  25.5133724  51.2865295  23.7917423
  24.8487968  50.9220047  23.2071972  25.7796440  50.5492172  24.3410130
  65.8149414  34.2348938  81.9813385  65.7325897  33.9162445  81.0824966
  66.6386566  34.7224121  81.9881058  47.5074081  58.5295448   3.6419613
  46.6666794  58.8249626   3.9914446  47.9834785  59.3371239   3.4485667
  24.2391930  17.9672222  84.3449020  25.0974216  18.2962036  84.6121902
  23.8573589  18.6812325  83.8343887  71.7550583  24.6371098  67.5545349
  71.2344589  25.4120045  67.3429947  71.7993469  24.6320305  68.5106964
  18.4113560  55.9341812   9.3664503  18.8436069  56.7480125   9.1074629
  18.4254513  55.3936386   8.5766125   3.6003542  56.8586197  54.0177650
   2.8787959  57.3142738  54.4513168   3.7940047  57.3941689  53.2484055
  73.2460175  44.5615044  68.7420044  73.0118408  45.3748627  69.1890335
  72.9384689  43.8693810  69.3273315  11.3656054  70.4882507  87.6407547
  11.2464714  71.1014938  88.3659973  11.3686457  69.6252670  88.0548477
  51.0564041  33.6398392  72.4056168  50.2028732  34.0470009  72.2574921
  51.1974487  33.0916328  71.6337280  74.9000854  19.2218323  73.2886353
  74.0789185  18.8383846  72.9806061  75.1239243  18.7139072  74.0684662
  10.1446571  56.6235619  61.1121254  10.3778257  55.8183899  61.5742531
  10.5842333  56.5494270  60.2650681   6.8757153  57.2833405  75.5359192
   6.8907318  57.6006508  76.4388657   6.5846071  58.0366669  75.0221252
  54.5771713  17.6479626  13.9195995  55.4560356  17.8549671  13.6018324
  54.0433769  18.3961239  13.6521120  60.0677872  24.7804356  13.7026606
  60.9606819  24.4369659  13.6709518  60.1652603  25.6699352  14.0425425
  50.0063896  31.1000462   5.7228260  50.1908951  31.4837456   4.8655257
  49.2899284  30.4861813   5.5613084  24.8318577  67.7432098  73.3099213
  24.6611614  66.8753204  73.6757965  24.4551678  68.3500824  73.9471436
  28.3735256  15.6814032  13.1386251  27.4895973  16.0298328  13.2548075
  28.3075390  14.7657003  13.4094877  76.8249207  60.0330658  48.0489120
  77.0494156  60.7141685  48.6828918  75.8678741  60.0172462  48.0431786
  51.8482971  68.5225830  53.5205917  52.5903168  68.0299759  53.8712578
  51.6122971  68.0600739  52.7164612  84.1204376  39.3218880  52.9682655
  84.9752197  39.2003784  52.5549545  83.6668015  38.4905663  52.8291779
  77.4932556  55.1471748  61.7380219  78.3881226  55.4841461  61.7815781
  77.5152512  54.3416290  62.2545891  82.2456665  54.7338448  51.7219238
  81.9476395  55.0080986  52.5892143  83.1956177  54.8486061  51.7477188
  73.7933197  48.2910423   0.3555064  74.5433655  48.1002235   0.9187576
  73.2713547  47.4888458   0.3717740  71.8136139  35.9248428  18.4485893
  70.9568329  36.3403168  18.3509541  71.8975525  35.7671204  19.3889675
  48.4249802  64.5994568  57.5534554  48.6180038  65.1915054  58.2804031
  49.2651978  64.1888046  57.3494225  79.9439087   4.4427853  74.8701248
  79.0508499   4.1483965  75.0490341  80.3166580   4.6161265  75.7345657
  22.8043671  31.8594646  65.7898560  23.4157047  31.4943848  65.1501541
  23.1115627  31.5252457  66.6325684  18.4725914  57.1854019  68.5659866
  18.4619961  56.8385925  67.6738815  18.9283314  58.0238533  68.4916077
  49.3043518  49.7667389  80.0702515  49.9219780  49.8295364  80.7988281
  49.8578262  49.7020874  79.2919693  83.2068405  71.1333084  23.7351284
  83.8363724  70.9276199  24.4262276  82.3520432  71.0547333  24.1586571
  33.6209068  59.9795036  14.2948647  32.7652855  60.0687180  14.7146034
  33.6451187  60.6847496  13.6481237  17.4252853  48.8185120   0.3439996
  17.6897621  49.7346725   0.4272646  17.0014420  48.7684937  -0.5127888
  51.2495537   7.8168626  67.2493210  51.5877266   8.4350567  66.6014709
  50.8068047   8.3661470  67.8962326  72.1561432  22.8737030  82.2885895
  72.9776688  22.3834782  82.2569427  72.3406372  23.6814766  81.8093262
  26.5458450  38.7049980  13.7512693  27.1539478  38.2954636  14.3666744
  25.9906082  39.2613068  14.2975903  57.8914490   6.3497581  22.3641911
  57.7317200   5.8577437  23.1695728  57.2067451   6.0550737  21.7637100
   5.0575280  51.2876282   0.0231557   4.5337024  50.5943222   0.4246111
   4.7693453  52.0890465   0.4600890  66.6594620  35.9082947  73.0443268
  66.8092041  35.4774399  72.2027969  65.7934265  36.3068581  72.9585953
  44.2363777  47.2441254  46.9633980  44.3813171  46.3596764  47.2995110
  44.6736412  47.2514191  46.1119385  39.6536789  19.9119110  73.9188461
  39.5689888  20.6517048  73.3173752  38.7517548  19.6641216  74.1222305
   0.0829762  43.9979782  11.8282280  -0.2325901  44.8970146  11.9197903
   0.8378632  44.0674629  11.2438059  34.1599808   1.2784859  62.0868683
  33.7432480   0.9934129  61.2736664  34.1480751   2.2344525  62.0397758
  14.1659365  36.0214272  79.3005524  15.0732517  36.3264046  79.2993774
  14.1350079  35.3643913  79.9959564  56.0926666  10.5621452  69.6495743
  55.4930000  10.2688217  70.3355713  55.6842461  11.3524685  69.2962875
  35.4754677  29.9580173  81.7910614  34.8593559  29.7180729  81.0989151
  36.0711327  30.5817261  81.3758469  15.7207594   1.9881560  58.9038048
  15.2410488   1.2122047  58.6139641  16.4793587   1.6396936  59.3721390
  14.4389048  44.2738686  30.4986210  13.6798124  44.7611008  30.1782894
  14.5428438  43.5552254  29.8749371  35.0922546  16.3296280   3.3717921
  35.1601906  16.0550709   4.2862506  34.6472206  15.6028500   2.9359386
  11.3184137   2.4144650  78.7896347  10.6637411   2.4638114  79.4861984
  12.0043945   1.8494898  79.1452560  60.1021461  34.9267960  38.6846161
  60.8097000  34.6191826  39.2511559  60.1285286  35.8802719  38.7647057
  79.4440842  35.9185486  37.3498573  78.8444595  35.8849411  36.6045036
  79.1826706  36.7028084  37.8323860  30.9611797  15.1269026   3.3794427
  30.2921600  15.7999439   3.5045836  31.7897949  15.5820799   3.5292439
  35.7876282  42.8677101  40.3897743  36.2751579  42.0910683  40.6643181
  35.4888382  43.2645760  41.2079773  52.4965515  57.5421219   5.5763311
  51.6062469  57.5499611   5.2248654  52.4942741  58.2225494   6.2495675
  85.8138351  52.9330788  56.5169487  85.9256134  53.8830452  56.4808960
  86.1843948  52.6802330  57.3625145  50.6925430  44.5617218  66.5893555
  50.5746117  45.3436432  66.0499802  50.0806618  44.6776543  67.3162613
  38.6744919  46.2923164  13.2790813  39.2120705  46.4739113  14.0499678
  38.2971115  47.1402931  13.0450945  76.9336243   6.1347418  85.1958771
  76.5790863   5.8099418  86.0235443  76.7587280   7.0756679  85.2132111
   8.2327986  50.0981712  22.4857616   7.8106027  49.7257423  21.7116280
   9.1177683  49.7335663  22.4746742  66.4313431  34.6332855  25.8772621
  65.9472351  35.1139221  25.2058048  67.2131195  35.1628571  26.0341282
  33.3240318  13.1311445  88.0343094  33.0683174  12.2251425  88.2075195
  33.8125267  13.0891428  87.2122116   2.2249408  58.3364372  63.3638382
   2.0386629  57.6997795  64.0539093   1.5537755  59.0102654  63.4721107
  35.2161484  30.5974026  22.0948448  35.6885796  30.0148163  22.6895142
  34.5993156  30.0250340  21.6386185  48.6572952  64.6669083  77.8050385
  48.7891655  65.1308975  76.9782639  48.8765106  63.7565613  77.6064072
  15.1867571   4.0859518   7.7958021  15.4055309   3.9618623   6.8722377
  14.3397636   4.5316906   7.7835116  44.2793312  58.0049706  27.7883720
  44.6300735  57.5153427  27.0444126  43.9708672  58.8280563  27.4094067
  51.7663345  12.0089741   2.4451950  51.8143997  12.9521866   2.2893982
  50.9217186  11.7482872   2.0779099  52.6745110  45.9025459  14.4813557
  53.0600929  45.1120148  14.1036997  53.2811394  46.6030350  14.2414684
   7.4082775  60.9278679  82.9746017   8.1159630  60.3710594  82.6499863
   7.0311751  60.4353218  83.7035904  70.1155624  56.7884216  85.6568375
  70.4013596  57.0097275  86.5431595  69.2820206  56.3343391  85.7803268
  80.3087463  58.8221474  76.6679535  79.7459183  58.1275902  77.0100784
  80.9838181  58.9348183  77.3371429  19.1216927  18.2148342   0.5909553
  19.6808968  18.9120579   0.2483154  19.1971264  18.2928829   1.5419812
  39.7587700   7.8367038  81.1758804  40.0202789   8.0735130  82.0656891
  39.6868896   8.6734734  80.7166595  32.6267700  29.0730820  17.5636444
  32.9734230  29.6236515  18.2657394  31.7131901  28.9224052  17.8063354
  83.4742355  52.6997108  72.3386230  83.7431259  53.3980408  71.7417450
  84.0688553  52.7799187  73.0844269  73.3099976  51.5279388  55.4595108
  72.7258759  51.1021805  54.8320045  73.9436798  51.9970360  54.9167175
  79.4576187   8.9113913  42.2172470  78.8917542   8.6970234  41.4755745
  79.5283585   9.8657494  42.1965446  69.2469406  21.7462635  30.0673904
  69.2857132  20.8113289  29.8658276  68.6574326  21.8049412  30.8192348
  74.8320389   1.0007427  29.6626720  75.0337524   0.1371722  29.3024063
  75.5790634   1.2062037  30.2247925  18.4175720  37.2132645  20.6745777
  18.1791039  36.6495857  21.4105358  17.7292061  37.0647316  20.0262547
  58.8325043  56.0549774  24.7782707  58.5381966  56.9446526  24.9734459
  58.0749893  55.5036697  24.9743919  70.8982697  59.4523811  53.3091087
  71.2496490  60.1979103  53.7958870  70.4007950  59.8470001  52.5928497
  72.2358932  13.7486467  76.4679642  72.5694427  12.9292736  76.1024399
  71.7669830  13.4844522  77.2595139  17.0084915  33.3943748  14.2702885
  16.9561234  32.5580788  14.7329950  17.8813763  33.7283058  14.4771500
  60.2186546  66.5732346  21.1395054  60.6925697  66.5606537  20.3079529
  59.4668884  67.1433640  20.9781418  58.3382568  25.4228153   0.5142514
  58.3565826  24.9406471   1.3409377  57.4071770  25.5234871   0.3162852
   0.4836713  70.8253174  72.5891953   0.3834492  71.1050949  71.6792984
   1.3794483  71.0727234  72.8185654  54.5561676  48.0433731  20.6465893
  53.8440895  47.9453506  21.2787056  54.6499786  48.9895592  20.5363026
  31.3602791  55.5813713  73.3553543  30.5703163  55.0820503  73.1483078
  31.5736847  56.0398827  72.5426712  25.1401024  45.3091164  27.0841217
  25.6794453  44.5184288  27.0965309  24.9966640  45.4866371  26.1545296
  16.1132069  43.0323906  32.4677696  16.7462959  43.6955948  32.7427063
  15.3867788  43.5337067  32.0973473  75.1996613  54.1943550  27.9043846
  75.8681412  54.2054176  27.2193756  75.5553818  53.6133919  28.5768261
  27.9926319  38.4340134  31.6868134  28.6992741  38.5231781  31.0473289
  27.7254848  37.5171204  31.6222782  34.7049026  69.6523361  53.0194664
  34.4560966  69.8340836  52.1132126  35.2164726  70.4164658  53.2852364
  48.1588478  23.6712723  79.3780441  48.1156120  24.0060444  80.2737503
  48.0205307  22.7283840  79.4678192   1.1224544  17.7600613  21.1541157
   1.9676857  18.2042656  21.0870419   1.3228081  16.8382244  20.9919319
  35.3844376  33.6856995  66.2789001  36.1858940  33.6467896  65.7569885
  34.6791534  33.5566711  65.6447372  41.5250626  69.7445221  44.0961075
  41.3571014  70.6589661  43.8684921  40.9596634  69.5776749  44.8502426
   1.0554343  22.3480415  86.1763077   1.0628953  21.3999329  86.3077087
   1.8035837  22.5163403  85.6034317  23.1278477  40.5669746  88.7363129
  23.3644924  41.3997345  89.1446457  22.4733696  40.8004494  88.0779953
  81.3030396  25.3273468  22.1260815  81.7392883  26.1790638  22.1482525
  81.8572540  24.7603436  22.6623516   4.5387907  60.3896561  52.9178734
   3.9964063  60.7904282  52.2385864   5.3124676  60.0736504  52.4511871
  21.5184193  71.1135559  81.2113800  20.6826801  71.2763977  80.7740555
  21.8823643  71.9854813  81.3647766  81.2939072  16.4207458  52.1268082
  82.1053009  16.6019840  51.6524391  80.9184799  15.6629620  51.6784210
  18.8416138  41.9584999  63.4409866  18.9636269  42.8623276  63.1504059
  19.3154831  41.9077606  64.2711105  74.6920471  47.2805786  43.1313629
  74.4256516  46.6045532  42.5082626  75.0943298  47.9599648  42.5902214
  11.7188654  52.1686897  35.0544090  11.3998413  52.7148743  35.7728386
  12.3475218  51.5753822  35.4655190  31.1939163  68.7199402  35.3501740
  31.4199409  68.2505493  36.1531792  30.5614605  69.3818665  35.6296120
  23.2490120   4.4928522  83.0811386  23.7107277   5.3120470  83.2599411
  22.5298691   4.7447605  82.5018234  13.4358978   8.2969379  88.1740417
  13.3567696   7.4093146  87.8246231  14.2288218   8.6450739  87.7662354
  59.7388954   5.5130901   0.8149341  59.0341148   5.2503881   1.4069661
  60.4905701   5.6619439   1.3885702  57.5697174  35.2421799  65.2538147
  57.9888115  34.3978653  65.4203262  56.6658783  35.1225662  65.5453644
  14.6930952  47.1618500  80.2814713  15.4029770  46.5908661  79.9877472
  14.9032030  47.3545265  81.1952362  53.0272141  68.3293610  78.5596008
  52.2051773  68.0318146  78.1697845  53.6038551  67.5667191  78.5138397
  60.1320457   3.5012660  70.5112457  59.8032455   4.0128322  69.7720413
  60.2612228   2.6220729  70.1554871  76.8305817   1.3699112  78.9454346
  75.9936066   1.3876450  79.4095383  77.0355377   0.4391376  78.8566437
  60.3603745  -0.3007674  80.9498291  59.9357796   0.1085252  81.7037735
  61.1588402   0.2103914  80.8179245  41.1487122  13.4500742  23.1125736
  40.2029190  13.5053349  23.2491646  41.3874435  12.5822315  23.4382839
  57.7258835  32.8952293  15.4513731  57.8369751  33.5153999  14.7307644
  56.9649544  33.2206802  15.9323082  36.9438515  61.1142235  15.1553631
  36.7137108  61.3670387  16.0494289  37.2672310  61.9208450  14.7540913
  50.0801888  22.3556042  84.0252457  49.1415787  22.2273998  84.1623688
  50.3596916  22.8914604  84.7675171  70.8415070  69.2356873  71.3138580
  71.0508041  69.2850876  72.2465897  70.2889252  68.4582672  71.2332306
  21.4626999  54.0737534  52.1134682  21.0055809  53.7406158  52.8856659
  21.0298519  53.6448288  51.3752937  33.9762268   2.7328622   2.9771841
  34.2126389   3.3139808   2.2542446  33.4202042   2.0651071   2.5757179
  79.4093323  67.8171692  72.6043625  79.6340790  67.8179932  73.5348053
  79.1974869  68.7298126  72.4083252  76.3495407  43.6722870  59.9475212
  76.5231552  43.5214844  60.8766861  75.4744263  44.0595894  59.9271545
  77.7211304   6.8347750  18.6285934  76.8297577   6.4862537  18.6433144
  77.6165848   7.7488146  18.3643360  26.6428699   0.9212365  18.1337204
  26.1858368   1.4649425  17.4920540  26.5101814   0.0246718  17.8258286
  31.3007088  28.8074017  66.8611679  30.4097233  28.7816887  66.5122910
  31.6175404  27.9082355  66.7754288  31.5029011  15.0682430  88.7320175
  31.0061111  14.4402599  89.2564850  31.9206619  14.5368242  88.0542984
  80.6312561  56.5490227  33.7759132  80.3967667  57.1160889  33.0412827
  81.0663376  55.7991066  33.3702507  71.4943924  70.3715210  36.3162308
  70.6859741  70.4979782  35.8195457  72.0643234  69.8797684  35.7249641
  62.8469467  35.5348816  26.0476875  62.9210701  36.4858818  26.1272888
  63.3952484  35.3140907  25.2947960  19.7072239  46.7603111  81.1818848
  20.4362354  46.3123322  81.6109390  18.9781990  46.1429062  81.2416077
  60.5068092  21.4914227  14.1459475  60.3355942  21.6219673  15.0786190
  60.9652405  22.2861557  13.8730555  40.5530167  53.8702126  85.6920090
  40.6296005  54.4006882  84.8989334  41.1491737  53.1354637  85.5471878
   1.1848745  23.5617371  25.7944126   0.6636298  24.2307091  25.3505497
   2.0835390  23.8879395  25.7472267  17.6502953  13.5612640  79.5195465
  16.7524643  13.7485571  79.7935028  18.0305595  14.4213381  79.3409271
  48.7428551  44.7792740  55.8042412  47.8740578  45.1748238  55.8746986
  49.0322647  44.6739082  56.7105370  34.3786507  39.7480621  41.2989960
  34.0740585  39.7463608  42.2064400  34.1703949  38.8718376  40.9748077
  22.9513912  51.9638863  35.9817085  23.8379173  52.3230743  36.0175781
  22.3959332  52.7167587  35.7795067  74.8780365  47.3577423  11.1633053
  75.2876205  48.0492134  10.6433630  74.5505219  46.7333794  10.5158987
  85.0322418  47.3633690  44.2500801  84.6149445  47.8799362  44.9394646
  85.9457169  47.2889709  44.5262108  67.7557602  21.6986790  54.8706970
  67.6134262  20.9124107  54.3436737  68.6804810  21.6592751  55.1147614
  61.8216667  18.7130241  24.8827515  62.3820229  19.4887371  24.8603001
  61.2029648  18.8849545  25.5925999  80.7362366  10.1000261  52.5228539
  80.9145203  10.8888063  52.0107307  80.7616501  10.3946934  53.4332161
  72.7552795   2.2237697   8.8970261  73.6401367   1.8890147   9.0426197
  72.3739395   1.6224146   8.2573538  47.3740692  47.4251251  80.4937592
  46.8543129  47.4991570  79.6933823  47.6451988  48.3225250  80.6871338
  17.1968651  16.7717018  59.1223450  17.2201195  17.6992607  59.3575592
  18.0942230  16.4675655  59.2582932   5.3790565  54.4719124  37.9872894
   4.6994328  54.2279625  37.3589325   4.9261909  55.0178680  38.6300011
  32.7477150  70.9819794  16.8731499  32.0884094  70.4245911  17.2865143
  33.5624199  70.4851074  16.9479637  56.6074028  45.0957222  13.8912468
  56.7393570  45.7015152  14.6205158  56.9189987  44.2527618  14.2207298
  11.0119858  35.6567841  55.3710136  10.7023115  34.8384171  55.7590981
  11.4048500  35.3936005  54.5387726  58.4457970   9.1756325   2.2344003
  58.4965782  10.0510464   2.6182036  59.2832642   9.0622215   1.7849357
  35.6509171   5.9869208  86.7319870  34.7339287   5.8331866  86.5045395
  35.6270485   6.2667208  87.6470642  31.4897690  42.7300797  22.3095074
  30.5692387  42.5770912  22.5226974  31.4913330  43.5637360  21.8391399
  31.8381557  71.8330078  77.0523071  31.2832127  71.0562439  76.9823074
  32.4054413  71.6552658  77.8025284  67.0881119  52.5609932  88.2683716
  67.2235107  51.9815445  89.0181351  66.6131897  53.3104362  88.6275635
  52.9360542  28.3309231  80.4286575  53.2240753  27.4220066  80.5131989
  53.2196198  28.7486572  81.2418747  75.2789841  59.5895233  50.9581757
  75.2086182  58.6378479  51.0329552  74.4534378  59.9193459  51.3130302
  43.4138908  23.3423595  78.1157303  42.8986435  24.1443729  78.0289688
  43.5117302  23.0223408  77.2189331  70.5027771  37.0655212  24.2466946
  70.8120270  37.5770912  24.9942856  69.8763428  36.4469566  24.6224422
  72.5697098  71.0291443  58.9320641  72.9527283  70.3354950  59.4690666
  72.2540817  71.6748276  59.5642929   4.4816995  44.2007484   3.0112641
   5.3678942  44.4319534   3.2895358   4.0652361  43.8551750   3.8008008
  58.9991455  48.4466133  87.5079193  59.1724777  48.0585747  86.6502380
  58.6174774  49.3020706  87.3110580   5.9707999  70.8471985  87.9698563
   6.8629570  71.1146317  87.7490234   5.9840002  69.8922958  87.9049377
  41.4267731   8.7263746  67.2520676  41.4942856   9.6783857  67.3252106
  41.9611816   8.5062828  66.4890442  26.2471733  43.2199173  47.6805801
  27.1329498  43.3971748  47.3640137  25.9826679  44.0292702  48.1178665
   6.4826345  37.8923721  37.8019981   7.3517551  37.7029839  37.4484558
   6.6495967  38.4483528  38.5630798  12.0523529  49.9490471  67.0857315
  12.2840767  49.2285309  67.6717300  11.3030624  49.6215897  66.5881729
  70.4418182   1.5710554  17.6224480  69.9705582   1.6342652  16.7916985
  69.7865829   1.7855808  18.2864361  45.4528770  70.1689148  44.3622665
  46.1828995  69.5594254  44.4709702  44.8632164  69.7295151  43.7495232
  21.9957981  36.2196121   7.6183033  22.3376274  36.1594124   6.7262492
  22.7683907  36.1351814   8.1770563   0.3365234  62.3376961  87.3538742
  -0.1497894  61.5138397  87.3854523   0.0452371  62.8176308  88.1291428
  58.4917603  48.3397827  82.0320663  57.5749855  48.2078819  81.7904892
  58.8919258  48.7246513  81.2523422  18.1461868  43.5314369  71.3216019
  17.7384510  42.7190704  71.6216660  18.7657547  43.2534981  70.6469803
  85.4523087  43.3610687  47.2397270  85.2974854  44.2766647  47.4720001
  84.7506256  42.8805771  47.6790428  18.6960487  45.6447906  35.8736916
  19.0040169  46.5507431  35.8485069  18.1912842  45.5408936  35.0670624
  76.4044342  64.4973373  64.1375351  77.0545425  64.8908844  63.5555496
  76.3635788  63.5804253  63.8657990  51.6557770  48.6187553  46.3887024
  52.5576096  48.6622429  46.0708351  51.7247925  48.2051392  47.2491646
  15.9779329   9.3907146  80.8669968  16.0148201   9.4617062  79.9131470
  15.0432291   9.3426523  81.0676270  85.7963028   5.1961136  60.6274605
  86.7067947   4.9793553  60.8281059  85.3452072   5.1386418  61.4697456
  10.6712933  45.1185493  41.7853813  10.5085573  44.4147491  41.1573563
  11.3025188  44.7479515  42.4021835  65.1130600  27.2792263  27.4341393
  64.1637726  27.1593838  27.4071083  65.2873917  27.6127968  28.3142338
  21.7784958  61.5793839  21.0318203  22.1883202  60.8589706  21.5106564
  20.9779339  61.2007446  20.6685524  58.1021767  63.8018570  32.0862198
  58.8319740  63.4305000  31.5905132  57.5793686  64.2652435  31.4318676
  52.7598190  36.1883049   3.0231414  51.8562012  36.3291893   3.3057349
  53.2913475  36.5794296   3.7164893  64.7435226  26.8534317  17.7193947
  65.6093063  27.1197224  17.4099636  64.1331482  27.3929291  17.2167816
  73.4300156  64.8177948  87.6182251  73.6906967  64.5748138  86.7298355
  72.5602875  64.4329453  87.7263489   7.3260083  71.8280334  19.8051662
   7.2770004  71.6390076  18.8680973   7.6768928  71.0264282  20.1931686
  48.2772903   0.6285772   1.1872677  48.7203140  -0.1038620   0.7589060
  47.4614906   0.2538922   1.5194073  39.4957390  55.8452034  79.2616196
  38.8530273  55.4974213  79.8798447  39.1171875  55.6718559  78.3997192
  44.4215584  26.6921539  20.6771984  45.3001747  26.8475761  21.0237637
  44.4734344  26.9658394  19.7614269  42.5589180  17.4126968   3.7290602
  43.1399460  17.3724995   4.4886808  43.0988083  17.1113567   2.9983459
  41.9915428  56.3575592  45.1838875  41.6463432  56.0198936  46.0103569
  41.4256401  57.1003723  44.9736099  61.0832710  47.3285561  41.3172531
  60.1970749  47.6770744  41.2201958  61.5829201  47.7457886  40.6154709
  18.7838478  41.3744049  48.1520081  19.5113907  41.7235031  48.6668358
  18.0973396  42.0371628  48.2274437  51.5043373   5.5107136  41.1358414
  51.4918289   6.4497871  41.3208199  50.5824585   5.2745957  41.0327988
  46.3359642  44.5487862  62.9711113  46.4769554  43.6686935  62.6221199
  47.1447296  45.0190887  62.7687645  51.7387390  15.4676275  79.1857147
  52.5254898  15.9887924  79.0255737  51.5561142  15.0454760  78.3462677
  39.2345848  14.9775572  71.5832138  39.7514725  15.7115479  71.9153519
  39.2866364  14.3162775  72.2733078  79.0602570  65.7980270  63.2922287
  79.5625687  65.3698120  63.9854431  79.6973572  66.3534546  62.8429604
  34.0195084  55.5027771  79.6377106  33.0703049  55.4013443  79.7081070
  34.1879005  56.3958244  79.9382782  20.9885483  60.9891357  66.4102554
  20.4551144  60.8343124  67.1898117  21.3918114  60.1413040  66.2237320
  56.0346260  48.2291527  37.1523132  55.5294952  48.5509682  36.4056511
  55.9651108  47.2761650  37.0956459  38.8458328  35.7696152  63.0292053
  37.8978500  35.7153931  62.9083023  39.1840401  34.9661140  62.6339417
  41.7830849  47.9332924  33.8366013  42.2649155  47.3554649  34.4283676
  41.9007759  48.8078918  34.2073555  56.3275566  14.0467844  73.2820435
  56.6360703  14.9506369  73.3460999  56.6647911  13.7376137  72.4412613
  79.4267731   2.3381166  78.0904922  79.9952850   1.6281164  77.7922821
  78.6526108   1.8951973  78.4379501   1.6738176  31.6167679  21.2353268
   1.7809696  30.6705666  21.1381035   2.1839142  31.9906559  20.5168285
  52.7523041  60.0999870  25.2852154  53.2238426  59.4802475  24.7286129
  52.4973259  60.8076134  24.6932030  49.4830360  66.4218826  65.5094681
  49.1601791  65.8846970  64.7859802  48.7939987  67.0708389  65.6519852
  68.3521881  70.1045990  78.1395950  68.9416580  70.4141617  78.8272934
  68.6024475  70.6082077  77.3650131   6.2588315  19.7577858  66.9096146
   6.4466739  20.6943226  66.8476105   6.8233280  19.4466209  67.6172562
  73.8926544  43.1675835  46.0326767  72.9575195  43.0647888  45.8560982
  73.9320374  43.7849922  46.7630768  73.6990967  37.9779892  80.1807022
  73.7319183  38.9324417  80.1160736  72.7851257  37.7570877  80.0015488
  84.6501541  26.7379036  76.7836838  83.8301392  26.7410183  76.2899323
  84.8252563  25.8119144  76.9513626  15.7305450  57.4059486  73.4079132
  15.6543627  57.5323029  74.3536758  16.2121811  56.5840874  73.3141022
  56.7166710   1.6487818   7.2119646  57.2355156   0.9266653   6.8575945
  57.2943497   2.0685077   7.8494205   8.5231371  32.3197098  62.9431763
   7.7874966  31.8718548  63.3608971   9.1588373  32.4446449  63.6478119
  57.1269150  35.3182259  32.4846497  57.1321907  34.7347031  33.2434044
  57.8786354  35.8949509  32.6208038  73.8163986  10.3903427  45.9103394
  73.0776596  10.1690674  45.3432999  73.9472885  11.3292351  45.7777481
  59.0431099  43.4349213  59.3745689  59.1201401  42.7367783  60.0248680
  58.9684372  42.9758110  58.5379829  38.5975533   4.8095417  49.2831192
  38.5873451   3.9336011  49.6689377  39.2621231   5.2836642  49.7829056
  71.2075577  14.5335922  41.3020592  72.1121826  14.8422766  41.2511139
  71.0156784  14.2080574  40.4226036  50.5387077  30.2316570  77.5858688
  50.9034462  30.7841339  76.8945160  49.6117363  30.1486664  77.3621140
   4.7883692  40.9399681  28.1603355   5.2640162  41.5682373  28.7037239
   5.4720325  40.3974724  27.7672310  46.9195175  21.2419605  40.2855072
  47.1477852  20.6286106  39.5869904  46.5069351  21.9776154  39.8329315
   7.1193604  50.7172165   1.8351804   7.4826117  51.5852776   2.0105464
   6.4952579  50.8581047   1.1232262  32.1563416   9.5684004  10.6828775
  32.6240349   9.6444473  11.5145693  32.2606049  10.4257536  10.2701960
  84.1242142   1.8086905  11.6227570  83.2009125   1.9494489  11.4131756
  84.5099564   2.6845546  11.6055212  38.5140533  52.2050209  74.7594604
  38.4356956  52.4640083  73.8413010  37.6614342  52.4142075  75.1409302
  84.4159393  40.4146576  40.9006882  84.1873169  40.6674156  41.7951584
  83.5753632  40.2298393  40.4817543  30.5509434  45.0309219  50.6481705
  29.8395710  44.3965759  50.5599289  31.2820625  44.6388588  50.1706924
   7.8956275  32.0549164  23.7495537   7.2102604  32.7231255  23.7488613
   8.6053219  32.4402733  24.2634315  84.1915054  46.2504272  82.6951294
  84.8634415  45.5847168  82.5482788  84.5130920  46.7545319  83.4425812
  78.2520218  64.0211029  57.9890785  77.6283188  64.5596313  57.5020332
  78.5630188  64.5914078  58.6921196   6.2204604  42.1594276  60.0475235
   6.7861977  41.8280716  60.7449303   6.5176392  43.0580444  59.9046783
  44.1387291   1.6825811  23.6762562  43.4433670   2.1062076  24.1794891
  44.2434921   2.2342327  22.9010563   6.5173926  38.9381981  72.3921890
   5.8909125  39.3759422  72.9684982   6.0631108  38.8698997  71.5524292
  71.6519165  60.6450005  77.3852768  71.1944885  60.2396355  78.1219406
  72.2686920  61.2536278  77.7919540   5.7085662   5.7979703  14.5719433
   6.2427402   5.5870667  13.8061695   5.8428450   5.0610924  15.1679401
   7.6004868  27.0758648  65.8470688   7.1458850  26.2780304  66.1173019
   7.1767812  27.3266029  65.0261917  40.7201920  43.6246948  84.6572342
  41.5737610  43.5434799  84.2317276  40.9235611  43.7006683  85.5894852
  31.4461727  55.1597252  49.6605148  30.5644741  54.9375420  49.9596367
  31.8630753  55.5625839  50.4221764  54.2387581   6.1106815  66.1624298
  54.9596519   5.6339221  65.7510376  54.6679153   6.7450042  66.7366180
   7.7299562  13.3758125  55.7031746   6.9919629  13.7718344  56.1665993
   7.4610481  13.3707809  54.7845383  62.3520241  53.2263718  68.9807663
  62.9237442  53.3765259  69.7336426  62.0932617  54.1034241  68.6978378
  51.5853767   9.4747066  64.9787216  52.0915375   8.8663969  64.4402084
  52.1940613  10.1880417  65.1707764  59.9501495  65.4463272  43.0828362
  59.8801422  64.6084595  42.6253395  59.3492279  65.3657227  43.8235321
  54.6321793  49.5231476  39.6028786  55.2185478  50.1856346  39.9682770
  55.0749664  49.2229843  38.8091049  33.9847183  25.0317307  88.5264130
  33.7242088  24.6643944  89.3710632  34.5053024  25.8029671  88.7509537
  76.1748047  25.7867126   2.7795029  76.4440231  24.9900532   2.3222411
  75.3357391  26.0191994   2.3818252  13.3545923  30.4223080  64.2198563
  14.2731476  30.4178371  63.9506569  12.8824778  30.7516556  63.4550896
  32.4466171   1.5498775  21.0943241  31.8618183   1.7779801  20.3716812
  31.9910088   1.8582680  21.8776188  85.3391418  25.7843761  87.9972229
  86.0573730  25.3127689  88.4190826  84.8076782  25.0989285  87.5923233
  62.4330177  69.9863968  87.3512421  62.3797836  69.3295212  86.6570435
  63.2862320  69.8361206  87.7582703   9.5323696  18.6596146  71.3800125
  10.1474371  19.0823936  71.9793320   9.1187325  17.9745750  71.9052353
  67.0377350  55.0684471   3.3327944  67.8818436  54.7058525   3.0640454
  67.2414398  55.6095467   4.0956478  25.2228985  61.8506126  15.5977383
  24.5288601  61.7660980  14.9439802  24.8293095  62.3695641  16.2991714
  23.4619331  34.6677208  27.8816357  24.0618477  33.9218636  27.8874588
  23.8734989  35.3106422  28.4591255  67.9542618  19.0198574  69.8531570
  67.7665329  18.9984207  68.9147873  67.1085968  18.8555679  70.2704086
  55.8107071  22.7374306  23.1176510  56.1482277  22.9892235  22.2580490
  56.5902405  22.6596928  23.6676655  34.0929146  23.0554504  16.3743229
  34.7640533  23.7339916  16.4477100  33.3591232  23.3874149  16.8916073
  43.6476440  43.6990166  12.1323605  42.7451210  43.9614792  12.3134708
  44.1237259  44.5245552  12.0425806  33.5084801  36.9384460  86.0916595
  33.9158020  37.2820625  85.2965240  33.2589607  37.7174339  86.5888062
  75.6149139  43.0314140  51.0330582  75.8158417  43.9415016  51.2512398
  76.3401566  42.7535210  50.4735641  25.6718483  66.3433151  79.8803406
  25.7032833  65.3979111  79.7338867  25.9060898  66.7246780  79.0342178
  65.7636337  56.7328644  30.0555000  66.2171021  56.0726471  30.5796223
  65.0084534  56.9837418  30.5874825  23.6510754  53.5795898  31.6706963
  23.0996304  53.0872192  31.0626545  24.3788300  52.9892159  31.8657951
  83.7691422  12.0482950  44.5936356  83.8677979  12.9613686  44.3238335
  83.9267960  12.0591345  45.5377007  21.3395996  54.6985435  75.7077179
  20.6569653  54.2213554  75.2359772  21.3300629  54.3224983  76.5878983
  77.7658539  42.5961876  15.3600149  76.8323059  42.7027512  15.5426445
  77.9215927  41.6559792  15.4493837  83.0534973  64.6732635  62.0204010
  83.1726913  65.3585892  61.3628654  83.4877853  63.9058609  61.6479530
  82.3490982  21.6808567  44.1722794  82.6068726  22.3723507  44.7818871
  82.7924194  21.9053040  43.3541527  60.0127640  69.0862808  57.4537926
  59.8475113  69.2692871  58.3786888  60.1600494  68.1411057  57.4192543
  37.8815308  12.5584927  20.8587475  37.8421745  13.4023857  21.3087769
  38.3708839  12.7378006  20.0558681  46.1345978  11.4679689  20.6329517
  46.6996307  10.7398500  20.8914318  45.3978233  11.0521383  20.1852016
  76.6993256  24.1944180  25.7991238  77.3226852  24.4853764  25.1335449
  75.8508759  24.2113075  25.3563213  41.9924622  35.5348473   0.3096409
  42.7531815  35.5661812  -0.2704916  41.7451401  36.4516716   0.4300344
  50.9401550  53.7854767  14.1248741  50.3502808  54.5211563  14.2893543
  51.3838425  53.6426773  14.9609241  35.2369957  33.9249039  78.5924911
  34.7707062  33.2194176  79.0409241  34.6444016  34.1958466  77.8913116
  18.4141388  61.4886551  50.5911980  18.5121651  61.8185310  51.4843941
  17.9657536  60.6492119  50.6937561  78.5097351  37.5007286  55.7053375
  78.7616959  38.1192245  55.0196152  79.3358383  37.2555733  56.1220894
  55.3404579  50.2008095  79.9194412  56.2482491  50.1754608  79.6169510
  55.2879105  49.5078850  80.5777206  33.4850769  65.3090668  36.9821587
  33.8918533  65.2899475  37.8484154  33.6859093  66.1811218  36.6424408
  55.7210236  40.1251221  11.3018789  54.9509888  40.6455956  11.0729895
  56.2375832  40.6980896  11.8685427  47.6275864  11.9537373  34.8653336
  47.4767380  12.2484064  35.7634697  48.5505180  11.7004919  34.8481674
  21.2991314  35.8875313  67.6230545  22.1928196  35.6429977  67.8633728
  21.3962193  36.3773117  66.8063965   4.1819935  42.4615746  51.2301331
   4.5119796  43.3458595  51.3894501   4.2261596  42.0319290  52.0843468
  54.5181046   5.8955255   4.9675784  54.0540733   5.9400582   5.8035951
  53.8244133   5.8202085   4.3123283  86.0421448  28.1029472   0.1274245
  85.7184753  27.2789421  -0.2365640  85.2518005  28.5791378   0.3820597
  46.0557556  31.9806156  12.0229645  45.3006325  31.7518368  12.5648861
  46.4430618  32.7391548  12.4598188   9.1843185  54.3259773  74.4401321
   9.9231749  53.7235909  74.5264664   9.4031181  55.0576439  75.0172043
  62.0669441  32.1094017  46.6657219  61.9745789  31.3027554  47.1726952
  63.0112877  32.2607307  46.6263428  61.9500542  52.3207436  22.9506683
  61.4457741  53.0938225  23.2042160  62.7827454  52.6711159  22.6342888
  27.0185280   2.3018830  40.3915787  27.3453064   2.7551334  41.1687622
  26.0657349   2.3395700  40.4752274  70.1898422  25.6312180  11.0591564
  69.8832626  26.0859108  11.8436918  69.3925171  25.2938213  10.6509037
  68.3374786  28.0060825  58.2462578  67.5135651  27.5994873  58.5147171
  68.6728058  28.4166679  59.0432587  52.1348801  26.0074654  42.1225281
  52.8667908  26.6171837  42.0288124  51.7888222  25.9105034  41.2353554
  55.6426582  57.4351921  49.9103317  55.5235062  57.9854012  49.1361809
  54.8054008  57.4860268  50.3714676  14.3594465  45.2104301  34.1867409
  14.1521463  44.5014343  34.7955017  13.6197271  45.2287025  33.5795250
  68.8034363  33.5890007   7.5999789  69.6090393  33.7397537   7.1054997
  68.7362061  32.6362915   7.6636319  63.7360039  21.0817318  46.3502808
  63.1767273  21.4093208  45.6459198  64.4303589  20.6002617  45.9005165
  74.4573822  59.6201630  55.4505653  74.1728210  60.5340843  55.4508400
  74.8652725  59.4960556  56.3075676  83.9459152  53.2583237   6.9210482
  84.2356644  53.5348053   7.7904372  83.3529968  52.5256424   7.0879560
  71.3208237   3.7573018  26.7276478  71.9690704   3.1890483  27.1436996
  71.3790512   3.5451198  25.7960796  74.4980621  18.5593586  64.1262054
  74.0783463  19.2129631  63.5668564  74.1915970  18.7671814  65.0088806
  57.0747185  17.6069546  48.6183395  56.6204643  17.8093586  47.8004646
  57.9889908  17.4875145  48.3612976  16.4416275  50.9594498  75.7011871
  16.7297897  50.5566940  76.5203247  16.5390320  51.9000549  75.8495255
  83.8737564  42.2913628  87.4474716  84.3319321  41.4691353  87.2735519
  84.3722534  42.9502144  86.9641037   3.6850684  23.2448025  66.8436890
   4.2804508  23.9275360  66.5344543   3.2374587  22.9415722  66.0538025
  28.2334614   0.3210838  71.0774078  27.4720135   0.2712468  70.4995346
  28.8693752  -0.2790718  70.6879807  58.9786720  63.7903671  82.8909302
  59.2795334  63.5258980  83.7602844  59.6404839  63.4435081  82.2926636
   6.4405136  37.5101585  34.4536171   6.2042294  38.2880516  33.9483604
   7.1487050  37.8030548  35.0271225  86.1573257  58.4345360  17.6115131
  87.0630646  58.3718567  17.3082981  86.0962982  59.3047943  18.0054111
  52.0524521  61.3023796  37.8301620  52.2403336  60.9620628  36.9554482
  52.4765892  60.6831932  38.4242592  31.3677101  22.7075062  69.0674820
  31.9663792  22.4280357  68.3748627  31.7227802  22.3135853  69.8643417
  41.6896439  57.6012230  39.6212692  41.0218086  56.9334984  39.7773895
  41.3387756  58.1275215  38.9028435  48.9680023  71.1374969  30.0524158
  48.9110870  70.8680725  29.1356792  49.8312569  71.5437927  30.1294975
  55.2050552  32.1410599  35.8357048  55.5616302  31.2709007  35.6570740
  54.4924774  32.2420807  35.2046242  70.4770279   6.5126557  39.3401108
  71.3129120   6.3768444  38.8939171  69.9360809   5.7720890  39.0659447
  11.0503168  37.1425972  12.9297514  10.6960611  36.3567505  13.3459005
  10.3312693  37.7737617  12.9586172  71.3988266  13.6092291  69.6330414
  71.0933762  14.4117174  69.2100220  72.2785339  13.4729376  69.2812424
   5.9726510  35.1797523  10.7617636   6.6445808  35.8549080  10.6674051
   6.3317027  34.5733833  11.4095545   6.5852637  15.5837984  65.6000595
   7.2548008  15.7653522  66.2595978   6.0030284  14.9494171  66.0181427
   7.2738986  53.7706299  59.8532410   8.0162001  53.4148788  60.3417702
   6.6072111  53.0852318  59.8978462  65.2389984  41.8722076  14.9895802
  65.4777756  42.7950478  15.0766802  64.5029068  41.7575073  15.5906200
  42.0023117  62.9917488  26.8726349  42.1952667  63.9032898  27.0919285
  42.1635284  62.9326553  25.9309616   1.6481267  65.4816818  65.0331573
   1.8074445  66.4152908  65.1718063   0.9415252  65.4524918  64.3881073
  16.8440399  11.4622068  22.4891186  16.5568790  11.7953682  23.3392811
  16.9428101  10.5194702  22.6222534  54.6317291   6.9318051  43.5285721
  54.0127029   7.3957028  42.9648018  55.0646477   6.3075638  42.9462204
  44.1044388  24.0594711  19.7619152  44.3507614  24.8820763  20.1848545
  44.4533157  23.3798027  20.3386040  38.8815422  15.9046478  19.3016071
  38.1839905  16.4686680  18.9676437  38.5347099  15.5552940  20.1225147
  43.0155373  63.0563469  50.4124260  42.8041687  63.0688896  51.3459129
  42.8045120  63.9386902  50.1071892  46.6728058   0.7101063  31.4271259
  47.2046089   0.0537465  30.9770031  45.9696579   0.2075511  31.8385277
  47.6359596  41.8609619  55.8375626  46.9375725  41.2485085  55.6065025
  48.4394989  41.3456192  55.7670288  47.8420715  14.9509764  88.4123383
  48.2350807  15.5743685  87.8014755  47.9209671  15.3721895  89.2682495
  77.0594940  18.2967854  32.0501900  77.3784943  18.3043404  31.1477413
  77.8453979  18.4177895  32.5830536  76.6311646  44.2132034  22.1065922
  75.9636154  44.7902107  21.7355442  76.8417816  43.6043167  21.3986855
  25.6373501  66.4133987  67.8010483  25.9272022  65.5232239  67.6015244
  26.3945618  66.9628601  67.5986786  74.2966080  35.2081528  74.0733032
  74.4786758  36.1248245  74.2801895  73.4983444  35.0064278  74.5614777
  46.5415955  60.2296791  15.9160414  46.7822876  60.8125038  16.6361885
  47.3625946  59.8054123  15.6666574  57.0416031   5.4795561  24.7782955
  57.1661339   6.4203053  24.9036503  56.2499466   5.2743731  25.2757015
  39.6095314  12.6043882  78.5779877  39.7860603  12.6206923  77.6373444
  39.2347374  13.4647970  78.7662888  54.4502068  71.3278732  27.4009209
  54.5634537  72.0294037  28.0422192  54.9259605  70.5848770  27.7721958
   7.3395333  62.8689690   9.8512421   7.3108635  61.9148941   9.9229822
   6.4312758  63.1244240   9.6898632  77.9682693  10.0544844   3.2802041
  77.9743347  10.5712242   4.0859179  77.1631546  10.3164883   2.8336852
  51.3972778  46.1431732  78.2085648  52.0590019  45.9585037  78.8750839
  50.6334419  45.6353416  78.4822311  53.5730629  58.3646622   1.8635349
  54.0340309  58.5163689   2.6885951  52.6994934  58.7287865   2.0067840
  36.1991692  27.4281006  74.2538834  35.2753754  27.6785946  74.2632675
  36.6561928  28.1845436  74.6215210  41.4525070  22.6897087  86.5147705
  41.1855087  22.9743271  85.6407394  40.7710228  23.0282173  87.0954819
  58.4362411  54.8402328  88.8773575  58.2357025  54.7681313  87.9441833
  58.4163475  55.7806587  89.0546570  24.7388477  60.7327309  51.3782501
  24.3479347  59.8824615  51.1770973  25.5914059  60.7132454  50.9435158
  38.8087959  65.5898209  19.2453423  39.3996010  66.1957321  18.7980747
  37.9321175  65.9143143  19.0394917  74.8316803  70.7798843  65.1155472
  74.5506897  70.0960922  65.7235718  74.1003799  71.3971329  65.0946884
  13.3185148  16.2348175   3.0855532  12.8602543  17.0721035   3.1575453
  14.1793432  16.3990440   3.4705677  32.9911003  56.4610329   9.7631578
  32.9605103  57.1667137  10.4091558  33.8614082  56.0768890   9.8691101
  22.1214619  35.9825516  18.3071098  22.7259617  35.2412186  18.3422127
  21.3495426  35.6409950  17.8557644  47.2337990  12.1200809  80.8764420
  47.4798279  12.7941532  80.2429428  46.5243950  11.6387386  80.4506683
  64.3278885  53.1312294  21.2430134  64.1071091  52.7285995  20.4031429
  64.3708725  54.0688362  21.0552025  40.2531776  43.7220497  43.7167778
  39.5584984  44.3323174  43.9642258  41.0238876  44.0304565  44.1933479
  22.0881062  63.0772667   5.7797785  22.2896194  62.8021545   4.8853860
  21.1741962  62.8233376   5.9083066  74.0158310  15.7704420  76.8850937
  73.6702194  16.0845470  77.7206268  73.6135178  14.9098482  76.7678146
  29.9083672  29.9024029  16.3208561  30.0138435  30.5584145  17.0098820
  28.9787102  29.9387722  16.0958099  20.1557178  61.9081345  57.4318924
  19.2593174  61.7036133  57.6981049  20.2014523  61.6357269  56.5154152
  60.0010147  10.8052959  76.6140976  59.5862007  11.3191042  75.9211578
  59.6284142   9.9288321  76.5181046  58.6482773  52.8336639  31.5128174
  58.9537773  53.6182976  31.9680672  59.1251144  52.8373642  30.6828537
  22.1335773   8.0549574  27.0667610  21.2479172   8.1166677  27.4245739
  22.0172367   8.1509161  26.1215153  23.0175858  39.8486595  17.6884995
  23.6908836  39.2425003  17.9974823  22.2784309  39.7073860  18.2800426
  80.6334000  67.4775696  17.1579018  79.7427597  67.1559753  17.0180321
  80.6886444  67.6269531  18.1017570  74.5161667  11.9548197  29.3307190
  75.2854538  11.6384830  29.8043900  74.6162796  11.6002026  28.4472847
  17.4538383  21.5337296   5.1593766  16.7602196  21.7357044   5.7873340
  17.0129776  21.0446358   4.4646392  57.1041145  31.4604321  84.8578491
  56.6953735  30.6738739  84.4966125  58.0405045  31.2620583  84.8649216
  31.1107750   1.9537584  63.0482254  31.6130753   1.6816415  63.8162613
  31.6080780   2.6860204  62.6839256  76.8735962  64.7272720  29.0886879
  77.6473618  64.5977783  28.5402775  76.3590927  63.9289856  28.9693012
   3.4246001  55.3056602  74.8356400   3.2779837  55.7746010  75.6571198
   2.9037337  54.5069771  74.9195251  66.6881866  56.0685158  70.9310303
  65.8175888  55.8841248  70.5784760  67.0629578  55.2055359  71.1072083
  52.9369507  37.8849869  60.8068733  53.5111351  37.1441154  61.0009117
  52.0948753  37.4849625  60.5898018  72.9743118  62.7531662   8.1186848
  72.2700958  63.2731667   7.7314992  73.7519302  63.3055038   8.0382776
  36.5724907  58.3882790  33.1061478  35.9024467  58.7798729  32.5458527
  36.1711426  57.5828362  33.4323616  80.0324097  47.8223000  75.8660507
  80.8442230  47.3432426  76.0324707  80.3147964  48.6309853  75.4388275
  83.8498688  66.7104492  32.3762665  84.1005402  66.8129349  31.4581757
  83.8490295  67.6017609  32.7252502   0.5539756  47.8448372  45.4288216
   0.5176085  48.7093163  45.8381996   1.4690599  47.5774765  45.5146751
  81.8751297  39.2289734  44.3689079  82.6464157  39.7350235  44.1134529
  82.2170029  38.3590546  44.5752945   0.2304662  67.5732193  32.8475647
   0.0638451  68.2400589  33.5137444   0.2514129  66.7489471  33.3337440
  34.6627388  69.6397018  40.9145584  34.0637589  70.3183670  41.2257996
  34.4592133  69.5491943  39.9836349  58.4793167  65.7639084  14.7532434
  59.1589890  65.6275940  14.0931740  58.5487518  65.0026169  15.3292971
  59.0877495  23.9090424  56.6360207  58.5139656  23.7266407  55.8918877
  59.5884781  23.1021023  56.7558060   0.6728779   0.0851304  21.0662918
  -0.0846911  -0.2386568  20.5789700   0.2969954   0.6177893  21.7671604
  61.6468353  18.9397602  51.4571877  61.8424454  19.3661823  50.6228447
  60.9878311  18.2802525  51.2403984  60.5122414  11.1399422  81.3968506
  60.4472694  10.3027000  80.9374695  60.0904808  11.7681665  80.8106079
  84.2899399  66.0537186  66.9439926  84.8638306  66.3782043  66.2500305
  83.4585800  65.8764267  66.5039444  45.3203201  11.8726063   9.5327911
  45.1944695  11.4103355   8.7041178  46.2486534  12.1058340   9.5383596
   3.9195776  35.1702309  24.2191315   3.8644087  36.1258011  24.2105713
   3.2287400  34.8958282  24.8221893  40.8514137  25.0155621  79.2515945
  39.9073868  25.1735516  79.2607117  41.0537415  24.7221165  80.1399536
   6.9357967  68.5875473  78.0645676   7.2562580  67.7309341  78.3469543
   6.8892145  69.1031647  78.8696747  80.3678207  48.3820114  63.0261345
  79.8258591  49.0621529  62.6262321  79.7395477  47.7559586  63.3860893
   0.9784440  52.7712898  62.0603333   1.4432093  52.1796646  62.6521149
   0.7022408  52.2140312  61.3327332  59.2911758  29.7757816  26.9047451
  60.2229538  29.7239685  26.6918221  59.2680206  29.8714962  27.8568668
  78.6969299  15.8860922  67.4653473  77.8937759  15.6009951  67.9011078
  78.3961487  16.3051395  66.6590195  26.2224140  65.4406128  16.6515312
  26.6213741  64.9520569  17.3715134  26.0765591  64.7852859  15.9692488
   4.2842736   7.6849022   4.3743749   3.6288936   7.2117119   4.8870149
   5.1147714   7.4890780   4.8081470  25.7050781  29.8292694  74.5414124
  26.1504936  30.3020248  75.2444992  25.4737682  30.5069447  73.9062042
  61.1758270  46.7794876  79.3897476  61.2751884  45.8341331  79.2772141
  60.4217339  46.8734627  79.9717560  46.3505325  34.0022545  49.9746780
  46.3851700  33.1740761  50.4533768  45.8441658  33.8027649  49.1872635
  82.7572403  68.7501221  12.0574350  83.5280151  68.2277222  12.2793245
  83.0100937  69.2260513  11.2663689   1.1409258  54.0257378  18.8264389
   0.6809766  54.6666069  19.3686275   1.6613557  54.5537529  18.2209759
  53.0931435  68.0313187   8.2697630  52.7195930  67.3602600   8.8410511
  52.7306824  68.8541794   8.5980234  42.6929893  32.6268349  56.1933289
  42.5892715  32.1678658  55.3597679  42.2162666  32.0877686  56.8245010
  21.0195198  53.8890381  68.2508698  20.8983326  54.6124153  68.8659134
  20.3822651  53.2304115  68.5271835  10.0235882  50.5788307  84.1168289
   9.9356575  50.5205116  83.1654587   9.2271366  51.0253754  84.4040451
  63.7835503  25.0612946  38.8920212  64.1220703  25.0712013  37.9967346
  63.5263939  25.9677086  39.0608902  79.9563980   6.2121596  47.4228134
  79.6494751   7.0696659  47.1283493  79.3851852   5.9931564  48.1590080
  20.1140633  32.5336571  74.6058350  20.9326477  32.9565392  74.3463669
  19.6958237  32.2937622  73.7789383  46.8638191  17.9333782   5.2336845
  46.5425186  18.5560341   4.5815358  46.6319199  17.0747929   4.8797278
  61.5783310  47.7367363  76.9208069  60.9094086  47.2533417  76.4359283
  61.5432739  47.3723679  77.8052444   6.1299057   9.3974991   9.2544508
   5.2066574   9.2593822   9.0428638   6.5464277   9.5674744   8.4095545
  83.3304062   0.0686004  88.3014832  83.9965057   0.3289351  87.6652679
  83.8275452  -0.1782576  89.0813141  42.2591743  33.6318436  86.3800888
  41.8158951  33.5306282  87.2223969  42.1188736  34.5488701  86.1442642
  85.8864746  64.7454681  57.0120583  86.5762939  65.0107040  56.4037514
  85.1568298  65.3338776  56.8180885  13.3597107  10.3760185  73.3019333
  13.9921188  10.9814939  72.9150391  13.7263660   9.5077305  73.1349945
   7.4728174  45.3512573  43.8679924   7.3995900  45.0901947  42.9499969
   6.9729891  44.6893806  44.3458252   4.0015588  16.5322742  72.9476547
   4.0287781  15.5777464  73.0137329   3.4253740  16.8054466  73.6615372
  10.3217907  31.6712399  84.9393234  10.3139238  32.1569824  85.7640839
  11.0670748  32.0296860  84.4573517  79.4108582  37.3531685  68.4112930
  79.4310074  37.8314552  67.5823975  80.3200302  37.0933418  68.5600510
  49.5981331  44.2117767  80.1632843  49.0317230  44.7517548  80.7145004
  49.0689430  44.0232506  79.3882751  73.0963821  55.8591309  57.3152580
  73.3651505  56.6172752  57.8341103  73.6408615  55.1417694  57.6395493
  65.0582352  61.4876823  62.7446747  65.7055588  61.7479706  63.4000015
  65.5003357  60.8165703  62.2246895  49.4733620   1.1171833  40.1116943
  50.3735580   1.2649446  39.8217888  49.1347542   0.4522406  39.5121727
  78.8519592  64.8998718   6.7779989  79.7865295  64.7292175   6.8949847
  78.6576538  64.5762405   5.8983727  68.0163803  62.4998245  44.9683990
  68.3097534  62.9894638  45.7367897  67.9302750  63.1609802  44.2816048
  80.7914352  54.4029160  74.0353470  79.9548111  53.9398270  74.0782700
  81.0042496  54.4270363  73.1024170  32.2135925  26.1254749  17.9792767
  32.5609283  26.4433556  17.1458836  31.2773552  26.3204975  17.9385586
  11.4456129  64.1353683  23.1179562  11.8114300  64.4354172  23.9500504
  11.4049807  64.9234085  22.5761356  29.3015995  63.4932022  71.0664597
  30.0904007  63.9067726  70.7157745  29.5419235  62.5731277  71.1757126
  72.7467270  50.2619133  87.9456406  72.0237885  49.6655769  87.7507935
  73.1874619  49.8663445  88.6976471  58.7592316  30.5566597   4.9479275
  58.4076805  30.3379784   4.0848975  59.0300331  29.7157269   5.3163457
   5.8364258  47.0268898  30.2126732   6.5706873  47.4642181  29.7815876
   5.0740652  47.5597000  29.9865036  17.1377964  52.6677170  53.3823662
  16.7763138  52.4770241  54.2479286  16.4330959  53.1255112  52.9240532
  51.5987434  55.4762497  50.1394005  51.1522713  55.1851959  50.9345016
  52.2176933  54.7734642  49.9413567  79.6637421   9.9988680  72.9743805
  79.8690720  10.0337524  73.9086456  78.7136002   9.8874884  72.9419632
  57.6268959  56.0169907  41.2339897  57.3276291  55.9577141  40.3267097
  58.2366982  56.7548027  41.2373314  36.7457733  53.1108284  67.3550262
  36.2519531  53.6361313  66.7254028  37.5909576  52.9611320  66.9313660
   9.7631397  48.5574341  31.3858032  10.3552275  47.8078957  31.4479160
  10.2818584  49.2374382  30.9559746  45.5587921  39.9791374  36.1283455
  44.8694839  40.2819405  35.5372467  46.3543549  40.4020004  35.8050804
  75.6766739   4.0407310  65.2234039  75.2996597   3.7210763  64.4037018
  76.5093460   4.4363904  64.9658127   2.1200826  55.1127090  50.5219803
   3.0018389  55.4835930  50.5563889   1.5389035  55.8679581  50.6117859
  48.1505699   9.6609545  40.3346863  47.5827065  10.2350836  39.8207397
  48.2045021  10.0826778  41.1922836  47.6805687  30.5422478  83.6272964
  47.3275223  30.5801353  82.7383957  46.9510689  30.8097019  84.1863480
  76.1264572   7.8113136  10.7271004  76.4579697   8.7087698  10.7571344
  75.7371521   7.6707807  11.5901890  72.7456665  48.7242241  26.4211674
  73.3822632  49.1715126  26.9787560  72.9148788  49.0655212  25.5430336
  21.7134895  57.7249336  46.3702698  22.5530663  58.0836182  46.6578255
  21.5917835  56.9411163  46.9060478  44.3408432  65.9349976   9.2329464
  44.1203537  66.7892227   9.6043167  43.4941940  65.5238647   9.0586157
   6.7031269  66.2854004  81.9786530   6.1542730  65.8504639  81.3261032
   7.1974969  65.5750656  82.3876190  16.2931824  48.7407570  45.9995499
  16.8018837  48.4333344  45.2492523  16.6476727  49.6093597  46.1895561
  43.8008614  47.5928459  51.7933807  44.4948196  48.1806030  51.4947243
  43.0015335  47.9498253  51.4062462   1.9928883  61.8435173  81.8816833
   2.4332349  61.4801331  81.1133881   2.6718357  61.8718529  82.5558167
  76.3313828  30.8130741  69.0063782  75.9102249  31.1040974  69.8151779
  76.2861786  29.8576488  69.0431671  64.0242386  56.6902809  53.4525566
  63.3103104  56.3293648  53.9781799  64.3646851  55.9407616  52.9641418
  10.8154049  43.0304680  17.3988533  10.1911917  43.4657021  16.8182011
  11.6689825  43.1913528  16.9966698  35.1552010  13.2286901  18.9518337
  35.7582283  13.7131224  18.3879929  35.4812508  13.3817778  19.8386765
  77.3276596  12.8060265  88.9090424  77.5932465  12.9015875  89.8236771
  78.1419907  12.8905010  88.4131012  77.8502426  34.1758461  22.6943951
  77.2355194  34.9095345  22.7015247  77.8480682  33.8703690  21.7872505
  72.0612335  51.6374474  27.4919491  71.2058868  51.3700714  27.1556263
  71.8595352  52.1940765  28.2440872  35.1851654  53.8785667   2.3616607
  35.0558891  54.2351685   3.2404971  34.7611656  53.0207558   2.3864923
  39.3308372  65.6073685  82.2398148  39.0742645  64.8116608  82.7059174
  38.5888443  66.2013092  82.3534546  68.3383484  67.3663864  10.7754412
  68.5778503  66.4688263  10.5446415  68.4587021  67.4099960  11.7240429
  38.7988319  71.4972992  64.8263168  37.8653221  71.4790192  64.6154633
  38.8290634  71.6931686  65.7627716  49.2208481  35.1931496  35.8899574
  48.5320129  35.2118912  36.5543289  48.7632637  34.9809456  35.0764351
  23.8986435  54.7538414  64.2918701  24.3264198  55.5816612  64.0728912
  23.5519466  54.8893242  65.1737289  53.7256050   4.2862878  88.5881805
  54.5463295   4.4661527  88.1296082  53.9918823   3.8263667  89.3843002
  35.6310120  67.9628296  47.9544640  36.0165787  67.8250961  47.0892487
  35.9731979  68.8109818  48.2369156  74.9640121  45.9499130  20.9055176
  74.4805603  46.7751808  20.9434719  75.2456284  45.8790359  19.9934330
  68.5545197  56.3880234  88.5959396  67.9574509  56.0391502  87.9341049
  69.3254013  55.8229103  88.5447845  62.1039276  23.3812065  88.4395523
  62.1642532  22.4865437  88.1046371  62.5588112  23.9127045  87.7862396
  37.7081718  42.9028320  -0.0659655  38.1347046  43.7326431  -0.2797802
  38.1051254  42.6361656   0.7632214  86.0800934  50.3194427  11.4339447
  85.3651047  50.7187538  11.9295015  85.6493378  49.8944130  10.6923027
  78.3165817  24.4669628  18.2185898  77.5904541  24.8314915  18.7246380
  77.9683533  23.6546497  17.8510132  52.8169556  10.3256187  46.5105782
  53.3317146   9.5769444  46.2093391  52.0030327  10.2738361  46.0094986
  69.8099365  26.0949821  82.8322525  70.5473633  26.6173763  82.5167542
  69.9738617  25.2169247  82.4881973  18.4316044  20.7223911  14.8834372
  17.8778076  19.9448643  14.9541197  19.1086540  20.4776707  14.2526064
  35.4875336  38.5808754  79.5498352  35.6885719  37.7499733  79.9804382
  36.3353958  39.0163345  79.4618454  48.3936653  37.2434883   5.5507622
  48.8748550  37.5281219   6.3277273  48.9214897  36.5312538   5.1897187
  43.5503235  69.0474091  50.7511787  44.4784889  69.1062469  50.5247383
  43.1496048  68.6011734  50.0051689  65.9196625  42.9357147  32.8402290
  66.7726974  43.3388100  33.0017281  65.7819443  43.0357933  31.8982906
  80.8661194  40.5692291  66.8591614  80.1100159  41.1481972  66.9557953
  80.5376663  39.8296394  66.3479233  46.0865631  38.5799789  16.6216354
  46.5114746  38.5591278  17.4791012  45.1837769  38.3133278  16.7951527
  69.3261032  51.3015785   7.7504134  68.9301605  51.0887108   8.5954905
  68.6336975  51.1312599   7.1118183  22.7426414  67.0757065  35.0103035
  22.3760777  66.7598114  35.8361855  23.6796856  66.8926239  35.0785866
  19.0592365  29.8135529  17.4861755  18.9221535  30.0809994  18.3949718
  19.4320564  28.9341774  17.5489330  64.8329697  70.9895096   6.2257152
  64.6494598  70.1952667   6.7274494  64.5499649  70.7811050   5.3353720
  84.2825546  56.9307785  31.0285053  83.6946564  56.1793823  31.1061096
  84.4136963  57.2263336  31.9294376   0.3342864  15.7099705  77.6280365
   0.1466226  14.8085861  77.8897934   1.1622213  15.9177208  78.0611572
  85.7195282  69.8712234  29.7608089  86.4425430  69.9328461  30.3850555
  86.1414795  69.6760254  28.9240990  66.2950211  34.1072617  38.6120453
  65.7466888  34.8278122  38.9224930  65.8172531  33.7475166  37.8646812
  22.0158062  66.6814880  59.2437668  21.9336853  66.8946838  60.1733017
  21.8606968  65.7379608  59.1998291  36.9407349  31.9992504  75.8346405
  36.0354233  31.8979454  75.5407333  37.3158798  31.1216602  75.7616196
  12.2922163   0.2581949  61.4984436  11.7054396  -0.1875438  60.8875084
  13.1712112   0.0282254  61.1972542  36.6157570  70.2861633  44.4846382
  36.5265083  69.7179642  43.7195129  37.1392365  69.7756271  45.1023445
  46.2578201  21.8699474  82.0689011  46.9915466  22.4071426  82.3677292
  46.5128593  21.5825100  81.1922226  70.8623810  26.7444859  58.4251785
  71.3482971  27.5515499  58.5947723  70.1138535  27.0220661  57.8970833
   2.6755362   5.6660600  31.1679401   2.1216774   6.4394779  31.0616550
   2.7916832   5.5828791  32.1144180  65.0090103  22.1588993   7.3843813
  64.8010788  22.0496616   6.4564452  65.5964355  21.4304218   7.5855756
  65.0647354   1.4723132  14.4173088  65.4612732   0.6100796  14.5419741
  65.0369415   1.8523766  15.2953806  82.6160126  54.4178619  12.6479921
  82.9210052  54.3033104  13.5480433  82.0102844  55.1576767  12.6926851
  76.3117294   5.4073362  30.5364685  76.6230240   5.1192265  29.6783791
  75.5955811   6.0116024  30.3409576   1.6589923  25.0848503  13.6703224
   2.2856438  24.5752029  14.1839361   2.1970608  25.7198143  13.1975269
   4.4139113  29.2955227  17.7792816   5.2200093  29.5052223  18.2509441
   3.9835382  30.1411076  17.6528015  17.6911392  12.0937653  77.1635361
  17.8824215  12.7368002  76.4807816  17.5006161  12.6190748  77.9406967
  17.4520245  56.5724716  32.7697601  17.8989449  56.6025200  31.9238358
  17.0193005  55.7187538  32.7818375  71.2925034  41.5616722  44.3747406
  70.4307785  41.7317772  44.7551804  71.2383194  40.6623268  44.0515175
  45.1710396  10.4438295  56.3289223  44.3104439  10.8603039  56.3753204
  45.3513451  10.3703375  55.3917351  29.4563141  39.4637985  16.0871925
  29.2662983  39.6445541  17.0077648  28.8421383  38.7697945  15.8476486
  43.4291191  54.6489830  26.9420376  42.7208138  55.1764946  27.3111801
  43.8389854  55.2196274  26.2919559  28.5051785  28.8061314  66.2427139
  27.8967762  28.0733757  66.1470718  28.1267719  29.3422337  66.9395905
  58.3524513  63.6611786  44.8017960  57.7760582  63.9477234  45.5102425
  57.8208961  63.0485573  44.2934914  62.6090279  33.2751617  77.4687881
  61.7691383  33.5478287  77.0993652  62.3758430  32.7801781  78.2541809
  24.4510899  63.0229378  71.7217712  24.3575420  62.8266678  70.7895966
  25.1741028  63.6488380  71.7633743  10.6868601  43.0320015  50.2551880
  11.4224567  43.5845490  50.5194244   9.9122992  43.5701866  50.4184227
   9.1014643  50.1403313  78.9089890   8.5073872  50.6872597  78.3950119
   9.5354815  49.5844154  78.2618256  73.6567612  30.7063408  22.4128380
  72.7483063  30.6308498  22.7048092  74.1758194  30.5409927  23.1999016
  70.4264221  24.4653358  40.5337372  71.2172012  24.9559002  40.7578888
  69.9199982  24.4433365  41.3456955   4.5665545   0.5936208   2.0510573
   5.4884725   0.7827018   2.2258346   4.2682967   1.3294926   1.5164855
  34.6212654  45.5449295   1.0623430  35.4770470  45.7844925   1.4179798
  34.5773163  44.5941505   1.1639137  74.5526123  34.9167137  76.8921890
  73.6780930  35.2527046  76.6958237  74.7584686  35.2748413  77.7556763
  40.1139488  57.2796822   2.8499033  40.4984093  57.6230965   2.0433764
  39.6056213  58.0099602   3.2027953  82.4567337  25.8488007  75.4487000
  82.7280807  24.9313354  75.4780960  81.9184570  25.9142189  74.6599045
   8.2807703  43.7244873   1.6505241   7.9690347  43.8765259   2.5426767
   9.1054802  43.2516327   1.7623030  75.3888779  15.6678648  19.9107265
  75.1034088  14.9747887  19.3154259  75.1393051  16.4800529  19.4699364
   7.1289310  31.7902355  14.6687241   7.2383614  30.8438911  14.5755014
   7.0200872  31.9272041  15.6098003  73.2708588  61.7434769  27.1291428
  72.6978836  61.3747215  27.8014126  72.7035141  62.3259125  26.6240482
  47.1389198  28.1175442  15.1075802  46.2354050  28.3891773  14.9459982
  47.6182365  28.4057846  14.3307915  40.3218918  17.9300842   9.3714666
  40.4444122  17.4594498  10.1959190  39.4987144  17.5895023   9.0213032
  38.7576256  61.6557922  86.7675552  39.4681587  62.2572289  86.5447464
  39.1031914  60.7883415  86.5569687  30.8577080  60.1816559  67.0617065
  31.7378426  60.5111084  66.8798904  30.7190437  59.4957771  66.4085770
  51.8085976  50.0513306  13.2059031  51.7152176  50.6517944  12.4663401
  51.9068108  49.1886101  12.8030386   7.1771259  33.7856140  12.9582129
   7.4011178  34.4325294  13.6272097   6.9142656  33.0099182  13.4536247
  61.6901817  36.2827797  21.8011665  61.5569420  35.6741333  22.5278206
  61.0676346  36.9912033  21.9648914  56.9576263   5.2156448  64.8707581
  57.4267654   5.4983745  65.6557465  57.6391907   5.1214113  64.2053070
  39.1938629  35.2028732  15.0301123  39.4005890  35.7616463  14.2809343
  38.3442421  35.5189743  15.3374491  12.5093193  50.5362587  52.2964325
  11.8719664  50.4781265  53.0082130  13.3597307  50.4654160  52.7300377
  53.2139397  20.6895409  69.0325089  52.7724495  21.1121559  68.2958145
  52.7612534  19.8523693  69.1347427  67.4735794  27.1396446  34.9446907
  68.0247574  26.3804226  34.7549019  66.6343155  26.9354458  34.5321732
  36.4966888  66.5891342  68.3581161  35.9778595  65.8849869  68.7470016
  36.9355125  66.1795883  67.6125031  72.1586075  45.5988388  66.0135269
  72.2406387  44.8770943  66.6369019  71.3078537  45.4602890  65.5972900
  45.5539703  53.3987694  24.5151882  46.2796593  53.4355354  23.8920822
  45.6724510  54.1720772  25.0667267  78.4871902  31.6818962  30.9969635
  78.6934128  31.8686390  31.9128399  79.1329269  31.0256481  30.7350578
  54.2667656  13.6510124  39.4694710  54.5850525  13.9003830  40.3370781
  54.7143784  14.2476292  38.8695335  73.9495468  25.8357887  73.6288300
  74.1004562  26.6238079  74.1508331  74.7993164  25.6452942  73.2315445
  25.0886002  65.2179565  13.7249870  24.5675831  65.4614487  12.9598169
  24.4416504  64.9888992  14.3922348  51.6209793  60.1577759  63.7565994
  52.1780167  59.3956261  63.9149361  50.7813606  59.9275780  64.1544495
  33.2536621  53.1042404  50.5188446  32.8624382  52.2360764  50.4215393
  32.6041679  53.7024231  50.1492920  70.3673401  22.7128296  22.1219578
  69.8046265  23.3240414  22.5973587  69.7936096  21.9778118  21.9056015
  64.8378220  45.8124313  33.9548721  63.9007034  45.7264977  34.1299591
  65.2490005  45.1663971  34.5291595  51.7911797  64.7695694  58.7983208
  51.2341957  64.4412994  58.0924606  51.8938408  64.0234604  59.3890953
  83.7208099  23.0054836  42.0855103  84.1489410  22.7499981  41.2684021
  83.8877411  23.9450855  42.1597672  67.3442154  15.1457872  40.7074928
  67.7836075  15.9441891  41.0002670  68.0575714  14.5436277  40.4959259
  27.8243656  61.6794052  68.0461121  27.5001621  62.5222244  67.7286530
  28.6967430  61.8723297  68.3895798  49.7698021  50.5230789  87.8345413
  49.7193604  49.9076233  88.5659103  48.8961945  50.5029221  87.4438553
   4.8236141  31.6380596  88.0416412   4.2266994  31.2402897  87.4078369
   4.3471780  31.6074524  88.8712845  84.8764954  65.0609741  71.4755936
  84.0219879  64.6525269  71.6142044  84.7293777  65.6904984  70.7696991
  57.8346863  49.7136040  79.2605820  57.9101219  49.8591537  78.3175201
  58.7320976  49.7832375  79.5862122  78.4278183  43.1105499  50.2980232
  78.6529388  42.2274094  50.0054245  79.0955811  43.3244896  50.9496040
  51.4400024  27.4109917  50.8631516  51.7785416  27.0106564  51.6639977
  51.1595421  28.2856045  51.1326485  57.9654884  29.7074089  59.8418236
  57.4740143  29.2889538  60.5486298  58.6220207  30.2408237  60.2897797
  67.2546692  24.7427025  59.1966820  66.5788116  25.2323322  58.7279434
  66.7986679  24.3650742  59.9488068  39.6429100  42.1313896  60.1153030
  40.0425987  41.2660294  60.0279579  39.3670540  42.1765060  61.0307808
  31.6096516  56.9767456  25.2493076  32.1847267  56.8568115  26.0050430
  31.8508892  56.2702255  24.6502552  75.6148834  17.9585514  75.6917648
  76.3522263  18.2896385  76.2045441  75.3071060  17.1950569  76.1802139
  49.2720833  61.3565407  45.7455521  49.2727470  62.3135910  45.7287025
  48.9716911  61.1327095  46.6264038  25.2150764  21.0365734  73.8351746
  25.1369781  20.0985928  73.6610336  25.8954697  21.3362694  73.2322769
  76.9794769  24.0998764  74.9406204  77.9293747  23.9827118  74.9549484
  76.8076477  24.5632572  74.1208725  29.9713745  24.7457314  87.7864380
  30.4635887  24.2772369  87.1122971  30.3420200  25.6282539  87.7838287
  47.3761520   0.8846060  69.1117706  47.8390808   1.7215124  69.1507263
  47.4146347   0.6323297  68.1892166  66.6329041  56.3986893  59.5319557
  67.3176270  55.9389915  59.0460815  66.7962189  56.1727982  60.4476700
  52.7612152  29.4030838   0.9757367  53.6102562  29.8380241   1.0543715
  52.1245842  30.1178646   0.9805443  57.1331062  44.0350800  42.7494774
  57.0252342  43.1619797  43.1266899  56.9898796  43.9100456  41.8113480
  34.1023903  17.3044739  19.3993626  34.1910591  18.2501774  19.2809696
  34.8184929  16.9306259  18.8858776  38.5138626  67.1192169  45.5130424
  37.6991692  66.6887589  45.2537880  38.4061241  68.0268784  45.2288399
  49.8787498   7.9449453  57.2099380  49.8477135   7.7507019  58.1467094
  50.8111305   7.9333515  56.9936905  71.7208557  71.6424942  50.7915688
  72.4113083  72.2336960  50.4915962  71.9490662  70.7947006  50.4102592
  52.4813309  21.0994625  28.3088455  52.6352730  21.1159401  29.2534428
  51.7812271  20.4573574  28.1914330  60.8769455  37.6858559  38.8883629
  59.9487419  37.8328781  39.0701752  60.9787674  37.9124603  37.9639664
  78.2645035   0.5157098  87.3633118  78.4899979   1.4334455  87.5154419
  77.3131180   0.5171265  87.2579727   5.6060905  55.3043518   2.1178184
   4.7713280  54.8374786   2.0799727   6.0612969  55.0464821   1.3162438
   7.9770832  45.9582939  41.1496811   7.5312376  46.6061821  41.6952934
   8.8881397  45.9851532  41.4420624  32.3771324  13.4220543  71.6053085
  32.7882309  12.5823145  71.8104095  31.5443592  13.1873751  71.1958618
  86.7849808  62.3144455  24.4423523  87.1385651  61.7731743  23.7364941
  86.2683029  61.7082367  24.9731846  69.4003754   8.6187420  56.4173775
  70.1179123   8.3299570  56.9812698  69.6435776   9.5069237  56.1561966
   9.4450312   2.8534508   7.1966872   8.6386280   2.6598454   6.7187095
   9.8723955   3.5357571   6.6789522  70.0612259  20.2528057  36.2515182
  70.0070496  21.2051945  36.1724472  70.7259750  20.1057587  36.9243622
  70.8420258  16.1499424  68.0023727  69.8867264  16.1015797  67.9664154
  71.1310043  15.8125744  67.1544876  58.6770592  14.2582960  32.8699150
  59.0280151  13.9104862  33.6897278  59.3484344  14.8665781  32.5609207
  85.3040161  60.1392097  25.5931511  85.6961670  59.2720871  25.6958485
  85.5162888  60.5960007  26.4071007  13.9987364  60.5458069   2.9805202
  14.0884085  60.3572998   3.9146810  13.5383883  59.7852211   2.6258111
  18.0552692  12.8541250   6.2773237  17.6817760  12.0606651   6.6609321
  18.9812527  12.6465864   6.1519723  69.0078354  51.0936546  71.8485107
  68.5332870  50.3231964  71.5363617  69.8409882  51.0687218  71.3779068
  80.1869202  13.3883410   8.7177763  79.6830139  14.2007132   8.6691666
  80.9317703  13.6017809   9.2798071  34.1355820  24.2601852  65.6147614
  33.5985832  23.6463604  65.1136780  34.2686195  23.8284225  66.4586258
  32.1693115  64.7028427  76.5987701  32.3033905  63.7624969  76.7171097
  32.9481850  65.1059647  76.9822845  39.2546730  49.7921028  15.2811489
  39.7978821  50.3889999  15.7958040  39.6427422  48.9293022  15.4267645
   8.9255085  70.7922134  65.4567642   9.0501404  69.8884201  65.7463303
   8.3016500  70.7281647  64.7336273  42.1972427  52.8146362  52.4085846
  42.4652710  53.2374382  51.5927200  41.3841858  52.3605957  52.1871834
  69.6952133  23.9987125  74.0990067  69.6705780  23.2483540  74.6927948
  69.2878036  23.6802120  73.2935181  33.8798790  38.2024536  17.4258633
  33.9231720  39.0972366  17.0886364  34.7595901  38.0301628  17.7615032
  61.6044502   7.7781291  74.4783630  60.7411270   8.0121679  74.8191376
  61.4494781   6.9942288  73.9513702  26.9671860  47.2264709  21.7414513
  27.5667019  47.4056854  21.0170937  27.0930634  47.9598427  22.3435783
  74.2788696  10.9037123  77.7619781  74.2583389  11.1859875  76.8475723
  73.4050369  10.5474243  77.9223328  59.8922157  64.6445923  53.2976456
  59.3627090  64.8308105  54.0730019  59.2530937  64.4485092  52.6125870
  32.0145302  31.4466419  82.4280167  31.7700825  32.3612213  82.2865067
  31.1877842  30.9670029  82.3763657  35.1926117  48.0919838  79.7795792
  34.8358231  47.6310692  79.0203018  34.4367218  48.5298271  80.1709290
  80.8209305  57.6458969  74.0565109  80.6269379  58.4219017  73.5307541
  81.2052231  57.9921837  74.8618927   1.6149418  37.7425919  81.2036514
   1.7506175  36.9090614  80.7530441   1.4303989  37.4974442  82.1103363
  79.7635193  59.8821526  52.9668541  79.4921646  60.8000450  52.9755096
  79.7565384  59.6216316  53.8878899  31.1641579  54.1439743   9.5163879
  31.9253941  54.5939217   9.8828602  30.4212742  54.7000618   9.7511692
  43.9875069  34.8333473  59.0869331  44.1617699  35.0659370  58.1749229
  44.8334312  34.9294014  59.5244446  22.5648003  66.5445404  80.7415619
  22.3353081  66.3699570  79.8288269  23.4749279  66.8390656  80.7075653
  76.5661774  43.6266441  37.4479485  75.7499084  43.1324234  37.5233192
  77.2368622  42.9601021  37.2991753  26.0415440  63.0995407  30.0505924
  25.4033775  63.5885849  30.5700264  25.5455627  62.7873955  29.2937584
  42.1899338  64.2835007  67.7350616  41.2711678  64.2652512  68.0029526
  42.6477852  64.6795731  68.4764938  56.8582954  62.1659813  59.7589378
  57.0861015  62.4726906  60.6365852  57.6051407  61.6305923  59.4909630
  73.3149185   4.9885783  38.4949188  73.5308914   5.9152398  38.3905830
  73.5258026   4.5966105  37.6474991  20.9643135  14.6192198  79.4263458
  20.5720844  13.7660065  79.6118622  21.2964325  14.9192200  80.2724686
  69.9707260  24.7466183   7.2220697  70.4519882  25.5212440   7.5128813
  69.1222305  25.0851250   6.9362197  83.1239624  18.7611408  22.1738358
  82.6695862  18.9831562  22.9865398  84.0483856  18.7224846  22.4191360
  48.7446480  50.2594681  70.6292648  49.5191383  49.8010674  70.9552536
  48.4936066  49.7758217  69.8423080  34.1098061  46.9413948  39.7529297
  33.9295311  47.5639877  39.0485764  35.0128860  46.6628151  39.6010399
  81.5584717  54.0366020  61.4245567  82.1989822  54.1964340  62.1176872
  81.0120773  54.8225021  61.4174843  59.2732697  60.7888489  59.1402473
  59.9789009  60.3958282  58.6265831  59.2187347  60.2461853  59.9268684
  62.7470360   4.8001471  48.9040565  62.8864670   5.5284314  49.5093613
  62.3851051   5.2083473  48.1175423  36.1056252  23.2444935  85.6114044
  35.6350327  24.0750523  85.5410614  35.4894104  22.6562805  86.0478821
  25.6712551  43.5450096  76.8469315  25.6344719  43.9558258  75.9831543
  25.2438622  44.1730766  77.4292526  17.7283306  44.1078339  82.4900284
  18.6462688  44.2342453  82.7301102  17.3201466  43.7558823  83.2810669
  55.3150520  48.1074638  86.8774948  55.9107094  48.8567429  86.8756485
  55.8505211  47.3765640  87.1861877  52.1046410  11.7741919  39.5282822
  51.4360886  11.8641806  38.8491859  52.7349205  12.4688587  39.3374367
  78.9130173  50.4348259  87.3718491  77.9567642  50.4739265  87.3553162
  79.1156464  49.8280945  88.0839310  67.8865433  35.4784698  64.9772034
  67.2931824  34.8032227  65.3061295  67.5746384  35.6602325  64.0906906
  77.6014175  17.8127651   8.8108139  77.1813812  17.6993694   9.6634254
  78.1376953  18.5993080   8.9107256   2.1596787  12.2286234  29.3376579
   1.6517285  12.5820904  30.0679169   2.0600009  12.8769703  28.6405621
  63.1215858  68.3956375  38.1324730  63.4571075  69.0017548  38.7929878
  63.7215118  67.6504517  38.1644478  50.4749794  27.0897655  19.2800789
  49.6501389  26.6095238  19.2076931  50.8866959  26.9893742  18.4217987
  35.1221504  40.1997986  73.9553452  34.4485855  39.8180122  73.3925095
  35.1140976  39.6546516  74.7420959  36.8176117  17.4948940  78.9579849
  37.5336571  18.1143589  79.0986023  36.1386337  17.7697639  79.5741577
  15.0444565  13.4710550  79.2794113  14.7643013  12.5614195  79.3809357
  14.7656717  13.7103014  78.3955154  54.3291931  32.0957031  74.7906723
  54.6720543  31.2754288  74.4359436  54.3771210  32.7114677  74.0593948
  68.0391388   8.0166759  38.4528160  68.4826736   8.8605433  38.5387917
  68.7103424   7.3699975  38.6708031  45.3630447  55.6443405  53.3814087
  45.4839211  54.9116440  52.7774429  46.1093140  56.2195053  53.2126045
  55.9761505  64.7848969  36.9125366  55.5103073  64.9120712  36.0860710
  56.2686119  65.6620636  37.1600647  77.7271500  21.8325062  27.1684551
  77.2535400  22.5321865  26.7185974  78.4128494  22.2848854  27.6597862
  77.6189575  51.5547333  21.0731716  77.2100906  50.6990242  21.2028694
  78.3721695  51.5522919  21.6638489  66.0462875  71.1695023  57.1269684
  66.5375671  71.2975006  57.9384460  65.1607056  71.4684067  57.3334389
  12.9185686  25.8207550  73.5405655  13.1541758  24.9227295  73.7735214
  12.2191944  26.0512085  74.1521149  71.1998672  42.5878677  17.4696445
  71.8276825  42.0788879  16.9567871  70.8507690  43.2302437  16.8518105
  10.3043413  50.3394775  47.6598473   9.8880129  49.4775696  47.6638069
  10.8135281  50.3557930  46.8494797  60.1491699   6.6293349  44.3541527
  60.4318695   5.8986020  44.9040108  59.7015533   6.2148652  43.6165314
  38.5898972   0.4902999  52.3015671  39.4330673   0.5197030  52.7537079
  38.5468521  -0.3916877  51.9321404   5.7872849  42.7571411  25.4426613
   5.4119887  43.4712296  24.9274311   6.7232084  42.9544525  25.4793625
  43.2241058  70.4870148   3.1612327  43.8884773  69.8618851   3.4511557
  43.4381523  71.2964172   3.6252131  62.6695251  55.0109177  11.1084814
  62.8259239  55.0700722  10.1659994  63.4050255  55.4794083  11.5031881
  55.8825188  45.8062553  53.4172287  56.0608826  46.5020332  52.7845230
  55.1747742  46.1524734  53.9607925  62.7734528   1.9995322   3.4753039
  62.0327110   2.1690111   2.8932338  62.9701538   1.0713683   3.3486042
  82.4792023  35.6338463  80.3978119  82.5308151  34.7388916  80.0622177
  83.3855057  35.8666916  80.5994034  38.4424820  29.5004482  75.0236511
  38.6828995  29.2250080  75.9082718  39.2793617  29.6396561  74.5803833
  27.0978031  57.5283165  25.1377697  26.9788361  57.7634773  24.2175636
  26.8529873  56.6040306  25.1823578  71.1071930  58.2849770  64.5269165
  71.7673721  57.6647530  64.8362885  70.2828979  57.8006668  64.5739288
  79.9826355  56.3672371  84.6012497  79.1621628  55.9595070  84.3241043
  79.7824783  57.3022308  84.6454926  51.6454849  54.6046638  18.4451466
  51.4436989  54.6934700  19.3766098  52.2254677  55.3418617  18.2543774
  23.5387344   9.5774908  84.7910309  24.4658051   9.3455276  84.8454971
  23.5374146  10.5052567  84.5554886  38.6240540  70.7983170  81.9445267
  38.4660110  70.8828125  81.0042572  38.9680748  71.6520462  82.2072525
  62.5328598  17.6541119  16.2071877  63.3580856  17.1708488  16.1660633
  62.6151390  18.2026272  16.9873104  40.6483498  64.3187027  76.4388733
  41.0826721  65.1661911  76.5355988  41.0329170  63.7728271  77.1246948
  15.8640766  20.1653786  74.7605972  15.7675991  20.3285427  73.8223572
  14.9677916  20.1624355  75.0966034  86.8887405  52.0909348   1.1726311
  87.4080811  51.6743279   1.8603444  86.0536270  51.6233635   1.1866741
  41.4991341  27.7279587   7.8714309  40.6661987  27.9875088   8.2652340
  41.4864845  26.7710876   7.8931661  86.8085785  65.5692978  29.6181812
  85.9569626  65.9780807  29.7727337  87.1723404  66.0479050  28.8733063
  43.4637108  53.8921585  50.2030869  43.7180748  54.7655869  50.5008316
  43.3044319  53.9958649  49.2649460  10.4268608  24.2034760  73.8628693
  10.1472597  24.9932442  73.3999252   9.6129923  23.8081570  74.1752396
  57.5602150  33.9060249  12.6401644  56.6363029  33.9710960  12.3985338
  58.0155258  34.4447517  11.9930973  78.5321960  27.0592232  81.3127518
  78.9312744  27.8923054  81.5636292  77.7228241  27.0183468  81.8221512
  18.5003529  12.3695726  64.3477859  18.5142975  12.3747253  63.3907051
  19.3526363  12.7236891  64.6016541  59.9417992  59.6386757  50.0262032
  60.4768105  58.8627243  49.8591766  60.5600052  60.3684921  49.9885292
  84.5468292  22.4219971  81.7169724  85.1756973  22.7633228  81.0811691
  83.8415680  23.0690899  81.7273712  67.5242767  26.1838150  40.3804550
  67.0484390  26.9769001  40.6270790  67.3003998  25.5488377  41.0608330
  30.6134357  33.2956238  80.4006271  30.3274879  33.3382416  79.4881287
  31.1510448  34.0785446  80.5199661  13.1934185  50.1672478  48.8118439
  13.2904673  49.8004227  49.6906242  12.2471619  50.2213249  48.6780319
  44.2428093  55.8775864  15.9094505  44.3683853  54.9303398  15.9659090
  44.6881638  56.2247200  16.6823597  44.6401634  71.2807007  20.7434311
  44.7726440  70.6268845  21.4298801  44.8279610  72.1169281  21.1696739
  31.1489830  50.0863686  83.9185638  30.2089500  50.0338554  84.0912247
  31.5578632  49.7385788  84.7110901  33.1504860  13.4345884  80.1660538
  32.6540985  13.9167366  80.8273849  33.9129562  13.0982122  80.6369247
  76.8617020  14.3560534  81.2014999  77.5555267  14.5697851  81.8253250
  77.0035934  13.4327860  80.9925079  23.7027740  60.9285278  84.8431778
  23.1851845  61.4067039  84.1953506  23.2692738  60.0782089  84.9157791
  61.0873680  53.6382446  87.9052124  60.5495377  54.1211891  88.5326920
  61.9808235  53.9359474  88.0765152  16.7638721   7.0801296  16.2868252
  16.0140553   7.4900069  15.8555384  17.5274773   7.4669452  15.8584414
  29.0062599  20.9421864   2.1210244  28.1550884  20.5049057   2.1439538
  29.5444622  20.3891582   1.5546947  58.9388542  59.1325798  38.1842766
  59.8719711  59.3426094  38.2219162  58.5856667  59.7285347  37.5237274
  83.1114502   9.6769505   4.5316343  83.5276337  10.5377102   4.4856396
  82.6833649   9.6633301   5.3876648  52.0602417   8.2013130  34.0713997
  53.0065765   8.0809565  34.1501198  51.9626884   9.0004549  33.5536270
  85.9711761  11.9218292  49.5687485  86.1710815  11.8228788  50.4995995
  85.1293106  11.4804087  49.4563332  37.1493988  69.6868896  71.3317413
  36.8978119  68.8516388  71.7258148  37.0345039  69.5521622  70.3910599
  20.7131329  17.2801228  10.9963598  21.1269073  16.8708572  11.7563105
  20.7249126  16.6005955  10.3223152  15.4399452  70.0095139  68.5074310
  15.2669630  69.1818237  68.0588303  15.7476854  70.5965042  67.8168030
  28.4377251  50.4691429   2.7961698  28.5625496  50.6359673   1.8619217
  27.4898682  50.3852997   2.8999510  71.4737396  48.5909729  66.8036041
  72.1385803  49.1252060  66.3690872  71.8089447  47.6963539  66.7442017
  37.1514931  41.2689934  43.2582092  36.9828644  40.5228004  43.8335304
  36.3749886  41.8213654  43.3485489  51.0742874  63.9510918  25.5394268
  50.7549782  63.1339874  25.1565266  51.3127632  64.4914474  24.7861862
  16.4289551  12.4175768  87.1015015  15.7906866  12.9202528  87.6076279
  16.7496624  11.7538805  87.7121429  66.7125778   5.9681807  85.0759277
  66.7482147   6.2287469  85.9962921  66.7648926   6.7921119  84.5915375
  62.1727257  58.6082993  52.6472855  62.5237503  59.2560654  52.0362091
  62.8992348  58.0038185  52.7990150  60.9480934   5.2841358  73.2396240
  61.4848442   4.6409502  72.7765427  60.1261597   4.8268261  73.4171829
  66.8776169  63.3143272  37.6484108  67.8094788  63.5138855  37.7380600
  66.6883240  62.7223701  38.3764153  38.6607971  24.2105083  82.1824036
  37.7714386  23.8853264  82.3221512  38.5469818  24.9983730  81.6508484
  34.3973503   7.0854921  10.9971933  34.6999397   7.5368567  10.2091942
  33.5603294   7.5009203  11.2046776  19.9313049  70.9415588  64.8324738
  20.6595669  70.5390167  65.3055725  19.2098732  70.9452667  65.4615631
  80.0268555  56.2545319  29.8352184  79.4371567  56.8944817  29.4365273
  80.3856659  56.7037163  30.6005421  59.6536484  67.5576477  37.8046341
  59.6830902  67.1822281  38.6846504  59.1681595  68.3759079  37.9094315
  65.8729324  70.5896683   9.6777592  65.9536438  70.6786041  10.6273947
  65.2545013  71.2750473   9.4247131  81.0329819   5.4804244  51.0651436
  81.3896866   4.9133534  51.7488289  80.4072800   4.9272594  50.5974503
  11.3280144  61.1802635  34.4642982  11.3200207  61.5430069  35.3500671
  11.9943552  60.4936638  34.4926643  79.0344772   2.0359638  11.8148832
  79.4037170   1.4911579  11.1198425  79.6406403   1.9318731  12.5483456
  66.1091690  54.7312012  17.8356628  66.2024612  54.0309258  17.1897984
  67.0081482  54.9694786  18.0621376  23.3021030  70.5530701  26.5107517
  22.6183834  70.4134216  25.8555756  23.1895580  69.8332291  27.1315536
  68.0016098  64.7706680  13.2632389  68.4538727  64.5352325  12.4531384
  68.4412613  65.5674057  13.5601387  27.0269432  54.4914665  29.4383202
  26.6121616  53.8133659  28.9050541  27.7302227  54.8334503  28.8863468
   7.5691099  60.1984787  60.3648415   7.8650937  59.5562439  59.7197380
   8.2255001  60.8942375  60.3287277  70.1524734   9.7251520  47.2532883
  70.6588898  10.2976437  47.8295059  70.7077713   9.6095467  46.4822426
  69.7374954  68.3720398  55.1999702  69.5614243  69.1177368  55.7737007
  68.8906708  68.1712418  54.8014793  74.5918884  56.6556244  48.4012070
  73.7690277  56.9825516  48.7648659  74.4209137  55.7326851  48.2136345
  22.4602470  58.1471748  81.9786377  21.6082706  58.0375443  81.5563202
  22.9646664  58.6814728  81.3651886  20.1950722  67.9148331  23.5501595
  19.3123627  68.2770691  23.4737244  20.5686340  68.0073013  22.6737270
  33.1238976  43.8534660  35.5835228  33.0274506  43.5025864  34.6981926
  33.7321663  44.5860672  35.4858627  83.1513290   2.5338116  19.9673424
  83.7178955   2.5532150  19.1960716  83.5740967   3.1252246  20.5900269
  74.8637695  14.7046957  26.0440865  73.9985352  14.3464603  25.8459225
  74.7245026  15.6500521  26.1000957  77.9297028  59.6239052  31.5100346
  77.4123611  58.8658409  31.7819328  77.6818695  59.7679024  30.5967598
  21.2997570  59.8999977  30.9186325  21.2661343  60.6238823  30.2932606
  20.3824940  59.6742935  31.0732899   7.6339803   1.6468050  65.5942688
   8.0100842   0.7820904  65.7587280   6.7633476   1.6085584  65.9902115
  15.2011890  44.2505493  37.3629417  16.0920219  43.9108620  37.2777367
  14.6618624  43.6358757  36.8654099  56.9844017  21.3472004  57.6373901
  57.1595116  21.0532856  58.5313606  56.7814789  20.5446358  57.1568222
  14.5306120  61.6900749  84.4312439  15.1567659  61.9005127  85.1239700
  13.6769228  61.9066124  84.8061523  83.6083298  25.9688511  57.4547119
  84.0148773  25.1022816  57.4576378  84.2453003  26.5337200  57.8922386
   4.5652571  14.6684475  81.9626999   5.1618962  14.2293196  81.3565445
   4.7651458  15.5992565  81.8633423  68.8260651   0.5191751  50.0378113
  69.7338791   0.7597102  50.2228470  68.3061829   1.2017539  50.4621277
  37.9137688  10.1956396  17.4427471  37.0842628   9.7616863  17.2431679
  37.9686661  10.1795692  18.3982372  54.4865646  37.8199043  76.8258896
  53.9993134  38.6191254  77.0260468  54.7535820  37.4817734  77.6806335
  49.6192856  31.1604366  65.2983093  48.7049179  30.8773232  65.2942734
  50.0764961  30.4864025  65.8011703  79.5236053   6.9666424  74.4746857
  80.2851639   7.3325810  74.9245148  79.6404724   6.0187354  74.5382996
  13.6009455  60.0280876  43.9581261  13.5505438  60.8999863  44.3498955
  14.0068426  59.4850044  44.6338043  39.9733162  58.1602745  68.0373840
  40.1799698  58.7432785  68.7678833  40.8262100  57.9079552  67.6836319
  55.4341087   6.7569003  48.9264679  55.2513161   5.8173275  48.9219246
  54.8054199   7.1202021  49.5501633   1.6493928  50.4032593  42.0606804
   1.4541886  49.4694824  42.1393318   2.5976841  50.4400101  41.9356842
  80.6239624  50.7034264  53.6236992  81.2778397  50.6498718  54.3206978
  81.0503540  50.3063622  52.8642502  60.7369804  58.5387306  71.3421478
  61.1546440  58.9393616  72.1045685  61.3918495  58.6061287  70.6472855
  81.7775040  48.9608154  60.4996338  82.5416260  49.5050621  60.6897659
  81.2110138  49.0679970  61.2637215  20.0237942  12.2818575  51.1462555
  19.4922943  11.5554495  51.4719391  20.4322701  12.6498919  51.9297905
   1.7545501  68.5923157  17.7490482   1.6595912  68.6912308  16.8017197
   0.8584611  68.4925766  18.0704651  60.6482582  63.3745995  80.5252991
  61.1062622  62.5374718  80.6006851  61.2738914  64.0203323  80.8536987
  11.4413605   4.1753426   9.8336210  11.7089500   4.6801133   9.0656147
  12.1783705   3.5886071  10.0032949  24.0075073  53.5172768  46.8856659
  23.7988224  54.2499924  46.3061714  24.5285568  52.9244576  46.3440857
  65.9138336  56.3131104   5.6769099  65.2024918  56.9528809   5.7069941
  65.6580276  55.7028542   4.9852576  66.1766663  60.0088692  29.6244392
  66.8219070  60.4022293  30.2119446  66.6942520  59.4682426  29.0277328
  78.6147156  14.8860006  83.3795471  78.4055634  15.4168205  84.1481323
  79.5712433  14.8826256  83.3438873  21.6794319   7.1288900  75.6660461
  21.3397884   7.8042903  76.2531662  22.4512615   6.7859859  76.1165237
  66.4479446  70.4639511  34.5072479  66.2542343  70.3356628  35.4358215
  66.0361862  69.7178192  34.0713768  46.0090637  28.2668839  85.6469879
  46.8205795  27.8547268  85.3506775  46.2523384  29.1758385  85.8226395
  72.2010193   5.7701807  58.4226875  71.5941772   5.5509462  59.1297302
  72.2602692   4.9697633  57.9011002  26.7068939  64.1376495  66.4216614
  27.0728168  64.5764999  65.6537170  25.8977489  63.7360039  66.1051178
  71.2597275  64.3872299  68.7777939  70.3541565  64.1306381  68.6036377
  71.2051849  64.9479828  69.5516281  77.6784210   1.6159040  48.9072113
  77.5850601   2.0606029  49.7496834  77.3158646   2.2313597  48.2700310
  79.3171616  42.8268852  66.3132858  78.4391174  43.1063538  66.0541153
  79.7901077  42.7263603  65.4871826  81.1202393  47.3002167  27.3005810
  81.0724030  48.2456818  27.1590195  81.9049530  47.0263443  26.8257656
   3.1794245  50.1969643  82.2515030   3.5762882  49.3280067  82.1911545
   2.4764783  50.0951881  82.8931732  33.8592072   8.9958773   7.9803009
  33.7680511   9.8419781   8.4185181  33.0008392   8.5831223   8.0755119
  46.8267746  64.0088654  28.7227440  46.2585564  63.4191780  29.2183475
  47.3797302  63.4267807  28.2015419   5.8909173  41.7332039  10.2386351
   5.4985180  40.8603477  10.2192783   6.6162801  41.6835747   9.6160460
   7.5787783  16.0475578  83.2554245   7.9115615  15.1791763  83.0287018
   7.1039701  16.3333702  82.4749756  66.9431992  59.2217407  78.7015610
  66.3067322  58.8406601  79.3064651  66.6312180  58.9663620  77.8334122
  15.1338406  54.5335007  42.5877800  15.2010345  55.4872246  42.5416527
  15.9796734  54.2181282  42.2694473  15.8923035  67.2319794  62.3858719
  15.0888796  66.7121964  62.3621216  15.9021530  67.6177979  63.2618141
  35.1742592  66.1362991  -0.1033668  34.4724884  66.5613022   0.3897014
  34.9088326  65.2180634  -0.1546273  23.9080410  22.7237206  85.5119324
  23.0728226  22.6746178  85.0469284  24.0289173  21.8485355  85.8802643
  77.4180222  59.2957306   7.8411174  77.0376587  58.4257622   7.9623923
  77.8019409  59.2692261   6.9646821  23.8894520  54.2055435  87.4624252
  24.7914391  53.9509392  87.2679367  23.3963013  53.3859177  87.4270859
  19.6208630  38.6637497  24.5432396  19.8836098  37.8181763  24.1796474
  19.2813015  38.4551468  25.4135342  59.6022453  26.0026798  65.0216980
  60.0884514  25.2117481  65.2546463  59.9563026  26.2594204  64.1702576
   2.9110165  38.8488045  57.0368233   3.5450771  38.5774536  56.3730736
   2.0870025  38.4491158  56.7584724  75.1924591   9.2536221  55.7263336
  74.5438232   9.0885105  55.0420570  75.1592178   8.4741869  56.2809563
  56.9404144  28.2211590  50.5544662  56.1733055  28.6838284  50.2172470
  56.8192101  28.2167206  51.5039520   5.8890057   8.4099588  77.3222427
   5.5220823   9.2923746  77.3764725   6.0633049   8.1667490  78.2314682
  29.9996033  51.1465607  78.7306595  30.4874382  51.1654282  79.5540009
  30.1846981  50.2826691  78.3623352  22.7398624   9.4672976  14.9476309
  22.2516880   9.2930174  14.1429291  23.2775173  10.2317457  14.7408009
  32.2566872  71.1548462   9.6159344  32.5827713  71.9306717   9.1598730
  31.5884266  71.4912033  10.2130280  86.7216797  12.4299135  72.7077332
  86.8802261  13.1141701  73.3580322  85.7907715  12.2257471  72.7969666
  41.6555634  68.1147079  48.9930000  41.7046738  68.8523636  48.3849869
  40.7335052  67.8578873  48.9840126  47.4580879  58.8348427  78.6050720
  46.5834694  58.5209198  78.3754501  48.0323639  58.4490051  77.9435806
  23.0801926  32.3043251  75.3305206  22.6456375  31.4519501  75.3596344
  23.1727371  32.5574875  76.2489777  63.7916794  33.9664078   1.8950942
  63.2439842  34.1523399   1.1324086  64.3776169  34.7206345   1.9587872
  55.5272064   4.6619744  21.9592876  55.8790703   4.1835365  22.7099667
  54.5859146   4.4902034  21.9856148  49.1291656  13.2225590  64.3888397
  50.0357933  13.1602669  64.6894608  49.1808548  13.7217941  63.5737762
  72.3531952  32.4463120   4.7271791  72.0662003  32.7418442   5.5911937
  71.5417938  32.2431450   4.2618027  72.0273285  35.5471497  75.8898544
  71.4037018  36.2730904  75.9081497  71.4880905  34.7720680  75.7326813
  52.8891258  25.1070843   9.2622814  52.6639290  25.0547771  10.1911421
  53.8039742  25.3885002   9.2531099  81.2614441  15.3101749  64.5078049
  80.7030563  14.5343151  64.5575409  81.7051697  15.2321825  63.6632576
  61.6117096  60.0643463   5.1819015  60.6693344  59.9695206   5.0434675
  61.9618034  60.2687378   4.3147845  37.5543633  40.3591232  72.4258194
  38.2534332  40.2155113  73.0637131  36.7465515  40.2673035  72.9310303
  57.4618111  29.1989632  43.1800385  57.1741982  30.1044006  43.0630302
  58.1354904  29.0733910  42.5117416  51.7261047  31.9193897  75.6807632
  51.4363976  31.3074436  75.0041428  52.6494446  32.0758286  75.4827728
  40.3953934  20.3594971  12.7399607  39.7193260  21.0335770  12.6708422
  40.0630531  19.6321278  12.2139244  11.5570621  52.6284065  74.4857559
  11.6979170  52.7175522  75.4283295  12.3791361  52.9206619  74.0920334
  30.0846481  62.7075043  63.0944977  30.9899464  62.6078262  62.7999916
  29.8695831  61.8659515  63.4966965  68.8311844  10.3288994  70.8128052
  68.6946716  10.9684744  71.5117569  68.8601837  10.8520622  70.0117493
  74.0941086  28.4790993  51.4238129  73.6923828  27.6650124  51.1203232
  73.3535156  29.0432091  51.6463737  48.0125237  40.6280289   5.5266705
  48.3887596  39.9944801   6.1376481  48.6300354  40.6516609   4.7956777
  69.1385651  70.9614868  86.1343231  69.5076294  70.1680527  86.5222549
  69.7052002  71.1480026  85.3857498  84.8453751  17.1215878  59.4292755
  83.9128876  17.2779446  59.2801018  84.9949875  17.4073582  60.3304863
   6.6192679  58.8304100  77.8315506   6.5523996  58.4395752  78.7027588
   5.7176228  59.0515709  77.5984116  18.3582611   9.7828455  65.4941330
  18.2351818  10.7117767  65.2987671  19.2153034   9.7387733  65.9181290
  67.8013916  36.4003792   6.6563187  68.1481628  35.5134659   6.7530971
  67.2327728  36.3526878   5.8877940  28.8106365  58.9475670  41.3361206
  27.9346809  59.1110992  41.6856766  29.2112789  59.8149681  41.2784271
  74.8338699  71.4498367  50.4651146  74.6964111  70.5687256  50.8129387
  75.6673431  71.3954391  49.9975700   6.9681783   5.5457954   0.8428340
   7.5693531   5.2797608   0.1470996   6.5041208   6.3014350   0.4824302
  23.2571564  49.5065155  59.4845772  23.0005074  48.9410667  58.7561340
  24.0939217  49.8831329  59.2121468  71.3357315  68.9688797  68.5990143
  70.8893967  68.9407501  69.4453125  72.1745300  68.5353241  68.7560883
  63.1171494  54.0444374  75.1529236  63.9592743  53.6372261  75.3559875
  63.3469658  54.8716545  74.7296982  71.5827560  51.9636345  83.6985092
  71.1547852  52.6358643  84.2287674  72.4642944  51.8946686  84.0650711
  62.8077126  21.5234890  86.3189240  63.1913376  20.6490593  86.2523270
  62.9679070  21.9211311  85.4630890  31.1346054   3.6259863  82.8916397
  30.9035282   2.8131862  82.4419861  30.9939899   3.4349988  83.8189926
  60.9025612  21.5425148  35.4550896  61.4016495  22.2250805  35.0064850
  61.5476570  21.0945969  36.0023117  18.9009609   6.5152349  61.6044350
  19.0322666   5.6369567  61.2472000  19.3647327   7.0923705  60.9977531
  33.5117912  57.9711342  42.8931732  33.3167076  57.0385513  42.8011627
  32.7044296  58.4119720  42.6284866  26.3677120  53.1361351  42.5408745
  26.5321217  54.0789604  42.5576897  26.8472786  52.7958755  43.2961731
  82.2891693  50.3851471  40.3817596  83.0131912  50.1147919  40.9465027
  82.6732483  50.4329643  39.5062981  34.4171333   6.0537677  25.2005672
  33.9522171   6.3811131  25.9705849  35.0873718   6.7146277  25.0265675
  14.3060417  44.2034378  81.6785583  14.6947470  45.0638847  81.8359528
  14.1361465  44.1860313  80.7367172  67.8828201  11.3112984  50.1626015
  67.6498032  10.6624813  49.4985428  67.3156357  11.1072960  50.9061852
   1.1788611  69.8350906  60.1445694   1.2945195  69.0836182  60.7260666
   1.9572123  70.3728027  60.2903938  20.6058464  49.8589668  57.0026665
  21.4751987  49.4640808  56.9354019  20.3790512  50.0935287  56.1027908
  48.4216309  28.0859013  42.2346878  49.2939835  28.4785461  42.2020874
  47.9310036  28.5348949  41.5462685  31.3648663  59.7051735   9.7487698
  30.8682594  59.1793289   9.1217909  32.1253624  60.0117683   9.2549286
  81.1338272  20.4053478  33.6075516  80.6575394  19.7483578  33.0998650
  80.4623566  21.0310097  33.8794098  56.1953354  39.5322456  18.2466717
  56.4009705  40.3864174  18.6265869  57.0341454  39.0716553  18.2247562
  72.1028214   0.8498834   5.6815348  71.8243256   0.2943489   6.4095812
  73.0221863   1.0426915   5.8654418  19.3399639  10.9217558  14.7005873
  19.8311577  10.9663372  15.5209370  19.1846809  11.8362684  14.4643993
  51.2363167   9.7590132   7.5337558  51.7214127  10.5214233   7.2180901
  51.8767281   9.2613020   8.0420780   9.9868774  53.0510483  66.5787430
   9.8359537  52.3433571  67.2053452   9.2044029  53.0537224  66.0274200
  66.5033951   6.8016858  77.1306381  65.6561966   6.5776572  76.7455292
  67.1463547   6.4793000  76.4990463  86.9184723  32.1546211  32.9819794
  86.4253082  32.8901863  32.6187019  86.2787094  31.6729927  33.5063553
  43.5801888  70.5958328  81.2972488  43.5905380  71.5529327  81.3070679
  42.7768440  70.3602219  81.7613220   5.0776429  19.0476170  75.4510803
   5.3479309  19.2556000  74.5567017   5.4976416  19.7178326  75.9901962
  81.2049484  60.7058220  34.3210564  81.1134415  61.5142365  33.8167496
  80.3054886  60.4194069  34.4797325  62.9695320   3.7186594  60.2798386
  62.3315697   3.0445306  60.0457726  63.6041336   3.7069659  59.5633392
  27.3356590  47.1610527  34.2105789  27.5049534  47.2934875  35.1433334
  27.2327995  46.2139168  34.1179390  57.3942146  36.3586884  59.3252106
  56.5352287  35.9842148  59.1299133  57.8158188  36.4494820  58.4706726
  16.0277157  13.7882166  11.3531294  15.2361507  14.3205709  11.2740412
  16.0483246  13.5248890  12.2731657  12.9072170  46.4675941  45.4279671
  12.3496189  46.0381355  46.0767212  13.0006294  47.3646164  45.7486725
  19.9887905  44.5723381  66.1308289  19.5613251  43.8193779  66.5389404
  19.2736244  45.1790733  65.9394150  84.1729050  54.1894646  42.7561073
  84.8407364  54.5182762  42.1543465  83.4854736  53.8450508  42.1859856
  29.0519428  67.3369980  25.6581841  28.7952824  66.5115051  25.2471771
  29.4945545  67.0751419  26.4655018  16.3618183  51.7892990  58.7251358
  17.3189697  51.7968102  58.7312317  16.1133213  52.6407356  59.0850525
   2.8520482  22.7659054   9.0473881   2.2208128  23.4130363   9.3620234
   2.4704120  21.9219494   9.2888956  51.6164207  27.1032219  48.0793419
  51.5381393  27.0488052  49.0317841  51.1369057  26.3406448  47.7556534
  32.0032730   6.7302547  88.0166473  32.8220291   7.2031865  87.8676376
  31.3341770   7.2720480  87.5983124  19.2364140  54.9244232  11.6622925
  18.8868694  55.2715607  10.8415937  20.1713524  55.1269569  11.6291094
  33.4428101  24.4302750   6.9280314  34.0024261  24.4347687   7.7045898
  33.3923416  23.5086403   6.6745071   8.4324455  40.1003838  10.8938217
   9.1805315  39.9088745  11.4594393   8.7908525  40.6579552  10.2032490
  32.7125359  38.0012245  83.4170990  33.4682426  38.4112091  83.8378754
  32.8855209  38.0855103  82.4794388  35.1251068  69.7624512   9.3630705
  34.2108459  69.6531754   9.6246481  35.4996796  70.3330231  10.0341702
  59.3185272  42.4200363  50.3078232  58.6390038  42.8917999  49.8262444
  58.8360062  41.8561363  50.9123268  67.9009628  39.0732956  17.2487850
  67.0115280  39.0457001  16.8961258  68.0795059  38.1725769  17.5190735
  45.1294327  65.7546997  16.4770336  44.2275810  65.8023758  16.7942486
  45.0770569  65.2182312  15.6860323  69.9560699  54.2842255  68.6301498
  70.1694641  54.4406624  69.5500488  69.0080643  54.4067192  68.5800095
  30.9160213  17.5276623  75.3037567  31.0249023  17.0841579  74.4625168
  31.8094597  17.6790752  75.6120911  57.2960968  26.4278488  27.4969120
  57.0875244  25.5247288  27.7358799  56.4667664  26.8971691  27.5873699
  56.7694778   9.9565525  82.9444427  55.9926872  10.5024424  82.8226624
  57.4951859  10.5791378  82.9887848  56.8850136  26.8456001  34.2965660
  57.5970116  26.2089844  34.3599167  56.4898453  26.6786118  33.4408836
  10.7750645  18.4806290   3.8950038  10.6109467  19.2262726   3.3176694
   9.9556713  17.9859123   3.8860927  58.5546799  41.1152496  25.8071384
  57.6960983  41.1493835  26.2289238  58.3787117  41.3200607  24.8888149
  46.7974625  47.4195328  43.6874580  47.0898628  46.5155869  43.8041229
  47.5296059  47.8534393  43.2493668  15.1335297  48.9484291  64.3114166
  14.6716347  49.6230278  63.8136139  14.6108971  48.1566963  64.1839752
  60.7714729  43.8536835  18.5506210  61.6485977  44.1716080  18.7646408
  60.3787994  43.6452599  19.3983231  60.2765007  53.0596962  12.1957951
  61.0092506  53.6746140  12.1613941  60.6618690  52.2146873  11.9640846
  76.9991150  26.2481766   5.7782102  76.7358475  25.9097633   4.9224072
  77.1360168  27.1844578   5.6337485  41.9495163  55.0554810  70.3130875
  42.4654655  54.7445831  69.5691986  41.3513870  54.3340225  70.5079498
  70.8129883  66.5643005  52.0845604  70.2173767  65.8372726  52.2659607
  71.4664078  66.1959610  51.4899216  75.3246384  51.0408096  18.7982159
  75.9790497  51.7299156  18.9127274  75.8352509  50.2335854  18.7357903
  14.9616003  40.4148903  60.3780861  15.4592295  41.0412712  59.8524971
  14.9573011  40.7909050  61.2583313  43.5978317  61.2264938  45.7454453
  43.4337578  61.2222977  46.6884689  43.4233246  62.1282501  45.4759827
  66.8927078  43.7571144  42.1084213  65.9827576  43.9430161  41.8767776
  66.8442307  42.9795456  42.6645393  56.3165588  56.6814919  55.7594109
  55.9698296  56.5795288  54.8730659  55.9397049  57.5044365  56.0708199
   6.7754869  26.5807400  71.2303162   6.4727182  26.9847946  70.4171066
   6.1257596  26.8407936  71.8833542  59.7945404  48.6332741  26.5740795
  60.0511703  49.3275833  25.9671993  59.4428940  47.9423332  26.0126686
   4.7469592  27.7839890  85.0376587   4.1063590  28.4163551  85.3631973
   5.5511928  27.9911308  85.5136108  33.5855713  60.3153877  57.3056374
  33.9233780  60.6586151  58.1328659  32.7777443  60.8061790  57.1547432
  79.8471375  56.2369576  88.8957825  80.2857056  56.1374168  88.0508041
  78.9272461  56.3795776  88.6728516  64.8379440  44.6081581  82.0577774
  65.7363815  44.8809357  82.2438889  64.3359680  45.4231682  82.0546494
  57.5300331   7.0772810  58.8614616  56.7248955   7.4469104  59.2238960
  58.2053642   7.2996726  59.5023193  27.2897663  38.8193741  62.6557541
  28.1379910  38.7537880  63.0944366  26.6549244  38.8793678  63.3696213
   3.0499704  14.1886387  16.8322926   3.6309187  14.7360449  16.3040142
   3.4050286  13.3044729  16.7405472  43.7837372  15.7876320  10.2863922
  43.6149902  16.3768387  11.0216417  43.4939232  16.2765923   9.5162249
  18.7427921  49.3340034  42.6861610  18.3256531  49.9506836  42.0845490
  18.0169125  48.8297272  43.0536346  85.5682602  36.5290794  21.9591961
  86.1710815  35.8474350  22.2561760  86.0020676  37.3501701  22.1912727
  20.1119938  45.2858734  32.8635712  20.9893341  44.9594345  33.0634232
  19.8674889  44.8359451  32.0548592  58.4441109  40.0302200  47.7441216
  58.7490234  40.9373169  47.7650337  59.2130890  39.5134468  47.9846458
   5.3162656  70.0097809  41.9720993   5.4013906  70.6204224  41.2399101
   5.8514996  69.2573471  41.7199135  44.5630760  46.3855515  11.4476213
  45.4996147  46.1946106  11.3959236  44.4643669  47.2241402  10.9967804
  40.0228424  19.9380283  83.5774536  40.2444000  20.2512302  84.4544067
  39.4729614  20.6290302  83.2081604   1.1139265  43.9384842  24.0956898
   1.6714076  43.3192368  23.6245441   0.8865266  44.6006279  23.4429340
  19.2047634  13.9902763  56.1726341  18.6889954  14.7497940  55.9018097
  18.7297859  13.6335144  56.9232025  84.8803864  49.7421989  16.9441795
  85.1362228  50.5413933  17.4046898  84.6614227  49.1237869  17.6412106
  60.9268494  21.9791965  38.6719704  60.6415596  22.6803303  38.0860939
  61.4525070  21.4026871  38.1173935   6.0293674  31.8107796  63.9826889
   5.4549227  32.5595665  64.1425705   6.2158046  31.4615459  64.8541870
  35.9231567   3.7904117  25.2886848  35.5988159   4.6908560  25.2733555
  36.0784798   3.5760925  24.3688068  54.2389793  17.2762947  64.7198257
  55.0806732  17.6257229  65.0125504  53.7107315  17.2252827  65.5164337
  42.3736649   6.2924404  87.2464905  42.8404694   5.7734547  87.9014511
  42.6143837   5.8947392  86.4097595  59.5808678  54.6199799   6.2812719
  59.0858383  53.9775658   6.7896829  59.4293976  55.4505424   6.7323332
  79.6395721  51.3230247  31.7130833  79.7259140  51.3646049  30.7606926
  79.6450729  50.3870430  31.9134388  78.0389175  52.9969025   8.1576319
  77.6500092  53.6951332   8.6843748  78.3866043  52.3778915   8.7996359
  72.8329010  38.5585098  17.9626579  72.4550400  37.7211418  18.2314835
  73.5035553  38.3237610  17.3212891  83.9306030   4.9367127  76.9157562
  83.9676743   5.7371264  76.3921204  84.5905991   4.3640623  76.5249786
  22.9448490   2.7972112  69.8215103  22.8886223   2.0817032  69.1881714
  22.9365044   3.5913062  69.2871170  51.1920586  66.5563278   0.0288174
  50.8778763  66.4355927   0.9248873  50.3966484  66.6786194  -0.4894487
   0.3384779  20.9650021   1.3742259   0.4858335  21.2138329   0.4617558
   0.1269830  20.0322037   1.3369504   5.6375871  25.0138111  65.8095703
   5.4678435  25.9237499  65.5657883   5.5036788  24.5201263  65.0005112
  48.9418488  58.9931641  26.2809372  49.7246323  59.4346657  25.9514561
  48.4120064  59.6951828  26.6586552  72.7382202  23.2207165  15.5347834
  72.4524307  22.6649094  14.8097763  72.3734512  22.8030396  16.3149891
  37.7539940  42.5953903  17.3546581  37.6212311  43.1124344  16.5601330
  38.6244469  42.8481979  17.6622772  51.1216507   9.3044319  54.1105156
  50.3781395   9.7226181  54.5447311  51.8488312   9.9129047  54.2416725
  28.5856628  16.6057777   2.5755949  28.2907219  17.0696449   1.7919689
  28.2831459  17.1488266   3.3034773  13.7978630  54.5214653  14.9845657
  14.2731609  53.7169724  14.7769289  13.1643829  54.2597313  15.6527195
  67.5612946  40.7694016  73.4967346  67.8583221  40.8515129  74.4029694
  68.1357346  40.1053123  73.1156464  17.4419651  36.8405838  86.7076035
  17.0941162  37.5587196  87.2362900  16.7374306  36.1928444  86.6902618
  58.6088371  22.9614639  40.4850922  58.3925323  22.7382374  39.5797653
  59.5280380  22.7119579  40.5802269  82.9712067  62.1026535  79.0674286
  82.9017487  63.0228310  79.3217468  83.5739288  62.1045151  78.3238144
  36.5209084  44.2654533  27.4164276  36.0287971  44.5940361  28.1688175
  37.4352455  44.2913055  27.6984653   6.2122293   2.2571423  58.1936264
   5.5049901   2.0357032  57.5878143   6.9094505   1.6352345  57.9854317
  78.7164841  65.2554626  71.2214661  78.6386871  65.6027527  70.3328857
  78.9036789  66.0223541  71.7628174  20.3336334  51.0417862  36.5739899
  21.1802006  51.3190880  36.2237587  20.3516598  51.3174896  37.4904480
  32.8610039  26.0709724  76.6669769  33.5929527  26.6819534  76.7517319
  32.6794472  25.7888794  77.5634689  53.5136719  63.9604263  38.0196953
  54.1881866  63.8266602  37.3538399  53.2028465  63.0789680  38.2262154
  32.1766510  37.8353615  22.8898659  32.7327805  38.2913208  22.2581615
  32.7141342  37.1065102  23.1998920  45.9391060  15.6825237  72.0636444
  46.1555786  16.0758686  71.2182693  46.0192909  14.7400522  71.9168472
  53.6019249  37.5919228  84.5507736  53.9851227  37.3357277  85.3896713
  53.4944572  36.7682915  84.0750427  21.6828613  66.3959808  25.3481731
  21.2039413  65.6080551  25.6051598  21.1987686  66.7357101  24.5955353
  39.8744469  47.3413963  86.4392548  39.5329857  47.1649551  85.5626068
  40.8030930  47.5281296  86.3014755  12.7704563  55.3904572  72.1689377
  12.2325211  54.7736702  71.6725235  13.2378082  55.8921318  71.5010071
  62.4947281  48.4023857  67.3293381  61.5907326  48.2849197  67.0374069
  63.0060692  47.8231735  66.7642899  15.2950010  64.7701492  51.6951942
  16.1614208  64.6615372  52.0873070  15.2774086  64.1400452  50.9748535
  17.0275021  44.6294785  20.5466995  17.3511848  45.5115395  20.7295494
  16.1183701  44.6411362  20.8459911  19.6946220  48.3630676  36.2895699
  19.6678696  49.3198395  36.2998543  20.6088390  48.1470337  36.4733353
  82.0502625  51.3795929  11.5596457  82.5181503  51.5449524  10.7411289
  82.0333633  52.2285004  12.0015774  12.8719072  56.4352264  18.8213329
  11.9472618  56.5090561  19.0575790  12.8796062  56.4850655  17.8654633
  62.5860176  16.0362206  12.2197161  62.9751244  15.3218555  12.7242050
  62.7115402  16.8117256  12.7665873  56.5314598  47.3766937  29.7852135
  56.1761627  46.4952316  29.6711121  56.2811546  47.8410645  28.9865017
  28.7538681  49.5492249  84.7063065  28.3285370  49.5061188  85.5627365
  28.0358124  49.6893311  84.0890579  14.4333239  33.9978142  44.3467407
  15.0849962  34.5738602  43.9470863  14.1396923  33.4349785  43.6303444
  84.1238022  26.9736385  82.1137695  83.8189545  26.9388905  81.2070770
  84.8237305  27.6265392  82.1062775  83.6433258   0.6693161  43.7690506
  83.6409912   1.1879143  44.5735893  84.2142334  -0.0736701  43.9646683
  10.9513025  35.5924530  36.9866638  10.5149317  34.7440414  37.0641785
  11.3099098  35.7578926  37.8585930  16.7782497  48.9992294  32.3826866
  17.1119003  48.9891052  31.4855766  17.4529171  48.5526810  32.8942032
  66.8138046  45.8194656  54.8772163  67.4153900  45.1693802  54.5142899
  66.8973999  46.5745697  54.2949219  24.1117420  13.3901901   9.4988832
  24.1060753  13.7954121   8.6317072  25.0113411  13.4978514   9.8076897
  60.5571175  49.6664047  24.2313042  61.2567978  50.0407486  24.7666035
  60.1405716  50.4228935  23.8184528   3.3950269  52.4964027  18.4986153
   2.5207157  52.8489380  18.6645374   3.2686276  51.8666077  17.7889557
  85.4724503  48.8354683   8.7358198  86.1232758  49.0533867   8.0686121
  85.7097931  47.9537392   9.0229664  83.0258560   8.2189751  32.2367439
  82.1318512   7.9497681  32.0257835  82.9267349   8.8232040  32.9724846
  51.1299362  53.5758095  36.7883759  50.3435402  54.0867195  36.9801598
  50.7987709  52.7226753  36.5077896  84.9849777   1.7557081  38.5859451
  85.2711716   0.9795274  39.0674744  84.1629791   1.4916023  38.1726685
   0.0046920  59.9053841  81.9289780   0.7456059  60.5062103  81.8497162
   0.3683254  59.0468292  81.7124405  60.0624313  34.7210388  54.0653458
  60.7501564  34.6116142  54.7220764  59.7659111  35.6242485  54.1772614
  41.1335869   4.6106644  12.4387426  41.6478615   4.7564521  11.6447020
  40.2518959   4.9052134  12.2105055  63.2579041  47.6794510   5.8690386
  63.4373779  46.9960403   5.2233071  62.5590935  47.3169250   6.4135313
  65.8637848  62.9014435  67.4167633  65.5620041  63.7986298  67.5589447
  66.0268631  62.5613441  68.2965164  33.1724129  50.1696434  17.7128181
  33.2748985  50.4412231  18.6249428  33.4289665  50.9385490  17.2037067
  37.1535606  49.4485703  86.8669662  37.3745346  48.5553246  87.1306229
  36.5961227  49.3399010  86.0964584  74.3984985  26.7883244  57.1635666
  74.2521820  26.6556988  58.1001740  73.7716064  26.2033768  56.7380295
  25.4202805  40.5739098  74.1890564  25.0950699  39.7336273  73.8659515
  24.6530533  40.9943542  74.5774078  27.6876297  52.1211052  31.1093006
  28.6393070  52.0567093  31.1892853  27.5204830  53.0552025  30.9837704
  61.0246696  56.5738029  30.5789604  60.1080933  56.3346481  30.4413815
  60.9870415  57.3866081  31.0831051  18.9990845  56.4513893  35.3021507
  18.8815689  56.5416756  34.3564949  19.8875790  56.7683640  35.4644394
   6.6833353  50.4324226  83.2255630   7.0205159  51.3282700  83.2275085
   6.2026720  50.3592072  82.4010468  72.7531586  27.8737354   2.9755032
  73.2609558  28.6035004   2.6207922  72.8063278  27.9840202   3.9248412
  79.9017715  67.7095184  59.3304100  80.0745087  67.7594299  58.3902473
  80.0093994  68.6082458  59.6417503  76.6593323   5.5085459  70.0245438
  76.9406281   6.4034710  69.8342438  75.9078751   5.3661752  69.4489746
  84.0751038  31.2506866  33.5266914  83.2228699  31.6697159  33.6464233
  83.9253006  30.5929050  32.8476410  71.7708435  48.7959747  63.2777367
  72.3811798  49.0204697  62.5753632  71.4172974  47.9433022  63.0243912
  56.1805916   9.2471523   6.7420492  56.4459305   8.8382721   5.9182501
  56.8985786   9.0571642   7.3458991  19.3963757  62.7121925   6.0338540
  18.5737534  63.0914192   5.7244782  19.1858959  61.7953148   6.2106748
  81.7819138  20.6386986  51.9628334  82.1789474  20.8430290  51.1161613
  80.9730148  20.1766491  51.7427864  58.7954140   8.7419233  21.4248600
  58.3963737   8.0022058  21.8829155  59.7317085   8.6586542  21.6055450
   1.1417208  32.8707199  78.1816025   0.4667999  32.2577057  77.8901825
   1.9661797  32.4077377  78.0327835  52.9567719  16.8966904   9.8627844
  53.3507385  16.2230549   9.3084974  53.0805244  17.7108593   9.3748817
   1.2648696  63.4934464  84.6706772   0.7393752  63.7000847  83.8977661
   0.6720643  63.0014763  85.2388153  30.2243786  11.9743214  70.7509384
  29.3114986  12.1041107  70.4939651  30.6300068  11.5566359  69.9911804
  46.8587379  58.6024895  53.0934105  46.2243080  59.1390915  52.6182404
  47.4358101  58.2552223  52.4132423   3.8896036  70.6131897  38.8862991
   3.4980288  69.9350662  38.3357964   4.8099546  70.6327591  38.6239967
  11.9315929  62.3327141  57.2500229  12.4594049  61.7073593  57.7465935
  11.4226551  61.7909126  56.6469765  65.3954620  10.7592382  81.6927872
  64.5116425  10.9859419  81.9820786  65.3899384   9.8039865  81.6320038
  84.6786728   9.2284641  77.1788330  84.0209045   8.5910959  77.4569244
  85.4583130   8.7039633  76.9963913   1.4996843  49.2770271  53.7677193
   1.6956589  48.4575386  53.3135490   2.1760545  49.3450584  54.4416084
  74.6036758  54.5374184  24.7861309  75.4993591  54.2750435  24.9985809
  74.0899429  53.7355309  24.8825321  72.9915466  28.6166992  20.7096176
  73.5922394  29.2942677  21.0199394  72.1285400  28.9092197  21.0026722
  68.0807190  35.6438789  82.6750488  68.8336105  35.0527916  82.6741867
  68.3933792  36.4306450  82.2284317  47.7535362  38.4110260  23.0935383
  48.4889183  37.8059998  22.9966507  47.2346001  38.0445518  23.8095207
  54.1806984  53.7246208  88.4707794  54.7825356  53.4112511  89.1459274
  53.5640144  54.2854996  88.9412613  45.3161583   4.5402846  74.7994232
  45.6268044   5.3224964  75.2553558  45.0306587   4.8595386  73.9433899
  80.9449310   6.4856873  55.2407684  80.3349686   6.4776630  54.5031281
  80.3970566   6.6747932  56.0025482  28.3428211  61.0048218  57.2373657
  28.3341007  61.5685539  58.0109062  28.4178352  61.6108017  56.5002136
  64.8957977  24.9337311  12.5009232  65.1520691  25.1483669  11.6039906
  65.1486130  24.0169125  12.6093683  80.7989960  42.0093689  81.1438065
  80.7055435  42.4824638  80.3169556  81.4793625  42.4875717  81.6177902
  57.8661461  12.2071838  78.4760895  58.7935677  11.9708233  78.4919586
  57.8518944  13.1365776  78.7046814  26.6573124  65.1943970   4.1780100
  27.1105919  64.5966568   3.5834711  26.6324024  66.0273972   3.7071426
   7.2599249  23.0483322  27.3423710   7.1023788  23.3479557  28.2377129
   6.4242969  23.1811848  26.8948135  53.9330177  14.3038340  81.7496719
  54.1473885  15.2264662  81.6117401  53.2309608  14.3157263  82.4002151
  60.4312592  30.7289486  11.0236206  59.9538956  30.9293442  10.2185144
  60.2723846  31.4837322  11.5904474  16.5917015  55.4313965  49.7290726
  16.8598938  55.7927780  50.5738869  16.8015347  56.1189117  49.0969925
   8.6055517  64.1505280  39.4649086   7.7416654  63.7383232  39.4690399
   8.6441050  64.6175461  38.6302567  74.9423370  55.2306480  33.9897194
  75.8991318  55.2435341  34.0144348  74.7199097  55.5965767  33.1336479
  44.5181694  69.5329514  31.2239418  45.4186020  69.3182373  30.9803200
  44.5911407  69.9136810  32.0991287  71.7207184  18.3049717  48.1866074
  71.3507538  19.1535206  47.9430428  72.6005707  18.5093193  48.5033493
  13.8835611  14.0673237  14.6620560  13.5530100  14.1928291  15.5515594
  13.1043148  13.8691378  14.1427011   8.7176380  38.5297127  50.6985550
   8.0225811  37.9725227  50.3483162   9.2441101  37.9430771  51.2416153
  42.0238876  27.5899410  71.2298737  42.5988274  28.3531227  71.1730270
  41.4380150  27.6748753  70.4776993  71.4567337   6.8071733  53.0672188
  70.5925522   6.5809326  53.4110794  71.6955872   7.6106396  53.5294113
  62.8324203  50.9638062  48.6912460  62.8193283  51.3285408  47.8063583
  63.7583046  50.7972527  48.8679810  54.2488976  29.9173298  58.6479225
  54.9105148  30.5017757  58.2778969  53.4694862  30.4653797  58.7395248
   9.6846828  34.5210037  61.3931923   9.5423832  35.3123322  61.9125938
   9.3448973  33.8119049  61.9390450   9.3489504  24.5465279  79.7649460
  10.2173529  24.3415318  79.4184113   8.9962578  23.7011604  80.0427780
  40.3738327  28.9567547   5.5783086  40.7404213  28.4524784   6.3046350
  40.8938637  29.7601147   5.5579572  41.3048210  64.9174423  30.7368526
  40.8009033  65.7214890  30.8625927  40.7069130  64.2168350  30.9974041
  31.8894920  68.1946793  87.9925919  31.7578201  67.5291367  87.3173523
  32.3526878  67.7362213  88.6936569   4.6237321  54.7096901   6.5207291
   4.9897270  54.2960167   7.3024921   5.3247437  54.6564903   5.8711262
  10.0694923  24.4377823  29.0984249  10.2033768  24.8482914  29.9527035
   9.5209904  25.0579319  28.6180172  27.2230263  11.0283613  81.3854980
  26.8516407  11.4380560  82.1668091  28.1516552  10.9195480  81.5905304
  31.6762943  64.4777298  73.6206512  31.9874172  64.6339264  74.5122986
  31.9392624  63.5774345  73.4294815  44.3667717  62.1202888  55.0733147
  43.9232330  61.2806168  55.1935463  45.0120468  62.1535950  55.7795334
  72.8670654  17.2752876  74.7869339  73.4333954  16.6024857  75.1648865
  72.9195557  17.1295967  73.8423462  54.2556305   0.2192200  86.5247192
  54.1805992  -0.7218168  86.6829987  53.5193520   0.6018178  87.0019379
  36.0148125  23.6451225   7.8087111  35.8037300  23.0962086   7.0534835
  36.5919151  24.3234673   7.4579453  54.1058769  66.6065903  35.3684425
  53.3478165  66.3507462  34.8429718  53.7606621  67.2461395  35.9913635
  82.9675293  67.8851318  73.3642731  82.3512726  67.6368027  74.0533218
  82.4277039  67.9662323  72.5779877  68.7115250  22.2896252  65.6998520
  68.6041489  21.9470863  64.8125153  69.0821762  23.1634254  65.5760574
  59.6707115  69.8251801  60.2142639  58.8951073  69.3477097  60.5087013
  60.0160675  70.2337952  61.0079880  42.4817123  62.5573235  60.2558823
  41.9031143  62.2823524  59.5446510  41.9397545  62.4967079  61.0425491
  36.1102562  58.1712074  50.2664185  35.8339615  58.9340782  50.7742767
  36.2274399  58.5051880  49.3770599  66.5638199  42.0851021  30.2376137
  66.2877655  42.0060577  29.3244991  66.9095078  41.2204018  30.4590321
  59.8575211  61.0601311  64.5979919  60.2147980  60.4208946  63.9815788
  59.3561058  61.6653709  64.0516357  78.4705811  25.7545223  77.6593552
  77.9209061  26.5317039  77.7597427  78.1477737  25.3341808  76.8622742
  15.3943968  36.8432808  47.7440758  15.6529388  35.9298439  47.8666306
  14.4598799  36.8025093  47.5409813  36.1858788  46.6192780  10.5847244
  36.9483337  46.3052788  10.0986214  35.6428757  47.0514603   9.9254827
  14.5663071  -0.0864735  65.9988174  15.1237860   0.6530173  65.7567368
  13.8980055  -0.1167994  65.3142090  37.4354095  54.7490616   5.9035263
  37.6952934  54.3260994   6.7219367  37.5003319  55.6862450   6.0871248
  13.3671570  68.7926636  61.6573715  12.7059278  68.6052094  62.3236046
  14.1986494  68.5692978  62.0756531  14.9370899  15.8926239  80.8068008
  14.8224850  15.2544708  80.1026306  14.6757154  16.7274895  80.4183273
  63.5357895   0.6238282  53.8659515  64.1175156   1.3719203  53.7311134
  62.6623344   1.0091325  53.9355888  77.5388947  20.3483391  45.4678116
  78.4374161  20.6062775  45.2620087  77.1509476  20.1340008  44.6194077
  83.1942062  55.3068390  63.2465134  83.3212662  55.3817177  64.1922836
  83.4764709  56.1529694  62.8992004   2.8787196  34.7094078  13.4305124
   2.4047437  34.6546707  12.6007032   3.3694916  33.8891220  13.4805794
  62.7991524   9.8553991  45.5440254  61.8804016  10.0180340  45.7577438
  62.7694855   9.2330198  44.8173943  39.8765335  27.0165787  11.6373825
  40.6066208  27.4488735  12.0804663  39.8832207  27.3817921  10.7526188
  75.4330368  38.0208168  12.0343084  75.7697372  38.3698349  11.2090502
  75.5094299  38.7487679  12.6511440  61.7275887  71.3045197  42.5704231
  61.2165947  71.0810394  43.3483505  62.6273270  71.0721054  42.7999535
  38.6095161  21.7986469   9.6113653  37.7511902  21.4763031   9.8863230
  38.9875946  22.1793213  10.4040689  73.7189484  54.4071198  84.6920700
  74.0607681  54.7715607  83.8756256  73.4337234  55.1704865  85.1942062
  29.5186157  58.2129974  53.9029808  30.3888588  58.5690117  54.0823212
  29.6216507  57.2666550  54.0032578   8.7193241  60.3080902  16.8962498
   8.7940378  60.0039062  15.9917507   8.0174723  59.7757607  17.2707653
  12.5566607  64.5234833  33.3693886  13.2954245  64.2699966  32.8160286
  11.8077936  64.5459366  32.7736282  15.6601763  39.8884964  14.7653074
  16.3442631  40.3583755  15.2422457  16.1077099  39.1303139  14.3896656
  70.9952087  26.4459038  70.8946762  71.6482010  27.0086422  70.4785538
  71.4208069  25.5908031  70.9570999  74.7003784  13.4462395   8.9958296
  74.2660294  13.3144588   9.8385677  75.5835342  13.7361765   9.2243042
   4.1507955  36.2517700   0.2835025   3.3262782  36.7378311   0.2957258
   4.5981326  36.5187378   1.0865285  42.4217873  24.7051315  14.5814180
  42.0952301  23.8203850  14.4176598  41.7661743  25.0998135  15.1564226
   3.5740964  60.8290024  65.8016281   2.8798430  60.2859726  66.1749420
   3.1156745  61.4426270  65.2275696  11.1202364  65.7676926  53.2301941
  11.6278286  65.9955826  54.0090714  11.3690186  64.8635406  53.0382538
  48.2895470  24.6008892  72.8741302  48.6227036  24.9042778  73.7186432
  48.4875259  23.6644783  72.8609619  65.1482391  21.2008171   3.3188004
  65.7074356  21.5869846   2.6447055  64.5171356  20.6709328   2.8318110
  34.8881569  52.8401146  79.5740433  34.9227371  53.7859230  79.7171478
  34.4800377  52.7428169  78.7136917  43.1176376  65.4293900  24.7866325
  43.8016090  64.8725815  25.1586266  43.3900528  66.3209152  25.0038948
  20.9149799  66.1408386  65.3458786  21.5527191  66.4115829  64.6854095
  21.1515713  65.2362213  65.5506210  32.5425415  46.8933754  53.7548409
  32.2069092  46.0480728  54.0532417  33.4888229  46.8354721  53.8868790
  85.2882996  13.4174337  39.0148239  86.0863953  13.9303303  39.1421318
  84.8419418  13.4550285  39.8607445   0.6229932  33.1753769  83.6329651
   0.0396002  32.4387970  83.8155365   1.1812198  32.8675156  82.9189377
  81.4343796  33.9993973  17.8303642  81.0529861  33.5223579  18.5673904
  81.9478302  33.3426666  17.3599319  65.8067856  65.1538696  44.5589066
  66.2125778  65.0811386  43.6950378  66.2085571  65.9308624  44.9476128
  55.2661438  54.4809151  47.3956299  55.4579926  54.9501038  48.2075958
  56.1037521  54.4497299  46.9333878  44.8204613   7.2765884  21.3381367
  44.5394859   6.5659189  21.9145336  45.5460320   6.9052577  20.8362465
  48.6553421  64.4248581  71.6048660  49.4361191  64.2922668  72.1424942
  48.0869560  63.6858139  71.8216248  51.4512672  42.0095177  15.3055878
  52.1329041  42.3904381  15.8592129  51.3945770  41.0970306  15.5891066
  81.1901779  43.7530174  64.0915298  81.6219330  44.4833031  63.6482430
  80.6051788  43.3834763  63.4301414  50.6460876   0.3212832  76.3043518
  50.6855965  -0.5543338  75.9196854  50.2941322   0.8738198  75.6064529
   0.4736871  49.0156212  15.4923944   0.3081958  48.1359253  15.1533051
  -0.3114300  49.2296600  15.9963875  76.7523193  12.1602154  53.5950203
  76.0643921  12.4220657  52.9831276  76.9490738  11.2533112  53.3604012
   3.9551101  19.5946865  69.1067963   3.8563921  18.6457233  69.0296402
   4.8043427  19.7805080  68.7061691  70.7419434  15.8359976  48.0076180
  71.5434799  15.3626900  47.7845802  71.0305634  16.7349625  48.1650658
  67.5476990  67.3353424  66.4209900  67.2141495  68.1414642  66.8148804
  68.4772568  67.3241119  66.6490860   1.9652513  49.4707832  86.8689346
   1.8945055  48.8842087  87.6220322   2.8849640  49.4171753  86.6091537
  20.7325668   9.4039660  12.8005695  20.2759743   9.8906775  13.4867668
  20.2226334   9.5718327  12.0080919  57.0207863   4.6825433  35.1796532
  56.6879463   3.7926123  35.0635757  56.4042854   5.0915103  35.7870293
  25.1824722  49.8307571  20.2414761  25.1864777  48.9730225  19.8166180
  26.0814552  49.9506264  20.5475712  69.0147018   2.0291939  36.0492058
  69.9647903   2.0611057  35.9371567  68.8824539   1.4698030  36.8145981
  12.8797684  41.4807549   8.5627642  13.7948408  41.7505074   8.6409216
  12.4169712  42.2766685   8.3009033  44.7846260  27.0995026  43.4955750
  45.3987427  27.3991795  44.1658630  43.9663734  26.9511013  43.9695702
  65.3974228   0.7422014  49.0910606  64.7074203   1.3808753  49.2705650
  65.5719147   0.3334726  49.9388390   4.7749100  46.1660194   0.1779058
   5.2725401  46.8821754   0.5725200   5.4143467  45.6969147  -0.3580898
  60.1177521  54.6531334  46.6693192  59.5540962  54.1368637  47.2455025
  60.4719505  55.3403549  47.2336807   2.8030882  53.3251839  27.8720169
   2.1386938  53.1946068  27.1954346   2.4286494  53.9897118  28.4503136
  53.7309914  25.8877277  81.1862640  54.0813255  25.5115376  80.3788147
  53.6171608  25.1378460  81.7701721  68.1867371  19.0406818   0.2196286
  67.5347900  18.5785599  -0.3072862  68.8191757  18.3652306   0.4646094
  80.2059708  35.1524277  32.5144958  79.4613419  35.6390419  32.8679886
  79.9250793  34.8877716  31.6385460  15.4758482  26.1561317  34.3046150
  16.2644501  25.7713280  33.9221687  15.3996010  25.7415485  35.1639977
  12.9210234  40.4280891  16.6376247  12.8889065  40.4507866  15.6812334
  13.0883017  41.3352318  16.8932514  48.2056923  52.8745804  53.9446220
  49.1453247  52.7797394  54.1006012  47.8437271  52.0076828  54.1282043
  85.8570251  28.2677078  65.3322983  85.5043793  27.5485477  64.8081970
  85.5197601  28.1093197  66.2139969  81.6006470  52.9225578  36.1696663
  80.8187790  53.4641685  36.0621147  81.3140640  52.1952248  36.7220154
  72.7565231  21.9600601  23.2766685  72.9690552  21.1210518  22.8678551
  71.8909836  22.1814785  22.9330730  65.3277206  71.3272247  31.8388901
  65.9344559  71.7640533  32.4366264  65.1909332  70.4625778  32.2260666
  58.5568657  38.8889503  72.4140854  59.2240753  39.1170540  73.0614090
  57.7929497  39.4086952  72.6641541  74.4776611  20.0413418  59.5143623
  74.9344788  20.7234344  60.0065994  73.5771027  20.0755672  59.8369408
  24.8881702  59.7232285  70.5316620  24.2064056  60.2813492  70.9057312
  24.4127884  58.9782524  70.1638947  58.1153069  56.9627457  76.9270401
  57.4024239  56.3332405  76.8186111  58.2758904  57.2970695  76.0446167
   7.4556713  39.6508789  32.2520561   7.3759055  39.6224365  31.2986107
   6.5669556  39.8257294  32.5616455  84.3239441   4.2775011  15.4473438
  83.9613571   3.7880287  14.7089806  83.5573502   4.5713377  15.9395037
  86.1851044  28.4729366  26.8648224  85.5502243  28.7707844  27.5163155
  85.6512375  28.1844540  26.1245556  73.1488647   6.6836710  11.9485035
  72.5853958   6.0889721  11.4534626  73.1393509   6.3358932  12.8402386
  60.5433846  14.7218943  38.3934860  60.7358246  13.8396950  38.7111664
  61.2814941  15.2514238  38.6951942  18.7670879  48.3944511  51.9856377
  18.1675339  48.9559441  51.4942169  18.2568970  47.6069603  52.1748352
  84.0281525  13.4890966   7.3396897  83.4382935  12.9171000   7.8307338
  83.4495621  14.1240501   6.9174271  60.4967461  48.0214462  46.1466331
  59.5487251  47.8960190  46.1047516  60.8396912  47.1683350  46.4127617
  12.5684891  26.4266548  19.8235111  13.2490177  26.6368408  19.1840305
  13.0021238  25.8524418  20.4547577  11.4490566  11.7508354   7.3159790
  11.5890255  12.5411892   6.7944608  12.0152912  11.8642073   8.0793648
   8.6802492  28.1503391  81.1513672   9.4002657  28.6061172  81.5873413
   8.8948736  28.1993446  80.2198257  19.5730934   7.1244249  27.7934380
  19.1508656   7.4697385  27.0068531  19.9558716   6.2926846  27.5142937
  53.4810562  55.3840790  54.1840363  53.6032143  55.4730949  53.2388458
  52.9936676  56.1679649  54.4374237  54.0019722  11.9136534  55.3037415
  54.6944313  12.5358124  55.5265579  53.8651314  12.0340004  54.3640480
  60.4729881  71.5854721  88.6936111  60.0372505  71.9063263  87.9040451
  60.9651146  70.8184967  88.4007111  70.9046021  48.2688560  44.8211441
  70.5409164  48.9317551  45.4081116  71.8431091  48.4559784  44.8007240
  32.2446365  53.8968086   3.8153670  32.7110596  53.0611916   3.8359957
  32.8438377  54.5159264   4.2323503  12.4587860  40.0434303  26.7488518
  12.1764164  40.1289978  25.8382607  12.2365808  39.1427956  26.9848938
   0.6553827  58.3940430   9.7230473  -0.2719565  58.2783165   9.9301252
   0.9008034  57.5898666   9.2655535  71.4918823  71.1232910   7.9641900
  71.6663437  70.9929581   8.8962889  70.5497894  70.9796295   7.8744750
  60.9991684  11.3139009  59.5981560  60.9659081  12.0837612  59.0303154
  60.9453354  10.5706596  58.9973831   9.6839132  13.0291138  86.3531418
   9.8856449  12.9749489  85.4190063  10.2708006  13.7081146  86.6859360
   9.0308132  28.5632515  71.5645294   8.8902292  27.7079372  71.1584473
   8.7878008  28.4358521  72.4815598   4.2422767  46.0989456  21.3917542
   3.9432237  46.8372383  21.9225311   3.4369063  45.6894608  21.0756359
  10.8780327  64.4788437  31.1718655  10.1397781  64.9415436  30.7754726
  11.6450491  64.9953690  30.9246311  62.3974113  65.6499329  27.0654869
  62.2798920  65.1903305  27.8968658  62.9936485  66.3697357  27.2719269
  52.2946129  54.1368103  11.8948030  52.8991013  53.4048538  12.0175495
  51.7675133  54.1486893  12.6937113  74.4681702  69.4202881  20.3517780
  73.9364471  68.6399155  20.1951809  74.9453506  69.2269974  21.1587334
   5.8863258  70.7875595  34.8035011   5.5785322  69.9081573  35.0229340
   6.8321571  70.6897964  34.6936073  56.8277092   5.9549432  11.0795231
  57.4399071   5.9405150  10.3438339  56.4251022   6.8224144  11.0391111
   0.7577538  29.9650936  46.4890442   1.0718122  30.7087364  47.0034294
   0.1115429  29.5397892  47.0527458   3.7671199  17.8322086   0.3930057
   4.1286674  17.8300514  -0.4932846   4.1361313  18.6158981   0.8003047
  16.5069466  62.2653847  30.7135849  17.3484840  62.7213135  30.7003193
  16.3267479  62.0683975  29.7943707  35.3962212  49.6575890  60.7285194
  35.8032722  48.8130646  60.9216881  34.9528694  49.5237541  59.8908081
  50.9775772  35.5325050  83.4669342  51.8130264  35.3212090  83.0502701
  51.1332626  35.3915405  84.4008102  13.6409502  54.8475990  74.6012421
  13.2729588  55.1605263  73.7748718  14.5863876  54.8334694  74.4523087
   1.5757765  50.2338867   9.6723671   0.9565240  50.6879425  10.2438469
   1.1369551  50.2003441   8.8223419  25.7455826  70.7974319  65.8101044
  24.9285698  71.2551651  66.0081024  25.5847855  70.3743973  64.9666519
  46.9990349  38.6237488  20.3708096  46.4607735  37.9019814  20.0459175
  47.2383041  38.3626595  21.2600880  80.2164230  36.4203796  17.5515900
  80.6866150  35.6064377  17.7322826  79.7571335  36.2539864  16.7284279
  59.8168983  21.5562553  72.7850647  59.5679131  22.4559860  72.9965439
  60.4631577  21.3235874  73.4517288  56.2568779  36.3865051   9.6421661
  56.1750755  36.7455063  10.5257149  57.1323090  35.9999847   9.6207886
  32.3466721   8.1073151  80.0828934  32.1252823   8.8237839  79.4880066
  32.3151588   7.3228846  79.5352554  27.9235744  65.2911758  36.5025253
  28.7385082  65.1219864  36.0297775  28.2031288  65.6892014  37.3269386
  37.4353638  31.2516308  80.5613022  38.2468948  31.0307312  81.0183105
  37.7189789  31.7614307  79.8024216  77.6365051  37.8327637  20.5460758
  76.9922791  37.4352531  21.1318989  77.1190643  38.1712761  19.8153954
  84.2280807  24.3576908   2.6434147  83.5301056  24.3456230   3.2983320
  83.8432388  23.9354134   1.8754253  63.2948761  37.0863266  11.0127783
  63.9027100  36.4548073  11.3974285  63.5908737  37.1829414  10.1076365
  12.6099167  35.1798439   9.4442711  12.6899910  34.6566772  10.2418404
  11.6728659  35.1768379   9.2489281  73.4768829  16.9715958  72.0048981
  73.5977936  16.0471420  72.2216797  73.4012299  16.9859600  71.0507965
  84.8332138   0.4566438  50.9005623  84.1342163   0.1116763  50.3450165
  84.8586655   1.3922974  50.7002220  67.4451065  48.9188499  79.1725998
  67.7256317  49.8275261  79.0637741  66.4984131  48.9421005  79.0330963
  47.9169312  23.7126598  55.0738144  47.7960510  24.3810806  55.7482262
  48.5756760  24.0821133  54.4857750  24.1904182  45.0010757   4.5461974
  24.1233387  44.0517197   4.4439359  23.2881012  45.2921371   4.6778817
  47.0410309  23.8155556  26.8133640  47.6565285  23.1373749  27.0916843
  47.2817841  24.5842915  27.3303890  44.0242958  65.8689423  85.4951019
  44.3417473  66.6433792  85.0306625  43.0731926  65.9748764  85.5152740
  36.3825188  37.8721008  18.1848755  36.7827415  38.7190781  18.3815575
  36.8544922  37.2498779  18.7383289  21.0075359  35.4372673   1.1764630
  20.3397064  36.0311890   1.5192314  20.5464840  34.6088181   1.0448002
  20.2312984  48.1049652  61.4016190  21.1805305  48.2115936  61.3398018
  19.8925095  48.9988937  61.4500275  63.5553856  25.5540905  66.2843399
  63.1958809  24.7764072  65.8574905  64.2950974  25.2262287  66.7957687
  61.6040993  31.8207893  27.8413448  61.1049500  32.4494019  28.3628139
  61.7757759  31.0948372  28.4411373  73.1087189  60.6769485  18.6828594
  72.8482513  60.0540123  18.0043774  73.5436096  61.3833389  18.2052479
  76.7501602   8.7182970  16.8241119  76.7499542   8.4701452  15.8996382
  75.9261322   9.1899195  16.9456940  75.2086792  47.4342613  23.9250755
  74.7523270  46.8305359  23.3389969  75.6411209  48.0556984  23.3393784
  65.6753464  43.9754639  51.9636879  64.7314224  43.8611946  51.8533096
  65.8762894  44.7814178  51.4879837  28.2332268  45.6828423  47.9105415
  27.5972157  46.2212677  47.4395599  28.0855064  45.8897705  48.8333588
  53.4119110  56.6866264  51.4602432  53.0216599  57.3921318  51.9761848
  52.6683540  56.1473808  51.1908417  14.2274237  56.3948975  81.3813095
  14.4049139  56.3816490  82.3218155  15.0513868  56.6796684  80.9860611
  32.8008766  60.5978088  85.8837280  33.0948067  59.7974968  86.3188629
  32.7509232  60.3622322  84.9573212  62.8263054  48.1119881   0.0940926
  62.3691101  47.2836723  -0.0511578  62.3793182  48.5039291   0.8443053
  83.9241257  56.9753838  76.6271362  84.1555023  56.7445908  77.5268250
  83.4538040  56.2098961  76.2968979  80.6639557  15.2644730  70.0291519
  81.1890335  14.6498365  69.5165634  80.2716599  15.8457060  69.3776093
  85.7491684  56.2966042  66.7089081  85.6455841  57.2478218  66.6827774
  85.7308578  56.0283585  65.7902451  50.9634514  48.4870148  77.0110321
  51.5902824  49.0183372  77.5019608  51.0082245  47.6234474  77.4214859
  67.3964844   0.1229209  60.0270309  67.9441528   0.7994636  59.6288109
  67.9201202  -0.6759951  59.9656029  70.4523239  14.6021938  10.7780428
  70.6828690  14.8960791   9.8967295  69.7972260  13.9183235  10.6387672
  68.8262177  21.5912609   0.6795270  68.2152328  22.0604229   0.1113542
  68.4280624  20.7290688   0.7992373   9.3322601  26.6723804  78.0247345
   9.9843025  26.4118862  77.3741837   9.3142538  25.9473419  78.6494141
  68.1906738  18.2170181  47.7935486  67.9787064  19.1464958  47.7076988
  68.6149139  18.1460934  48.6486626   6.3507714  45.7592545  12.1221247
   5.7654500  46.1767960  11.4902306   6.5342274  44.8983231  11.7461233
  12.3499441  66.1793365  14.3195591  12.3009272  65.4173889  14.8968477
  11.9312267  65.8923264  13.5080576  70.7635651  57.3662720   5.4389477
  71.6702423  57.6728630   5.4256892  70.3444595  57.8264542   4.7117524
  47.5420609  55.5227699  26.2815952  47.4168892  56.2078934  25.6249619
  48.0925179  55.9298515  26.9505577  27.2600727  21.5078278  78.2700195
  27.2244053  22.1272640  77.5411377  26.6831512  21.8856106  78.9338455
  43.7507133  39.3829536  19.0233250  44.1911545  40.2005005  19.2553902
  43.4321747  39.5270691  18.1322613  74.1072998  21.8009624  72.3464508
  73.6433945  21.1132259  71.8689117  74.7820740  21.3357906  72.8409500
  72.8378372  29.7568226  11.4162769  72.5291290  30.4672604  11.9786024
  72.0639114  29.4908028  10.9197884  50.9992676  59.1212997   3.1175301
  50.4001312  59.7420464   3.5321915  51.1360435  58.4425125   3.7784147
  12.4982367  11.0717230  14.8913317  13.4306431  11.2881718  14.8919821
  12.1378393  11.5672398  14.1559334  65.0847321  30.3319778  22.8092022
  65.0007553  30.7604256  23.6610317  66.0265045  30.3209915  22.6384258
  60.6997452  56.4222527  51.3066635  61.0190773  57.1952553  51.7722092
  60.5037422  55.7901459  51.9982224  65.9775391  29.6023102   9.8188763
  66.8071899  29.1299477   9.8880539  65.4168930  29.2001038  10.4823036
  77.5894318  66.6925507  36.5938683  78.5219727  66.8449936  36.4410591
  77.5632172  65.9352722  37.1787453  71.7724457  61.7897186  15.5974607
  71.7647018  62.6040497  15.0944328  72.3550491  61.2103729  15.1063728
   6.4714937  59.0305290   4.4252157   7.1376104  59.6602974   4.1496978
   5.7176127  59.5690956   4.6657147  12.5849085  38.2542305  79.9803925
  13.0604429  38.3975945  80.7986526  12.8309565  37.3688850  79.7123337
  45.5644875  62.8141022  50.2896729  45.9895439  63.6381149  50.5275002
  44.6307411  63.0236359  50.2685547  54.1172028   4.5214219  82.0191727
  54.0716248   4.2970829  82.9485931  54.7854729   3.9354348  81.6638336
  40.5195847  23.4069595  70.6524963  40.5710297  23.1063023  69.7452011
  41.0478706  22.7777367  71.1436462  82.1824570  13.6939611  72.3773804
  81.5468521  14.4053431  72.4559097  82.7637177  13.8080282  73.1292801
  63.9351311  11.6330194  65.0324783  62.9989204  11.5097208  65.1891403
  64.0855713  11.2513123  64.1676712  29.8741417  46.8218193  16.8505898
  30.7410698  46.8600502  17.2545757  30.0031071  47.1801949  15.9724293
  17.2564125  40.4552879  65.2669830  18.1820793  40.5377502  65.4962769
  16.8532181  41.2537766  65.6076889  60.6539154  12.0698853  78.9506989
  60.7245255  11.4544888  78.2209473  61.5360680  12.4285173  79.0477829
  81.6067810  30.4529419  27.9306393  82.4821243  30.8401794  27.9376774
  81.3731995  30.4057541  27.0035782  80.4662094  54.1003151   1.5591351
  81.0705490  53.4412041   1.2176943  80.4593735  54.7872009   0.8925231
  60.9297447  59.3293839  15.5195799  61.3331795  59.9970169  14.9648380
  61.5335655  59.2330284  16.2560196  37.3591156  24.1644573   4.7843294
  37.6725464  25.0684586   4.7564421  38.0999146  23.6645832   5.1272225
  79.6048508  37.4482040   3.6095285  80.4631042  37.4161034   3.1869104
  79.6786346  36.8434219   4.3477859  53.0315247  53.3396683  49.7141495
  53.1114197  53.0855942  48.7947502  53.3700294  52.5880241  50.2006454
  79.2061462   8.2037210  50.7593842  79.1294479   8.8532848  50.0605164
  79.8979645   8.5432882  51.3271141  33.9303627  62.9003258   5.1079955
  33.8585548  62.0234261   4.7310071  33.2151566  63.3932381   4.7058139
  42.6656189   2.8041830  63.7521935  43.3450546   3.3614650  63.3726730
  41.8933945   2.9650021  63.2099419  46.6852188  35.1233521  15.4654245
  47.0624847  35.7751198  16.0562706  46.4736519  34.3809738  16.0314178
  61.3001938  35.7248039  18.5330372  61.5239449  34.7973595  18.6105518
  62.0372276  36.1102142  18.0592499  13.2031651  27.1344109  62.9718018
  13.2336655  27.5882320  62.1295738  14.0536442  26.7006912  63.0411034
  66.8042755  39.3329277   6.1558433  66.8283081  38.6295967   6.8046741
  67.2887726  40.0510597   6.5630021  82.6778564   0.1019021  49.3261223
  83.0992432  -0.1721254  48.5115242  82.0779343   0.7996415  49.0625153
  22.0149460   1.6530268  14.2151089  22.2559547   2.5789871  14.1878386
  22.2499237   1.3703033  15.0988989  79.7215424  13.1088743  20.5360088
  79.5707169  12.3405752  21.0866451  79.1125031  13.7669487  20.8710346
  30.0060444  31.1122704  46.1335030  30.8869267  31.2548656  46.4798355
  29.6270542  30.4479065  46.7090225  74.3706360   3.5526769  36.2127419
  74.2010956   2.9282000  35.5073929  75.3249893   3.5867369  36.2782288
   1.6705962  70.9616699   8.8518972   1.1004395  71.0057144   9.6194992
   2.5500920  70.8502884   9.2128859  11.7446346  61.0306053  61.2874718
  12.5720816  60.8454590  61.7316360  11.6329041  60.3026772  60.6760254
  68.9817886  44.7501831   9.4081383  69.4639664  44.9033279   8.5955591
  69.4963989  44.0890198   9.8710337  66.5639954  29.1806393  53.7553978
  67.3820953  29.1295662  54.2497025  66.8368835  29.1626377  52.8380966
  75.7334213  22.1974564  46.1807442  76.3145981  22.9276505  45.9679451
  76.1679077  21.4295158  45.8096352  40.0541992  71.4156113  77.9018860
  40.4693527  70.6045532  77.6084976  39.2840919  71.1269302  78.3916092
  58.5228310  12.7584305  11.6195936  59.0529938  13.5444813  11.4881182
  58.9204788  12.3248634  12.3746614  55.4766693  24.2908878   7.5021644
  55.6214714  24.9416561   8.1890154  55.2294579  24.8049183   6.7334700
  23.7201004   5.8556480  76.8907623  23.5606804   4.9163527  76.7983475
  23.6566105   6.0178976  77.8319702  63.8406830  58.3966484  75.4841843
  63.6702919  57.6160889  76.0113678  64.6966858  58.7045975  75.7819290
  28.8554573  18.9298477  76.6056442  29.1735001  19.2304363  77.4569550
  29.3236542  18.1093922  76.4511185  71.2221375  60.3034935  28.0137711
  71.6485291  59.4847603  28.2669392  70.5425110  60.4340439  28.6750507
  40.9457893  27.2617645  25.4749260  41.7998734  26.9830074  25.1446838
  40.3417130  26.5789490  25.1832275  33.6926460  46.0030670  12.5934916
  33.1001358  45.8907967  11.8501482  33.4194984  46.8279152  12.9950495
   5.9520001  52.3890877  40.3419189   5.8113842  52.3418236  39.3962822
   5.0739989  52.4885979  40.7099457  81.8965912   5.0834537  31.4023056
  82.4769058   4.3643775  31.1525154  81.0776291   4.9014473  30.9414349
  51.4770317  43.5446053  82.1499710  51.2282906  43.8901901  83.0072479
  50.7200584  43.7216873  81.5915222   3.6910863  62.0613861   1.2630917
   3.5240378  62.7814407   0.6549416   3.5058434  61.2712936   0.7554784
  24.4788570  15.4909849  73.8237457  24.3130016  15.0251980  74.6433563
  23.9696617  15.0128517  73.1692657  66.0181274  28.3617058  48.2399673
  65.0796738  28.5446243  48.2855606  66.3217163  28.8557358  47.4783936
  44.2725983  41.0258141  58.7158203  43.4772911  41.5557556  58.6621017
  43.9621429  40.1509285  58.9491005  53.8179321  24.2540474  84.0605392
  53.6013527  23.5763664  84.7009125  53.3824768  25.0410213  84.3880768
  47.7773399  30.7506008  77.0468140  47.6612587  31.2750950  77.8390656
  47.1098022  30.0676594  77.1117554  44.7258911  48.7281151  30.0590782
  45.2437973  47.9391861  30.2190628  45.2630310  49.2505379  29.4634380
  30.1193371   0.4439714  59.5808182  30.1586266  -0.1913856  58.8659668
  29.1908970   0.6650439  59.6540108  20.5518284  67.3464584   6.4931984
  20.1266079  66.5375214   6.7778792  20.6646347  67.2382355   5.5488496
  22.9861946   4.7784600  25.3409157  22.9135895   4.0428314  25.9490356
  22.0840778   5.0699539  25.2088242  33.9203682  58.8420906  23.9677944
  32.9717712  58.7913094  23.8502293  34.2507706  58.0191841  23.6073875
  63.0722733  11.8408127  52.6610031  62.4125061  12.4028807  52.2547760
  62.6545410  10.9812346  52.7144814  46.2340355  12.5868530  63.9809074
  47.0051994  13.0102720  64.3580704  45.9575691  11.9564543  64.6460342
  45.4481583  26.4016190  24.2588158  45.7005997  25.5043945  24.4767494
  46.0793304  26.6728191  23.5922565  58.7103767  20.7221413  33.9135017
  59.4384766  20.7757053  34.5325623  58.2289543  21.5399456  34.0386276
  40.0781136  71.4259567  61.7035484  40.1587715  71.2988358  62.6488342
  40.0538597  70.5392456  61.3438454  20.5642033  65.1473541  49.2529564
  20.4861755  64.2325363  48.9823036  20.6985512  65.6281281  48.4362335
  78.3181305  19.1208496  26.4818249  77.6949539  18.7184315  25.8768978
  78.0606918  20.0422497  26.5130749  69.0567627   2.1648142  59.1982765
  68.3778610   2.6886327  59.6236458  68.9974213   2.4017863  58.2727737
  48.0479774  49.1187897  49.3695412  48.6334801  49.8650169  49.2408409
  48.4319229  48.6366158  50.1018829  57.8016510  53.4146194   8.3683481
  56.9392509  53.0203247   8.2378273  58.1505241  52.9761238   9.1443882
  77.5035782  34.9067154  27.6353836  76.7588043  35.5043678  27.5693913
  77.6505737  34.6072350  26.7382030  52.2944374  26.0969753  29.9482231
  52.2047005  25.5412636  30.7224083  52.8967438  25.6185665  29.3785019
  66.1129532  52.3013992  65.5987778  65.7980270  52.6796875  64.7778320
  65.6509094  51.4661636  65.6704102  20.6006908  40.2148972  77.0393448
  19.8091698  40.7392387  76.9177246  20.4490814  39.4275398  76.5165482
  39.5666389  69.0749435  63.7745171  39.1444206  69.8193817  64.2032166
  38.9389763  68.7945633  63.1084404  72.1823273  60.7163200  39.2792130
  71.3134689  60.7339935  38.8779488  72.6409073  61.4611397  38.8903999
  74.2148895  18.1250648  29.4918861  74.5141983  17.4067631  28.9344921
  74.9037857  18.7858982  29.4215164  58.8576317  32.2215462  25.3087044
  59.1533661  31.6861076  26.0449638  59.4581680  32.9668465  25.2981129
  59.9945259  59.8359642  82.4360275  60.8334694  59.8540039  81.9755020
  59.4866714  59.1632957  81.9823456  71.8919449  22.8241825  44.7458115
  72.1374664  23.7485409  44.7847099  70.9883804  22.8028946  45.0610161
  12.9536419  61.9343681  71.6265564  12.6476164  62.6463318  72.1884155
  12.9998007  61.1743889  72.2066727  46.1329346  35.0850449  60.3594093
  47.0887413  35.0730591  60.4096260  45.8695450  35.7723465  60.9713554
  35.7759666  54.5102768  30.2469292  36.0461197  53.9678078  30.9878597
  35.1843452  55.1590118  30.6281872  15.2500362  23.5268631  71.3135300
  15.8915710  23.1570568  71.9200821  15.4899454  23.1642933  70.4607544
  67.8888626  68.0560760  87.5775986  68.8230591  68.2506027  87.6528168
  67.4651718  68.9143753  87.5720215   8.4600601  68.0727539  65.6129990
   7.5532403  68.1694794  65.3222122   8.5722561  67.1304169  65.7380829
  18.4102116  29.4052677  63.6505585  18.8701172  30.2447300  63.6549950
  18.7656078  28.9334755  64.4037781  19.4220734  62.8225822  43.5103645
  20.3506355  62.6305656  43.3794632  18.9751205  62.3189049  42.8300858
  81.5907440   8.2383862  76.2342224  82.3248215   7.7775216  75.8280716
  81.6559906   8.0203838  77.1639862  70.9294586  20.8943901  80.3876648
  71.5191803  21.5135574  80.8178787  70.1192169  21.3868999  80.2565918
  81.4912796  70.6845169  57.8071098  80.6211014  70.7237015  57.4102783
  81.3233414  70.5499878  58.7398109  25.8926830  14.1897707  12.5009260
  25.3538570  13.3997993  12.5438547  26.4880066  14.0340815  11.7677259
  42.1934204   0.9702255  31.7323456  41.3995972   1.4916991  31.8512707
  41.8816795   0.0663418  31.6871395  13.6206522  32.7816811  60.1605225
  14.0637894  33.6263733  60.2402458  12.8051891  32.9814606  59.7008057
  58.9115295  52.5260201  39.1407471  59.6958771  51.9800453  39.0865211
  58.8437080  52.7564697  40.0673141  43.7323380  63.4827194  11.2320881
  44.4261017  63.1958199  10.6382751  43.8888626  62.9913063  12.0384655
  84.2895813  68.7910767  15.6779966  84.4622498  69.7315826  15.7211847
  84.7758713  68.4241333  16.4163113  25.1584911  60.9362488  37.9370193
  25.5386562  60.3332977  37.2981491  25.3572140  60.5419197  38.7862816
  59.5340385  69.4593887  10.2542315  59.8079758  70.2240753   9.7478285
  59.9258423  68.7158508   9.7961226  58.9278297  68.3076096  16.0347805
  58.5136719  68.2779694  16.8972340  58.7462006  67.4491806  15.6522379
  54.7234039   9.9254322  21.8642616  53.9200439  10.3013973  21.5044079
  55.4281387  10.4089336  21.4332085  19.8864613  11.8058958  70.1881714
  19.8482494  12.0120192  71.1221313  20.5123291  12.4350538  69.8294525
  80.7787170  41.0810661  77.3994980  80.6473160  40.6351814  76.5627441
  79.9854355  41.6030083  77.5199280  37.1225204  32.3894005  14.6971083
  37.4655724  32.7672310  15.5069170  36.1939545  32.2415237  14.8763599
   6.9782519  69.1921768  20.3393517   6.1910195  69.6773682  20.5865173
   6.6488466  68.3694077  19.9777241  63.2516022  32.7225876   4.2625875
  63.2882881  33.2604866   5.0535059  63.2582588  33.3538628   3.5430875
  49.1261940  50.3778572  13.6034918  48.9933357  51.1844788  14.1014280
  49.9634933  50.0372047  13.9183159   4.6976151   0.8714156  19.4214840
   4.2154469   0.0498747  19.5153770   5.6013517   0.6451887  19.6412888
  13.3851824  35.0010071   0.4433517  12.8000975  34.4080200  -0.0281098
  13.1024971  34.9410210   1.3558880  67.8190308   1.7646637   7.9403715
  68.4119644   2.5153251   7.9745822  67.0121307   2.1138544   7.5619450
  45.7522430  68.9826965  81.6983719  44.9242554  69.4514084  81.5935974
  46.4215546  69.6653595  81.6511459   4.5488443  57.2675400   4.7419930
   5.1090302  57.9360313   4.3476009   5.1586576  56.6636505   5.1658754
  63.1740150  40.7314262  12.8762083  62.6962242  40.7600670  12.0472775
  63.9500847  40.2039490  12.6872330  38.1834717   5.8032713  18.9637604
  38.5253143   4.9206858  19.1066532  38.4508133   6.0220480  18.0710697
  22.5179768   5.9188938  20.1928730  22.2915592   6.8371649  20.3403358
  22.7455692   5.5859423  21.0609608  81.6350174  18.1876907   2.9458098
  80.8000870  17.7454338   2.7924113  81.8921204  17.9151840   3.8266461
  48.7410202  41.2711334  13.9888525  48.2628174  41.8144798  13.3624907
  49.3558922  41.8733215  14.4078188  58.1337204   0.5289511  58.6747093
  58.7834816  -0.1405989  58.4608307  57.6239166   0.6332632  57.8713074
  33.1682510  63.7285652  83.6337204  33.5912895  64.5342026  83.3367004
  33.2581711  63.7480354  84.5864868  29.1002445  29.0561981  11.9880724
  28.2476940  29.3241692  12.3309708  29.7274837  29.6249924  12.4344769
  66.5058517  51.8452759  56.7797241  67.4540024  51.8499680  56.6484642
  66.2392578  52.7528229  56.6330338   7.6408606  45.0673027  30.9905243
   7.0112705  45.5618477  30.4658585   7.9207864  45.6807976  31.6698589
   8.6035776  66.1984940   5.3963780   8.4631367  67.0260620   5.8564129
   8.2394085  66.3449631   4.5233603  76.6597366  38.5792961  30.0111504
  76.5207825  39.5144653  30.1607456  75.8737488  38.1611214  30.3626900
  84.0334244  57.3380241  44.9515457  83.1932373  57.7328796  45.1847954
  83.8091965  56.6511536  44.3237267  69.2699356  62.4426651  75.1253815
  70.0332642  62.1432037  74.6315308  68.6830597  62.8059769  74.4621964
  51.0873451  11.8345785  84.9630203  50.3684998  12.3760996  85.2889786
  51.6407356  11.6844645  85.7294769  41.6857910   4.6523137  46.5276299
  40.7514763   4.7645574  46.3524437  41.8560410   5.2107882  47.2861481
   5.1775589  36.3581123  14.5309725   4.5863576  35.6135750  14.4197245
   5.9122000  36.0074501  15.0345306  62.7868042   4.9179587  39.7361946
  63.6687431   4.6776137  39.4522018  62.6002235   4.3260732  40.4649544
  14.4944611  26.6920776  13.2499418  15.2568159  27.2527390  13.1060467
  14.1426888  26.5365238  12.3734198  56.1947594   8.8935251  16.7344913
  55.6035118   8.3435192  16.2205391  56.4509697   8.3432941  17.4746513
  77.4085236  45.8183327  67.1755524  77.9206924  46.6022949  67.3738251
  77.2500687  45.4137039  68.0284271  26.7050743  48.2896118  79.0840149
  26.2942562  48.3288155  78.2203445  26.4906845  47.4162140  79.4117966
  32.6825180  56.5836143   5.6052427  32.6708946  57.1846504   4.8603587
  33.5678673  56.6601448   5.9609575  66.2236710  50.1511002  13.7128057
  66.7895126  50.5741959  14.3586025  65.7765427  50.8754311  13.2750254
  67.1205139  18.8179874  29.0139675  67.7959137  18.4265881  29.5679283
  66.3071823  18.3994522  29.2960243  59.4015198   0.5725784  40.2726631
  60.2046432   0.5527177  39.7522469  59.7037010   0.5465096  41.1805382
   9.8747931  17.8977947  59.2015533   9.4660902  17.1485748  58.7681198
   9.1546383  18.3322620  59.6585503  38.0806847  71.5439453  40.6322327
  38.7712708  72.1463470  40.3557663  38.0629501  70.8712769  39.9514732
  37.8941231  56.2268562  84.8318481  37.2268143  56.1227226  85.5101395
  38.4691658  55.4698067  84.9433594  53.5415001  16.5977421  62.2608414
  53.8194008  16.9190655  63.1186028  53.2213936  17.3765030  61.8055420
  70.0886993  45.8300743  48.6125298  70.7814789  46.0744019  49.2261963
  70.4438171  45.0790367  48.1370621  83.9743958  12.4383717  41.3916817
  84.5873337  11.7048569  41.4415627  83.8009491  12.6680670  42.3045845
  46.0706596  18.4359112   0.8244635  45.9730301  18.9344826   0.0132135
  46.9902534  18.1703911   0.8332180  33.0050583  66.9881210  48.7869415
  33.8782959  67.3564606  48.6527443  33.0544281  66.1105652  48.4078674
  80.2190399  64.8491364  79.2289505  79.7700806  64.6595688  78.4050980
  79.9627762  65.7468414  79.4403229  55.1775131  42.7686615  88.3066788
  55.1289139  42.9825363  89.2384109  54.3261490  42.3802185  88.1053772
  78.5212708  67.2406311   8.0412016  78.0604324  67.0055237   8.8465509
  78.6347656  66.4101257   7.5790238  43.0742302  24.7721100  71.1378632
  42.1802597  24.4493103  71.0245056  42.9672699  25.6863747  71.4003677
  37.5570259  38.1629181  61.3565331  38.2479362  38.0998383  62.0159988
  36.7436676  38.1646004  61.8611870  55.9417534   3.3085449  10.8547249
  56.4356804   4.1273527  10.8974056  55.8114777   3.0594444  11.7697153
  15.5785580  62.1622849  50.6460037  14.8933258  61.8607903  50.0495224
  16.3802338  62.1338844  50.1237564  85.6434021  60.1978149  29.1827641
  86.4228668  60.3104286  28.6387177  85.9861374  60.0368729  30.0618916
  30.0271969  50.1857491  49.1593399  30.1305885  50.4282150  50.0795326
  29.1414719  49.8270187  49.1042404  61.7689171   4.9477615  34.7284431
  61.6667709   5.6797090  34.1201248  62.6673431   5.0264697  35.0491638
  61.0268898  34.5699692  47.5960922  61.0262184  35.0083885  46.7451973
  61.2784042  33.6674004  47.4002876  66.7143021  26.2398510  14.8600512
  66.1391754  26.9994068  14.9524565  66.3753433  25.7743893  14.0954027
  65.9581223   5.8757958   7.5262876  66.1660690   6.4984450   6.8296533
  65.0014801   5.8518147   7.5483952  58.4399185  23.1863518   5.3799677
  57.8694916  22.4726715   5.6654620  58.8024559  23.5423336   6.1911860
  54.8774376  65.7093201  85.9314728  55.4439545  66.4230118  85.6383286
  54.6072655  65.9648285  86.8134918  59.1204338  26.3160057  39.6936684
  58.6176987  25.7335262  40.2630577  59.7716293  25.7467442  39.2836456
  21.2242432   9.3167534   2.0945809  21.9522381   9.8969641   1.8718436
  21.0803089   8.7983055   1.3029203  16.3337173  59.0861282  59.6657028
  17.0397797  58.5788956  60.0662346  15.6289177  58.4522018  59.5329399
  73.4323807  69.5245056  61.1109657  74.3508377  69.3646164  61.3279991
  72.9679947  68.7633209  61.4590683  72.2324371  41.9286194  56.2729797
  71.8443069  41.2613640  55.7069778  73.1738586  41.8590698  56.1144562
  16.3285847  51.8771095  55.9940834  16.5735188  51.0161667  55.6549454
  16.1292114  51.7229309  56.9175072  10.0672951  68.0029221  42.1822128
   9.9511232  67.0606766  42.0601578   9.4867125  68.4017715  41.5340805
  42.9812584   4.2122884  81.1200638  42.4815979   4.9881730  81.3741760
  43.2301559   4.3750720  80.2102356  20.1112938  69.4383621  83.2988892
  20.7346973  70.0545807  83.6834335  19.2817154  69.6336288  83.7346649
  60.9832382  30.5397701  87.0029144  60.4563675  30.9555950  86.3204727
  60.4668694  30.6454830  87.8019257  69.2945328  44.8763161  88.3607025
  69.6180420  44.5109749  87.5372314  68.5684433  44.3036804  88.6079178
  56.3502769  54.8733673  25.1478310  55.9492607  54.5192528  25.9415703
  56.0609703  54.2850761  24.4503746  74.7228775   3.1235228  16.6546555
  74.1525803   3.7881136  17.0410614  75.5317993   3.1767917  17.1636143
  77.4937668  61.9072800  17.6901512  78.0372849  62.6448288  17.4129467
  78.1011581  61.3159027  18.1346550  28.7591743  39.0492401  36.6401100
  28.3944683  38.3796654  36.0614128  28.1987782  39.0264778  37.4157867
  32.6111183  46.7382431  10.2074080  33.3186913  46.6271667   9.5724001
  31.9577713  46.0860023   9.9545269  13.0631151  10.0162735  22.4442959
  12.8314600   9.3676691  23.1090374  12.7042198  10.8389101  22.7770061
  14.5302286  18.6652946   7.1286817  13.7548923  18.3302555   7.5790539
  14.2864695  18.6694012   6.2030482  51.1338959  53.8047028   9.0654583
  51.9962158  53.4218140   8.9041052  50.9393501  53.5817108   9.9757643
  76.9117889  42.1805420  11.5948515  76.1933289  41.9027519  11.0266294
  77.6732330  42.2201576  11.0161791  28.5861149  10.2197952   9.1416225
  28.3050327   9.5820885   8.4854555  28.6710320  11.0407438   8.6567879
  56.4690475  67.6615524  36.5961647  56.8021011  67.9877777  37.4321594
  55.5323372  67.8572464  36.6187401  53.6383400  28.5573750  75.2472992
  52.8341980  28.0703850  75.4273911  54.0482674  28.6684685  76.1051178
  60.3872261  23.7195282  51.3099213  60.4085770  24.2906971  52.0777397
  61.1767960  23.9480190  50.8194046  75.5012436  37.3104286  24.3531818
  75.3977966  38.1348724  24.8283920  74.7467804  36.7846069  24.6187534
  66.2994766  64.0894012   4.7588196  66.8883591  64.6343536   4.2368240
  65.9839096  64.6716843   5.4499063  80.2814560  58.9985924  62.4370384
  81.1712494  59.2938423  62.6302223  79.7212601  59.5590019  62.9740219
  53.9372292  35.0338097   5.9132996  54.3549576  34.5137329   5.2268209
  53.7936172  34.4146080   6.6289816  39.8367310   8.9029150  77.8564529
  39.2159576   9.0577478  77.1444855  39.6210938   9.5672588  78.5109558
  30.8085308  51.2054520  11.2145138  31.1595936  51.3358650  10.3336163
  30.7447662  50.2550278  11.3086529  71.3820953   1.2786698  76.7102432
  71.0080872   1.9642316  76.1567459  72.0598984   1.7243003  77.2184067
  26.7699432  10.4315538  67.8830185  26.2240696   9.6950645  67.6076279
  27.3505058  10.5908070  67.1388245  54.2121010  21.7999573  42.8977280
  54.4787865  22.5502491  42.3665276  53.5420723  21.3613396  42.3734131
  64.8449020  67.0065536  22.6887722  63.9993477  66.7206726  23.0345211
  64.8354797  66.7286453  21.7728519  80.2987061  36.5959435  40.7051697
  79.4695206  37.0580482  40.5821457  80.1068039  35.6904945  40.4611092
  52.1972122  19.9595280  30.9938374  52.6813316  19.1721992  31.2427845
  51.2767029  19.7050629  31.0582199  79.0460510  38.2989922  23.9640732
  79.1666489  37.9413300  24.8437138  78.1628036  38.0275764  23.7141781
  75.8022766   9.6610022  20.0650177  75.9388046  10.0718908  20.9186916
  76.1454315  10.2957401  19.4360657  81.6059647  27.0030231  69.2540970
  81.7250214  26.6619816  68.3676682  82.3510513  27.5889492  69.3873749
  33.8950462   5.8877549   6.4069662  33.7673683   5.4209294   7.2328014
  33.1945648   6.5398746   6.3896861  71.7372284  37.1857033  21.1751251
  71.1430130  37.0569191  21.9144173  71.4936218  38.0397148  20.8179817
  69.5064697   8.3985672  26.9338017  69.6714478   8.8316174  27.7713470
  70.1288834   8.8020964  26.3288269  64.9116821  40.6082153  51.8712273
  64.6691742  40.8676147  52.7601204  64.0786133  40.5475273  51.4037437
  81.6728363  64.8788223  88.9531631  82.0908127  64.6879883  89.7928696
  81.9693604  65.7619629  88.7332458  42.8587532  67.6516800  32.8301086
  43.5783768  67.4979706  32.2179413  42.0712395  67.6194992  32.2869530
   2.6423140  25.0950584  21.8097839   3.2164869  25.8597298  21.7669373
   1.7633685  25.4473858  21.6699562  53.2780685  49.6608162  60.8921432
  52.8591270  50.4533424  60.5565529  54.1913986  49.9123650  61.0291862
  70.5279541   2.3576429  46.8635674  70.9457169   3.0134435  47.4218063
  71.0633926   2.3422265  46.0702858   3.9868598   1.9937606  82.4289780
   3.0617573   2.0271332  82.6725006   3.9826365   1.7382782  81.5065079
  62.2808113  41.2783394  29.8627300  62.4341087  40.3609161  29.6367512
  61.3932991  41.4565659  29.5516224  43.6091156  60.5395088  26.7986965
  43.8673058  60.6068840  25.8794403  43.1210289  61.3448906  26.9700375
  66.1790695  63.4863586  50.6430969  65.3455124  63.2313881  50.2476273
  66.0124588  64.3521347  51.0158043   1.7689131  14.7003422  55.9386215
   1.5869615  14.9259443  56.8508873   2.6827466  14.4154940  55.9400215
   2.3086452  20.6975670  83.2941208   1.3820546  20.4619160  83.2479630
   2.7405407  19.9082413  83.6207123  63.6859093  28.8067837   7.8430419
  62.8070068  29.0464153   7.5492105  63.9992256  29.5782070   8.3152390
  74.6157913  26.5694809  30.7531261  74.6651459  25.8993874  31.4348679
  75.4963531  26.9433632  30.7205868  36.8261528  68.8246613  42.1678467
  37.2106018  68.2838821  41.4779282  36.0323906  69.1867218  41.7740402
  59.0865555  34.1713638   6.5053267  58.7637672  35.0692825   6.4292979
  59.4770470  33.9841347   5.6516905  15.1845722  45.0355453  39.8711510
  14.2884455  45.3719635  39.8677902  15.2793388  44.5980492  39.0250740
   8.2086191  19.6642361   7.9525428   7.6033649  20.3655949   7.7117214
   7.7437735  19.1673794   8.6258068  77.3280945   1.4542788  16.9474983
  77.7944260   1.9905599  16.3062744  77.8482361   0.6534533  17.0135460
  84.2671890  21.1197243  20.2917500  84.0074158  20.4861107  20.9605408
  85.2233734  21.1335754  20.3334789  57.4599075  39.2580032  80.3311996
  57.1548271  38.9440117  79.4799881  58.3777657  38.9892807  80.3706894
  50.2027779   4.6960773  45.7097702  50.4776764   3.8456945  46.0525703
  49.9004707   4.5096369  44.8209038   2.8044586  20.9201412  15.4746933
   2.0361674  20.4530811  15.8030453   3.5334740  20.5733833  15.9890156
  34.9735756  59.3473663  16.7145367  34.4198570  59.7778664  16.0631580
  35.2713585  60.0577126  17.2828369  78.7778168  46.3345299  19.9414082
  78.9327927  46.3187485  20.8858471  79.4914932  46.8671913  19.5904522
  63.8166656  35.5982285  46.3906975  63.1817474  35.1984291  45.7963295
  63.4849243  35.3974648  47.2658348   7.0671549  24.0131111   6.8166871
   6.7520494  23.1761475   7.1579118   7.8581204  23.7892990   6.3262649
  35.3551979  25.4842033  84.6322327  34.5495186  25.8985958  84.9410858
  35.8051300  26.1717167  84.1411896  53.9367752  58.5357933  11.7676783
  53.5305367  57.8468437  11.2417984  54.4371872  58.0648575  12.4340391
  31.7949219   1.6540726   0.9813794  31.3071823   2.4678330   0.8543532
  31.5344753   1.3520713   1.8515487  40.0049477  70.4931946   5.9016466
  40.2451401  69.8113480   5.2742472  39.3431854  70.0835724   6.4588823
  74.2468948   7.5809278  80.5736084  73.7490845   7.1976767  81.2957840
  73.5854950   7.9983568  80.0217667  57.5612679  24.4798222   3.1102047
  57.8135452  24.2714710   4.0097475  56.6269379  24.2757244   3.0701017
  26.0372810  40.0835609  28.7256088  26.1576214  39.6358986  29.5630741
  25.4681129  40.8254623  28.9302197  54.5745239  60.2565498  59.6770020
  54.2785721  60.2509117  60.5872803  54.8751373  61.1530914  59.5284309
  60.4148903  64.7824326  64.9892960  61.1039085  64.4633789  64.4064636
  60.8739319  65.3320694  65.6244431  64.1079025  50.8651848  53.3241615
  63.8062096  51.3523216  52.5574112  63.4014854  50.2458878  53.5076637
  15.2601347  63.8877258  55.3724518  14.7453585  64.6718826  55.1818352
  15.8225908  64.1424026  56.1039009   1.3375100  21.9128189   3.5638652
   0.7788706  21.4935074   2.9093950   2.2060096  21.9300194   3.1618149
  48.9020500  34.2708168  69.3218536  49.6713791  34.6354752  68.8843689
  48.7392921  34.8646927  70.0546951  71.8480148  52.7966232   1.7730196
  72.0549927  53.1226234   2.6488717  71.4254379  51.9514351   1.9257100
  72.2490463  28.1359882  69.0279007  72.8023682  28.0764256  68.2491074
  71.6538010  28.8626385  68.8437881  79.9137878  62.6988678  22.1685162
  80.8493500  62.6826172  22.3702412  79.8622055  63.1068039  21.3041306
  24.1580410  64.5039368  57.8253441  24.2357750  64.6223907  56.8786850
  23.2272205  64.3338242  57.9697990  69.2135696  47.7737694  84.6174927
  68.5570602  48.4163017  84.8865204  69.8415298  48.2760086  84.0982132
  16.9712067  30.8024006  15.7924805  17.1396904  30.0603065  15.2118416
  17.7863884  30.9136353  16.2817001  18.1846714  48.7336426  15.4851151
  18.9893494  49.1264763  15.1468668  18.4759083  48.1719017  16.2033501
  82.6974716   0.8359519  63.6576118  82.2986603   1.4976774  63.0925446
  83.6307144   1.0487226  63.6538429  44.2191772  43.1307640  16.4491673
  44.0614891  43.6994972  17.2027645  45.0004349  42.6308479  16.6857071
  33.6329079  33.8909340  24.3646488  34.5398903  34.1546745  24.2095680
  33.7020378  33.0537567  24.8235474  16.4828663  29.2104645  86.7625427
  15.7253485  28.8007717  87.1803360  16.2242699  29.3143578  85.8468094
  64.8125763  32.2656097  46.3458061  65.4551239  32.0209122  45.6798553
  65.1212006  33.1085472  46.6781197  36.7745171  65.7304001   1.8804756
  36.2632294  65.7502441   1.0715114  36.4409256  66.4669342   2.3927839
  75.5119095  64.1291275  78.2624283  75.9249268  64.5378265  79.0231018
  76.1651154  63.5081673  77.9400024  35.8450928  53.6176796  41.8902702
  35.7442398  53.9118347  42.7955513  35.7462616  52.6666489  41.9350319
  28.9251575  42.2353859   9.7583981  28.7675877  43.1647453   9.5919752
  28.2907772  42.0025406  10.4363184  82.0973587   0.3495249  82.2268753
  82.9287720   0.7860368  82.4124374  81.5623703   0.5131275  83.0035706
  47.4088554  26.1083145  36.3588219  46.5210342  25.9682808  36.0295868
  47.8130569  26.6920834  35.7168961  26.8342781  65.9594574  44.1015434
  26.7700691  66.7160873  44.6843033  27.7512856  65.6908493  44.1579247
  16.5868340   2.2798090  76.9726028  16.3101997   3.1961391  76.9659653
  16.8916264   2.1151657  76.0802841   8.2484550  64.6554108  48.4923820
   8.9768400  65.0780640  48.0373535   8.6507330  63.9239540  48.9607506
  35.8768616  51.6813431  38.3545761  35.2583122  51.6646652  37.6242676
  36.6650772  52.0853920  37.9916801  65.3196640  25.6229210  61.5195351
  64.4264679  25.3770676  61.7603378  65.6303864  26.1485558  62.2566833
  70.2003326  70.0374146  39.3003731  70.5749741  69.8934021  38.4313889
  69.5123901  69.3762970  39.3771667   7.3002138  10.1055508  11.6298447
   6.9016104   9.8001900  10.8149204   7.5688167  11.0050383  11.4427423
  64.0794067   6.4594669  70.9119873  64.1035614   7.3984447  70.7276840
  63.4273033   6.1125803  70.3031693  81.9103928  70.3966370  15.3937540
  81.2500839  70.1624146  16.0459557  82.4575653  69.6151505  15.3155508
  46.9757309  20.1549606  25.2026386  47.8844528  20.0047817  24.9420567
  47.0198898  20.8921986  25.8115425  52.1933365  27.6676960  66.3253937
  52.5324097  26.7935505  66.5180893  52.6899872  27.9535980  65.5586929
  46.4856911  30.1584473  27.5914822  47.4289932  30.3180962  27.6219158
  46.1341362  30.8949604  27.0912914  42.6770515  44.7033386  44.8128891
  43.1350937  44.6035843  45.6474419  43.2638283  44.3070755  44.1687622
   0.4429556   6.4989448  21.9041042  -0.4642953   6.7758446  21.7758312
   0.6780377   6.8408260  22.7667084  63.5691948  48.6048050   8.9880066
  64.4797668  48.3099899   8.9746742  63.2100945  48.3111839   8.1507092
  66.1722794  45.3142471  67.8665237  65.6007614  46.0426521  68.1094742
  67.0583191  45.6470985  68.0092545  67.1350861  43.2416878  65.3646545
  67.6456528  44.0297661  65.1789246  66.4583588  43.2296906  64.6878052
  62.8355522   0.4343705  40.3557663  62.3778534   0.1139739  39.5785332
  62.2892876   0.1513794  41.0890770   7.0571141   1.1517223  14.6878014
   7.1481371   0.3950916  15.2669878   7.9146729   1.5762789  14.7118263
  85.9010620  35.0770988  52.8499146  86.7112503  34.7744865  52.4397354
  86.1863632  35.5024681  53.6585541  62.0557671  44.1900558  78.6381454
  62.1994019  43.4440002  78.0559082  62.7637978  44.1329460  79.2797546
  13.8305292  47.4676819  67.4385757  13.7586250  47.8155060  66.5497055
  14.2661629  46.6222458  67.3304291  50.2085114  71.1561508  49.4341202
  51.0626259  71.3079681  49.8386803  49.7228470  70.6476746  50.0835915
  45.0985909  15.5123911  66.2440033  44.2063942  15.7078342  66.5304031
  45.4914894  16.3701019  66.0821686   5.6650424  14.0839338  52.5837135
   6.4781079  14.0131989  52.0835609   5.8957682  14.6218710  53.3410912
  57.5380783  29.1073513  64.0674210  58.4182167  29.0469646  64.4388351
  57.1043053  28.3011799  64.3469925   2.0288720  68.2749100  78.6144409
   2.2667031  67.8675690  79.4473572   2.8248954  68.7253647  78.3321915
  74.5611725  17.9121399  43.9597321  74.3150330  18.8033562  44.2074890
  74.3678436  17.3858337  44.7355270  50.5591888   7.0460196  53.1085892
  50.3629341   7.2997398  52.2067337  50.7912025   7.8667021  53.5431938
  69.2905960  37.7760582   1.3013669  68.4603348  37.9876823   1.7281222
  69.1187744  36.9575844   0.8357400  42.7152863  11.0536337  70.6373825
  42.4374390  11.5946236  71.3765411  42.3349457  10.1931820  70.8140106
  69.3298187  14.3049421  75.5884399  70.1888657  14.7138233  75.4831238
  69.5233994  13.3894253  75.7899017  80.6536942  27.8308849   6.1046677
  80.3149109  28.7117748   6.2643256  80.1030884  27.4862957   5.4015875
  69.3274612   6.6719389   8.9348917  68.7930603   7.3278561   8.4872141
  68.7319565   6.2680879   9.5661688  76.8593369   7.7821946  74.1334229
  76.5291519   7.0844207  73.5674515  77.7400894   7.4968376  74.3764801
  43.3495522  20.5868816   5.1511092  43.3434372  19.6326962   5.2267580
  43.0595322  20.7579708   4.2550912  86.6962433  48.0432014  19.8122959
  85.7933807  48.3284035  19.9527664  87.2295303  48.7332993  20.2067547
  49.0532036  28.7201366  37.5127563  49.4783440  27.9012280  37.2580528
  48.4990120  28.4812908  38.2557602   2.2695732  32.6315880  58.4992065
   2.1388974  32.3461838  57.5949402   2.9672511  32.0660896  58.8303986
  54.6221466   6.9948850  15.4319954  54.0120125   6.4900298  15.9696665
  54.6607857   6.5188465  14.6024618  57.6328011  30.3456593  15.7533894
  57.4637947  30.1351585  14.8350439  57.5619583  31.2992153  15.7975006
  81.0049210   9.3369665  36.1480370  80.3124084   9.9039116  35.8085861
  81.8160400   9.8056631  35.9514618  63.3339767   3.0053542  62.8817177
  63.9563904   3.5428238  63.3715744  63.2819328   3.4227340  62.0218811
  58.4925232   4.8743029  78.2583237  59.0657654   4.5996585  78.9739990
  57.7883530   5.3596268  78.6882477  18.8968964  64.2211838  79.6476288
  18.5475006  63.3763580  79.3640366  19.1276855  64.6701126  78.8343506
  58.1902924  61.0567589  35.9971046  58.2699776  60.8675308  35.0621834
  58.8036385  61.7757416  36.1490784  58.9918900  36.2419548  19.9298897
  58.8844910  35.5401344  20.5718765  59.8871803  36.1370621  19.6078835
  35.1246796   2.8857577  19.1935730  34.2737427   2.5067401  18.9733696
  35.6355057   2.8121336  18.3874302  51.8017197  14.7070236   1.8449188
  51.0964355  15.2246542   2.2333367  51.7783928  14.9305239   0.9144698
  11.7175264  41.8258324  45.2193909  11.7200422  40.9242172  44.8979607
  11.3137827  41.7702141  46.0854912  66.9947815  30.2946339  71.1714478
  67.6502686  29.6038151  71.2681198  67.1804657  30.9028091  71.8869019
  75.2953568   9.9014330   2.2431197  74.9505539   9.0670624   2.5611920
  74.5400162  10.4893827   2.2458398  58.6876450  69.6257629  48.1407814
  58.5324860  68.9229813  48.7718544  58.5770302  69.2090149  47.2861977
  45.1212883  59.1626434   4.7615118  44.5399323  59.9040070   4.9307451
  44.6234207  58.5979385   4.1703534  57.6260414  16.2048302  11.1443844
  56.8784103  15.6085062  11.1853600  58.2565422  15.8415375  11.7662506
  52.6163330   3.0014706  41.6562386  52.4320335   3.9371169  41.7388954
  53.4273033   2.8727260  42.1481552  63.9891052  35.7480392  30.4095955
  63.9052696  34.9941025  29.8258343  64.9065857  35.7389297  30.6823311
  35.8270836  44.2133827  11.9681892  34.9410095  44.2540932  11.6084051
  36.2707939  44.9769783  11.5990381  56.3302727   2.8894172  62.2266502
  56.4650192   2.6217804  63.1357384  57.2051048   2.8688264  61.8387337
  29.1030407  41.9654655  52.5647163  28.9378033  42.2978134  51.6824036
  29.9178982  41.4695740  52.4851608  40.1353340  33.8386002  69.1350632
  40.9982071  33.5097847  69.3871765  39.5252609  33.3743515  69.7082214
  75.4378433  42.6233597   4.1607699  75.7983322  42.2626724   4.9708185
  75.5556793  41.9266357   3.5150771  33.8250275  32.8914757  74.6762848
  32.8820648  32.7309952  74.6402664  34.1781693  32.4134178  73.9259567
  42.5355034  50.3276024  60.6812592  42.0120125  51.1263390  60.6163864
  41.9087181  49.6182442  60.5392075   5.8288803  37.9770508   1.7387145
   6.7132702  37.6736870   1.9437931   5.5555530  38.4622498   2.5172412
  53.0065994   0.9449791  63.2090797  53.3246956   0.2604397  62.6204796
  52.7253075   0.4744687  63.9937630  67.6673584  31.1844120  41.8352776
  67.8746033  31.6021214  40.9993324  68.4559326  30.6895618  42.0577660
  51.3054047   4.8929834   2.0030129  50.6641006   5.5300646   1.6882252
  52.0926170   5.4100070   2.1739421  36.4774933  17.5192699  68.2252274
  37.1633492  17.4459782  67.5615540  36.8780746  18.0307980  68.9281540
   6.2878003  32.1104813  21.2002220   5.5264344  32.3837967  20.6885052
   5.9738727  32.0897217  22.1042404   3.6705534   1.3713386  62.4625931
   4.4298425   0.8882345  62.7886658   3.2649972   0.7803112  61.8282127
   6.1844077  60.7559738   0.5352463   5.7837729  60.8462296   1.3998721
   5.5797396  61.2033081  -0.0567848  44.5498886  28.7667694   2.9278917
  44.7411232  28.0598259   3.5442469  44.1894608  29.4674301   3.4713974
  47.9939804  69.9142303  21.3076191  47.6789474  69.4239883  20.5482426
  48.4746666  70.6525803  20.9334431  34.2404518   0.4014078  32.4963875
  33.9213638   1.2948425  32.3691559  33.5466042  -0.0322698  32.9931030
  76.9213486  24.6325283  14.6831150  76.8259048  23.9317455  14.0381145
  77.7667999  24.4622898  15.0984058  -0.2053754   0.8123523  44.1968079
   0.4705213   0.7787458  43.5198517   0.2747887   0.9871066  45.0062103
   8.9648638  20.3943577   4.7748628   9.5101604  19.6309166   4.9647055
   9.3657436  20.7883205   4.0000591  39.5067329  14.5913477  67.2531738
  39.1042519  13.9341316  67.8208923  39.8119507  15.2717009  67.8533325
  81.2374420  42.4832802   8.2353678  80.8088379  42.9164543   8.9735346
  81.1152954  41.5486984   8.4022999  78.0571213  56.8839798  59.4198799
  77.6967010  56.0122643  59.5824890  78.9206619  56.8669090  59.8324814
  49.3001480  25.1103134  25.4724331  48.4400558  25.0498028  25.8881397
  49.1452293  24.8544407  24.5631695  62.8158264  50.4931335   4.4676485
  62.6626701  50.0030289   5.2754679  62.0147591  51.0013733   4.3403196
  62.8466530  12.6840019  19.3173275  63.7012215  12.3400259  19.5773773
  62.2154083  12.0991411  19.7364902  76.7481995  70.9855728  54.8777962
  76.2209702  71.7762070  54.9925117  76.2078247  70.4144821  54.3318176
   2.9016092   8.4583073  85.1502838   2.8474107   7.8965235  84.3771744
   3.5948899   9.0848808  84.9429169  26.6590195  50.2849503  35.8552628
  26.3360157  50.0345650  36.7208290  27.5724697  49.9989548  35.8485374
  49.7592697  60.8605652  72.2257538  49.3217506  61.1201057  71.4149246
  50.6856308  60.8056679  71.9910736  35.9610062   1.3137175  77.6613388
  36.5157051   0.7161475  77.1598892  35.5235405   0.7533920  78.3023453
  16.6501923  10.0550756  12.7785931  16.7469654  10.8983383  13.2210569
  17.4722328   9.9388418  12.3021774  58.5830345  15.2547464  45.6555939
  59.3855515  14.7684641  45.4665680  58.2885513  15.5720701  44.8018875
  83.5088730   9.9330502  54.4077797  83.8327560   9.4400616  55.1616287
  82.7269897  10.3800669  54.7319260   1.4685246  16.9403305  71.7883682
   2.3327742  16.5503674  71.9196472   1.1635267  16.5730019  70.9587479
  73.9612732  27.2292900  77.6925049  73.5160599  26.3836403  77.6386719
  74.5646439  27.1358089  78.4296875  75.1621552  53.4002914  74.9713211
  74.6930084  53.1022186  75.7506104  74.6237946  54.1120949  74.6252899
  72.1807556  43.9956360  33.1831055  72.3992157  43.2890167  33.7907181
  72.9479370  44.0691223  32.6154213  75.2371063  52.9120026  37.2112999
  75.8146744  52.3925438  37.7705994  75.3353729  53.8083611  37.5324211
  82.4576721   5.3117156  27.4486694  83.3093185   5.7368002  27.3475227
  82.4668961   4.6012759  26.8072472  57.1342850  35.8445816  74.3662872
  56.9181900  36.4198341  73.6323776  56.2855339  35.5701675  74.7134857
  58.7309761  20.5818596   3.8940957  59.3345528  21.2420235   3.5533476
  57.9015846  21.0477428   4.0003924  18.2051239  13.9945745  75.2955017
  18.3193207  14.3304615  74.4064713  17.5183201  14.5442553  75.6728363
  75.3013840  41.1358185  71.3541870  75.7697067  40.3056641  71.4422302
  74.3770370  40.8983192  71.4277039  40.0330658  67.3612137  17.5646744
  39.9978142  68.2644043  17.8796864  39.3698692  67.3218307  16.8755817
  49.8164864   2.8824012  68.3953629  50.3178215   2.5559282  69.1425629
  50.2492409   3.7020402  68.1563034  52.0078316  41.6976280   4.8895726
  52.0872002  41.4127693   5.7999506  52.1430779  42.6446609   4.9222789
  66.2435455  40.6334724  56.0329933  65.7869415  39.7966423  55.9466553
  65.9022141  41.1676750  55.3158112  62.3610306  14.8806572  17.5441551
  62.2708511  14.0616293  18.0312843  61.5057335  15.0112219  17.1347027
  78.2391205  68.7882767  82.2885818  78.8680954  68.6081238  82.9872742
  78.3963699  69.7030640  82.0547714  41.3050842  56.2951736   5.2766547
  40.8288040  56.5771637   4.4957142  41.5684166  57.1102333   5.7039337
  57.1240234   0.2812133  16.7849426  58.0781288   0.2487949  16.8547115
  56.9060936  -0.4089445  16.1585083  84.0309753  69.5099411  33.5316353
  84.4932022  70.1909714  33.0429840  83.2902832  69.2749786  32.9727097
  58.2322273  34.5572281  17.7601032  58.5981178  33.6925392  17.9463120
  58.3558540  35.0494461  18.5716877  81.2975388   6.4260640  68.7552414
  81.0313110   5.5070686  68.7268829  81.3237610   6.6391582  69.6880493
  12.3837814  27.6472588  83.9384155  12.9723501  28.3905544  83.8067856
  12.3004313  27.2512054  83.0709915   8.2660208  50.7969131  33.3023758
   9.0488663  51.2188721  32.9483528   7.6206083  50.8603172  32.5983505
  59.6024971  45.9078865  37.0634270  60.1647453  46.5529823  36.6345253
  58.7372055  46.3168716  37.0787811  44.8033409  61.6295700  67.7302475
  44.7356491  60.7173119  67.4484024  44.8298378  62.1307373  66.9151611
  21.1539898   6.5123758  72.1043396  20.6093864   7.2533808  72.3699570
  21.9576149   6.9126167  71.7723389  35.8303299   3.1931617  14.8167028
  35.2937546   3.0446150  14.0380802  36.7208405   3.2893667  14.4791126
  60.4082909  11.1631451  72.4175949  61.0143547  11.8676186  72.1881714
  59.5393257  11.5460300  72.2970505  52.1649590  46.4530334  18.6516075
  52.9288483  45.8967400  18.8040504  51.4404678  45.8383942  18.5351562
  83.8835144  11.2367134  59.1909332  84.2467194  11.5545197  60.0175591
  83.2678375  11.9185066  58.9219818  65.0400925  10.1476049  71.6909027
  65.5796814  10.8041992  72.1313095  64.3433838   9.9509544  72.3171310
  68.6277161  68.0822372  75.0468369  68.0219345  67.9101715  75.7677002
  69.0418777  67.2365570  74.8749847  49.4811859  51.2301788   3.9861977
  49.7074089  51.7596626   4.7508569  49.0759163  51.8484612   3.3781528
  34.7091331  46.6660233  47.6933289  34.4103851  47.2999649  48.3453255
  34.3884811  47.0105171  46.8598213  86.4343262  40.0136833  62.0722313
  86.0490036  40.8746185  61.9092979  85.6825638  39.4283562  62.1643105
  25.1233482   1.9673021  13.0481796  24.3877792   2.5605795  13.2004728
  25.8052216   2.5231302  12.6709061  57.8721466  38.2152901  21.4399109
  58.1722183  37.5507698  20.8197498  56.9449577  38.0178719  21.5724964
  74.5450516  37.8823471  75.2106934  74.7522812  37.4661407  76.0473938
  74.1711273  38.7300873  75.4509964  69.3026886  60.7905655  14.1876307
  70.2315292  60.6843681  14.3930597  69.2918777  61.3434601  13.4063339
  49.4666214  36.0388565  23.7986698  49.4049072  35.1436348  23.4655075
  50.1779709  36.0078316  24.4383965  86.4649582  28.8722782  71.5891876
  86.6894608  28.5955105  72.4775772  85.9680023  29.6815701  71.7088394
  24.8218746  42.9616394  40.1503944  24.3927956  43.6022034  39.5831146
  25.2017841  43.4838943  40.8568993  72.6683960  41.7692070  34.5536880
  73.5360947  41.5313416  34.8804321  72.1496735  41.9249420  35.3429260
  62.2683029  65.2987900  50.4679604  62.6015053  66.1805878  50.6342239
  61.5679932  65.1823578  51.1100235  78.1306686  67.8122864  53.0648575
  77.3594131  68.2013168  52.6524887  78.8202286  68.4657288  52.9475899
  52.1771812   0.6805188  40.1157722  52.3495941  -0.2591012  40.1759377
  52.4637527   1.0310946  40.9591026  34.0063972   0.9188272  70.8373413
  34.8879585   0.9817236  71.2049332  33.7686348   1.8223782  70.6292648
  65.9090195   0.7897748   3.0916245  66.3043442   1.2113587   3.8546543
  65.5025406   1.5071342   2.6054099   8.1235504   0.3949510   8.5681839
   9.0098667   0.7471391   8.4867020   8.2441607  -0.5543560   8.5905752
  13.9967890  41.0215721  54.2351952  13.1489840  41.3512230  54.5331688
  14.6391516  41.5504456  54.7083702  14.6477804  38.3985481  67.1123047
  15.1479235  38.1928406  66.3225098  14.3084641  37.5536804  67.4077606
  37.5675926  22.3281651  21.8993664  38.3178329  22.7018032  21.4370174
  37.3912506  22.9463081  22.6086159  45.2771568  26.5391312  17.9873085
  46.2223930  26.4103832  17.9086742  44.8946419  25.7761822  17.5539227
  22.6558838  68.1864853  61.7209167  23.2596874  68.7675858  61.2583351
  21.8253021  68.6621780  61.7299385  43.5564804  15.2680607  88.3695297
  44.2196045  14.7115841  87.9610825  42.7629509  14.7327738  88.3717957
  66.2037964  28.4381504   6.5546856  65.4582825  28.5643768   7.1416326
  65.8094788  28.2888489   5.6953511  49.0475960   1.7254390  55.2593307
  49.6560783   1.4326115  55.9377327  48.4277077   2.2900224  55.7210808
  59.9901505  36.9106255  71.1317139  59.6132202  36.6570778  70.2891769
  59.4778137  37.6719742  71.4039078  76.9004440  28.4538097  13.3656645
  77.8563995  28.4053802  13.3596458  76.6452408  28.2623158  12.4632063
  38.8217163   5.1843491  16.2130795  39.1435013   4.3036261  16.0206890
  38.6012268   5.5511346  15.3568773  63.7329521  38.6258163  46.9828262
  63.4459190  39.3587456  46.4381599  63.8254967  37.8950272  46.3715897
  17.0176392   3.6702094  57.2111893  16.4012260   3.2348838  57.8000526
  17.8503532   3.2233002  57.3631516  82.3975296   9.9781055   7.7930560
  83.3441696   9.9040480   7.9139781  82.0569992   9.1170340   8.0355997
  15.1844454  33.3059387  40.4848442  14.7940540  32.9717064  41.2923813
  14.5505333  33.0842857  39.8027458  14.2517738  46.8442802  13.2956619
  13.5847197  47.3498344  13.7600842  15.0744848  47.2890472  13.4995279
  29.2406502  41.1901474  66.1174393  30.0493412  41.3752327  65.6399460
  28.9615784  40.3339272  65.7930374  54.5673904  10.8551397  10.6556730
  55.1340637  11.5103846  10.2485304  54.1192780  11.3283939  11.3567133
  38.4367485  51.9866867  25.8680344  38.0930328  52.2768326  26.7129631
  38.7854652  52.7820129  25.4654369  34.5321083   8.0779085  38.9735527
  35.1448441   7.6355700  38.3860779  34.0950584   8.7254143  38.4204216
  31.7067070  36.8359985  18.8140812  31.9373188  35.9150620  18.6919003
  32.0363579  37.2717590  18.0281582  28.7130089  53.1429710  16.8973293
  28.5157108  53.6081467  17.7102985  29.2599926  52.4061699  17.1696606
  61.3543015  19.0325108  47.3060532  61.8962021  19.6473694  47.8005524
  61.7340355  19.0316219  46.4273987  43.9581490  65.2669449  47.3143845
  43.8929176  64.6386642  46.5951881  44.1580276  66.0999527  46.8873253
  84.7392807  69.0899963   5.1846113  83.8705750  69.2462463   5.5549703
  85.2587204  69.8430405   5.4662852  72.0644913  58.3745346  17.5887890
  72.3931427  57.5448418  17.2426224  71.4427719  58.1200943  18.2706642
  27.1103592  32.1564751  75.5974426  27.5589848  32.6138077  74.8862381
  26.7775784  32.8560066  76.1597061  20.6521473  68.6683273  19.2101288
  20.9059067  69.5876083  19.1278744  19.7040844  68.6688385  19.0781898
   6.5634174  55.2742043   4.6866093   6.2836609  55.4023247   3.7802134
   7.2703485  55.9074821   4.8108668  21.3319168  68.6236267  87.8420868
  21.2689877  69.5748291  87.7555695  22.2297859  68.4182968  87.5815048
  34.1614418  60.6466064  54.5250626  34.0289230  61.5392532  54.2059212
  34.3579445  60.7517624  55.4559555  36.7840805   5.4069705  39.2714844
  37.1764793   6.0974112  38.7371216  36.6503220   4.6801343  38.6631660
  45.3742599  66.8330078  13.3535242  44.8379250  66.8916550  12.5628662
  45.2085686  65.9525681  13.6905708  28.1696224  37.0883560  15.3204145
  28.4741039  36.6622810  16.1216526  28.2904873  36.4286041  14.6375151
  75.1301727  31.2149982  25.8730965  75.2680283  30.5048733  25.2462387
  75.8643112  31.1420021  26.4829712  21.3748035  28.9655018  65.4916763
  20.7018986  28.2899170  65.5754395  22.0900917  28.5344124  65.0239639
  83.4721603  49.7836685  48.3162880  82.9937973  50.1404190  49.0647049
  84.2602234  50.3236618  48.2562714  46.2039413  20.5332317  65.8180466
  46.7629089  20.6470222  65.0493851  45.3174438  20.6959171  65.4957352
  79.4418488  54.3120117  27.8372936  80.0745544  54.5283585  27.1523800
  79.6544189  54.9070091  28.5563354  11.8828840  61.3485374  68.0446014
  12.0825539  62.2395020  67.7573013  11.7598495  60.8569374  67.2325592
  62.0015793  25.9060612  34.0533524  61.9953537  24.9488850  34.0562172
  61.0788803  26.1517792  34.1203117  64.4802856  65.5480957  33.2348328
  63.9800797  66.3161545  33.5107193  65.0723953  65.3725357  33.9661407
  80.9911957  47.6529236  72.5171661  81.4633102  48.3765526  72.9291153
  81.5792007  46.9026985  72.6046066  22.8776379   8.1329679  69.2202301
  23.1967831   7.6596489  69.9885712  22.0659676   8.5467253  69.5138702
  52.1393585  67.3948975  47.4901466  52.2780228  66.4884949  47.7647896
  51.1954765  67.5292664  47.5753860  17.1740189   6.7779865  81.7762146
  17.9194565   6.8170929  82.3754044  16.8601189   7.6808128  81.7251892
  84.3330154  52.0924263  54.3467293  84.8478851  52.3716431  55.1038132
  84.4674988  51.1457939  54.3015747  48.4024124  27.4537239  61.1272621
  48.4010963  27.6931400  62.0540352  48.8210144  28.1946678  60.6890717
  58.0569725  48.0938721  54.5898819  57.8499184  47.6216278  53.7834396
  57.2104683  48.4082565  54.9074059  77.6016922  65.1085739  83.1556625
  78.2833939  65.6906738  83.4913254  77.5001907  64.4418716  83.8349609
  30.0308666  14.8174601  16.0479736  30.4160252  15.6488132  16.3249874
  30.1352081  14.2410917  16.8050365  52.5073395  30.8663445  31.7432804
  51.7959290  30.9204292  32.3814011  52.5064430  31.7201862  31.3106327
   1.4575187  34.8323593  80.2718277   1.4841670  34.2455368  79.5160751
   0.6517478  34.5952339  80.7308884  80.8392487  22.3621273  31.2237320
  81.7559509  22.3678761  31.4991550  80.3459778  22.2443905  32.0355530
   2.8223627  15.3244991   0.5974484   3.1852741  16.2087135   0.6493502
   2.6655383  15.1843967  -0.3363659  49.9981461  31.5884972  62.2418251
  49.6029625  31.6061268  63.1134605  50.4793510  30.7615242  62.2136955
  76.3795624  63.3424530  20.1466770  75.4588623  63.5930824  20.0710697
  76.6657562  63.2065620  19.2434273  27.2682095  55.0595169  12.5260029
  27.8333511  55.3356209  11.8044672  27.8183384  54.4797897  13.0527925
  35.1935501  53.1664810  35.2121506  36.1041641  53.4614601  35.2125168
  35.2258224  52.2901192  34.8285103  69.7908249   9.3654146  60.1541634
  70.6384354   9.6628532  59.8235245  69.7064362   9.7862110  61.0097580
  71.0385666  14.6287508  65.7785263  71.5029602  13.7918873  65.7633743
  70.3467712  14.5306625  65.1242828  14.1707582  29.6823940  83.1130295
  14.4118652  29.5662727  82.1940002  14.8884068  30.1942940  83.4860840
  28.4372845   1.5705727  73.5854187  28.1056175   1.1100411  72.8146133
  28.8192081   2.3762283  73.2371597  17.3723602  61.2190514  20.8994236
  17.3709869  60.3873215  20.4256573  17.9465599  61.7866325  20.3852463
  38.2597771  33.3164597  87.6539688  39.1258507  33.4165382  88.0491028
  37.8344688  32.6376114  88.1779022  68.7675705  57.8631058  17.5374451
  67.9243698  58.1529694  17.1892719  68.5867615  57.0037994  17.9184017
  73.3117523  35.2114410  81.6579971  73.3847122  36.0078926  81.1320877
  74.1508560  34.7669754  81.5372162  56.3014603  68.2650528  45.6637268
  57.0365334  67.7359924  45.9735603  56.7086296  69.0519333  45.3014259
  42.0788231  30.8003273  61.6739273  42.2557983  30.4046650  62.5273705
  42.8237457  31.3814487  61.5202408   5.1930752  50.3370361  28.3943748
   4.9156637  50.9415092  27.7059803   6.0487208  50.6652222  28.6707764
  34.0845222  47.1132393  27.7302113  33.4285965  46.5247650  28.1039658
  34.5834160  46.5631676  27.1262589  73.7229614  35.2581749  21.6102066
  72.9949188  35.8794098  21.5945644  73.3265152  34.4186592  21.3772354
  54.1922073  12.2531042  73.4883499  54.0332718  12.2499981  74.4322586
  54.8437424  12.9420137  73.3574371  73.1153488  22.5522480  39.8722076
  73.2710800  23.3150120  40.4291344  73.8021469  21.9323006  40.1175842
  46.6232109  16.2679462  79.4761200  45.7387924  16.3863926  79.1296997
  46.5648689  16.5585861  80.3862610  63.8641701  50.0913124  37.6758423
  64.5295181  50.4004745  38.2906303  64.3638535  49.7113724  36.9532127
  62.3401375  13.3135586  45.6528168  62.2477760  14.0701351  46.2318611
  62.2610703  12.5565939  46.2333221  39.2495766  39.5930977  57.1304131
  39.4197540  40.4584656  56.7583847  38.4065628  39.3339996  56.7583504
   3.8421400  47.7952652  81.7094727   3.9221642  46.9735374  82.1938248
   3.5968194  47.5282249  80.8236160   6.6075168  49.5678635   4.3183088
   6.5919757  49.7200966   3.3734198   6.3845787  50.4163017   4.7013016
  11.5647802  69.7877884  57.1308060  10.8335438  69.2764969  56.7842522
  11.7374840  70.4456787  56.4573174  56.4373398  52.0268440  17.5976677
  56.4427910  51.7351036  18.5093098  57.3619576  52.0659256  17.3531628
  68.0539780  27.7689438  10.3347893  68.0154190  27.6932564  11.2882128
  67.8388596  26.8923855  10.0160418  85.9637833  24.3644791  80.0752106
  85.3709564  25.1050091  79.9471436  86.6823120  24.7204990  80.5978928
  86.1299133  37.5105019  64.7370605  85.3753662  38.0810509  64.8832169
  86.8779068  38.0166740  65.0541306  19.0763912  41.2068748  59.3841515
  18.2353516  41.6403694  59.2393532  19.1409035  40.5665092  58.6756287
  75.4731216  23.5239925   5.5096087  76.2516251  23.0973186   5.1516743
  75.8153229  24.1519299   6.1458688  65.4298172   9.0206146  51.5304604
  65.4419861   9.9768867  51.4901161  64.6772385   8.7678890  50.9956779
  57.0597725  47.9194145  58.7137756  57.4651375  47.4473724  57.9863930
  57.6269836  48.6777992  58.8529015  12.8699331   9.4980268  81.1780624
  12.3258629  10.0519123  81.7379150  12.2488308   8.9143448  80.7424316
  41.9370575  13.8298006  62.2191620  41.7017326  13.7195816  63.1404152
  42.1471138  12.9457607  61.9181938  62.9563179  46.2206688  29.7122498
  63.5223961  46.9125824  30.0543652  62.4135895  46.6578026  29.0560589
  78.8217239  59.8534050  14.7612057  79.1504669  59.4012299  13.9842281
  79.4228439  60.5883026  14.8829269   2.3139138  43.5298538  70.9033661
   2.5711987  42.8839684  71.5612946   1.7619168  43.0421982  70.2920380
  41.6435661  68.7478867  78.7088852  42.3103638  69.3041916  79.1115494
  41.2862930  68.2378387  79.4358215  85.8042221  -0.1747631   6.0233498
  85.7544174   0.6871654   6.4366665  86.0396347   0.0089486   5.1139202
  78.5370712  59.5991364  36.5372849  78.9300385  59.9207344  37.3486977
  78.2861176  60.3913651  36.0622826  48.2442093  13.9996815  70.1747894
  47.6474686  13.7529860  70.8813782  47.7373695  13.8626366  69.3744354
  73.7116089  61.2848511  52.7830582  73.8714905  62.0963173  52.3011971
  73.2849884  61.5668602  53.5921936  17.0408154  10.7763853   4.3877697
  17.9204121  11.0966215   4.5877452  16.5223656  11.5694447   4.2517519
  34.4956322  53.8520927  12.5225382  34.4336815  54.5882111  11.9138317
  33.9683685  53.1625977  12.1190252  40.4049911  44.9108772  39.0479813
  40.5002899  45.7148438  38.5373077  39.4744263  44.8767929  39.2696037
  35.8024216   6.1874962  76.1867599  35.4970856   5.6747041  76.9351196
  35.6013527   5.6432509  75.4254456   0.9770551  24.8836002  81.8504791
   1.7336035  24.9934635  82.4264984   0.2206214  25.0356464  82.4169846
  61.3974571  67.9196243  43.2154617  60.9590797  67.1453934  43.5684891
  60.7354012  68.3405457  42.6670647  58.5188332  16.3879223  37.6559944
  59.1796532  15.7162094  37.8243713  58.8211975  16.8274765  36.8612595
  32.2931976   5.2893867  19.6723423  31.5588055   5.8774424  19.8486748
  31.9511471   4.4156322  19.8615170  11.6617937  68.6696014   5.3110595
  11.2543430  68.6813278   4.4449887  11.0345020  69.1195755   5.8769784
  72.0651016  51.4918137  77.1501923  72.2990570  52.4199181  77.1610718
  71.6651001  51.3556938  76.2912979  38.3595734  10.0208178  20.2299480
  38.4203377   9.6771450  21.1212559  38.2117386  10.9595366  20.3447628
  37.4552879  48.3331795  35.7119102  37.1343307  47.6074371  36.2471809
  37.8193436  47.9132729  34.9325676   3.2392249  21.0074234  73.8735199
   2.9545779  20.2051105  73.4359131   3.5539451  20.7149677  74.7288895
  50.1454086  69.8955460  84.5360260  49.3620300  69.8199997  85.0808487
  50.2804527  70.8383102  84.4401245  26.0807877  51.3663940  16.0597916
  26.0980110  50.9405136  15.2027264  26.6560802  50.8300743  16.6053486
  69.9552231  44.7629166  21.5700607  69.9077377  43.8156548  21.4409256
  70.2323380  45.1068192  20.7208443  85.5614700  59.1411247  66.8172455
  85.1928558  59.7625961  67.4450378  85.4090805  59.5449104  65.9628677
  84.8694000  44.4618568  53.0950317  84.0711136  44.9399300  53.3195839
  84.6308746  43.5396729  53.1894684   4.3255854  31.9212875  36.4426003
   4.8398852  32.4506149  37.0521393   3.4220471  32.2043686  36.5830116
   0.6536407  24.3227692  35.0800591   1.2617824  23.9662685  34.4325218
   0.0405786  23.6080132  35.2518501  58.6311302  33.9415703  21.3591919
  58.4215126  33.3237610  22.0596256  58.8649025  33.3883324  20.6138649
  41.4906960  24.1578808   4.3739085  42.0229111  24.1012230   5.1674876
  40.8131409  23.4921207   4.4918847  49.0680695  40.3326836  60.4428596
  49.7908936  40.2811737  59.8174706  48.4355545  39.6851120  60.1317253
  46.0315628  54.4705467   0.5364974  46.1708069  54.8466568  -0.3326314
  46.1668663  53.5307426   0.4152633  69.0184402  27.0889664  78.8155746
  69.8250504  27.1643925  78.3057556  68.5319443  27.8882408  78.6138077
  49.3691330  42.4840012  27.8579617  50.0379105  42.7055054  27.2099609
  49.8394852  42.4672356  28.6914616  63.2662010  16.5065117   9.3140173
  63.0613441  16.5792694  10.2462034  63.3044052  17.4119282   9.0058060
  48.1490173  62.7972107  34.2946243  47.8103561  62.7112885  33.4034729
  47.4788704  62.3927345  34.8455620  10.8775806  33.2544289  59.1559792
  10.5393381  33.6497459  59.9594383  10.1607313  32.7048340  58.8392677
  57.0981064   2.1415563  70.3685150  57.5792084   1.3156242  70.4196167
  56.2846603   1.9747705  70.8446655   1.1860266  19.5662251  72.4486618
   0.5865000  19.5231075  73.1936035   1.3742187  18.6513329  72.2394028
  85.5944214  20.4080772  13.7388783  85.5273666  19.4824047  13.5046473
  86.2923965  20.4396286  14.3931475  44.0750008   4.3861966  78.4589844
  45.0189056   4.2683439  78.5656891  43.8454781   3.8235784  77.7193832
  54.0682869  34.4046936  88.4679489  54.2675362  33.5079155  88.1990204
  53.1731148  34.3606606  88.8040466  44.7939034  37.0292206  41.8444633
  44.7937126  36.0927353  41.6464119  43.8676682  37.2576561  41.9227982
  56.1014786  26.0368462  31.9086876  55.1511841  25.9576092  31.8256607
  56.4363174  25.1753941  31.6596603  22.1829147  50.6819305  80.2956543
  21.7429256  51.5099449  80.1032181  23.0807858  50.9326477  80.5129089
  75.9060516  51.1996918  87.3724899  75.5154724  51.4477692  88.2104263
  75.6341248  50.2913895  87.2410507  46.7056313   0.3823873  66.5961304
  47.1842690   0.6572029  65.8140717  46.1722679  -0.3564977  66.3031998
  76.3594131  29.3016071  84.1596909  75.5690079  29.0337677  84.6284714
  76.6042862  30.1358185  84.5601425  33.2991219  69.9691696  75.0785370
  33.9061737  69.7791977  75.7938232  32.6725273  70.5876999  75.4540710
  62.5166206  29.0197735  16.3052044  62.7914581  29.8067131  15.8346491
  61.8275795  29.3226891  16.8965530  41.1907654  57.9851074   8.9767656
  40.4212379  58.4889221   8.7117605  41.0169487  57.7430267   9.8863897
  77.2750931   1.7416717  30.8642082  77.9799271   1.8112855  30.2203217
  77.6817780   1.9950434  31.6928444   2.3884244  42.9383583  10.6297045
   2.9695179  42.9913940  11.3884859   2.2673151  41.9998016  10.4859104
  66.5006256  15.7833614  64.0402985  66.1739273  15.0860510  64.6088638
  66.0271683  15.6628113  63.2171745  43.7431755  31.7678261  78.4566650
  44.5349693  32.0621834  78.0064926  43.4722519  30.9847927  77.9774017
  79.8577652  17.3478107  15.7702808  80.8133087  17.3663101  15.7170286
  79.6123734  16.5086040  15.3807344  78.0524597  50.6927872   3.6464808
  77.8024673  50.6364441   4.5687385  78.3139496  51.6054649   3.5245342
  77.3003006  17.1919041  44.1363564  76.3607941  17.3638992  44.1993484
  77.6089020  17.7929878  43.4583511  68.9594193  34.5315208  24.1623802
  68.5720215  33.7855377  24.6202774  68.2098236  35.0601959  23.8888054
  11.9898281  45.8322563  53.1753578  11.8075438  46.4115601  53.9152298
  11.1263256  45.5504608  52.8733864  24.1642265   2.4198842  50.3313904
  24.4640446   3.3103080  50.1483994  24.9693069   1.9117160  50.4305916
  86.6619873  66.1475677  62.7853012  87.1420746  66.1438599  61.9572105
  85.7507172  66.2967148  62.5331726  68.4662094  29.8827991  33.2419128
  69.0338364  29.4164543  33.8555565  69.0156784  30.5849781  32.8936806
  81.4158936  66.0416718  32.7551460  82.3031311  66.3436508  32.5606117
  80.8655548  66.8133698  32.6215668  81.3231659  71.6772079  65.8626633
  80.7780457  70.9505310  65.5609665  81.9053268  71.8619766  65.1256485
  69.2883148  10.0156422  52.2223206  68.7557602  10.4984598  51.5902557
  69.5913925   9.2455177  51.7413979  78.5692978  55.1469421  13.3457394
  78.1560974  55.8561134  12.8532238  79.1528168  54.7254639  12.7147923
  66.7022552   6.2800016  10.2242994  65.8377151   6.4804058  10.5829687
  66.5358353   6.0574045   9.3083372  85.7701950   1.6988193  23.2713947
  85.1644592   1.9372593  23.9731483  86.3021698   0.9951383  23.6429768
  78.9160843  40.0387917  64.4083099  78.2731094  40.1248932  65.1121521
  79.5050659  39.3452263  64.7054749  58.1435509  42.8268967  14.3467045
  58.4632416  42.2203140  15.0146008  58.6971321  42.6573105  13.5844564
  23.6354771  18.7009010  10.0684309  23.7100620  17.8328514  10.4648638
  24.0365105  19.2909241  10.7066145  34.1107407  28.0994091  88.3315659
  33.6224861  28.9223766  88.3552704  35.0268555  28.3617535  88.4217834
  80.2417221   3.1936049  19.8378716  81.1036072   3.3765354  19.4638176
  80.0723495   3.9327550  20.4219971  86.6002960   8.7182741  70.6771011
  85.7366333   8.8855600  70.2998276  87.0888748   9.5272160  70.5250015
   0.7345219  27.1781902  31.0083790   1.4084632  26.8133316  30.4348698
   1.0300348  26.9621696  31.8928223  62.5008888  16.8730679  85.2889481
  61.9383316  17.2971916  85.9369278  62.7714310  16.0548553  85.7055664
  21.7631245   6.6936975  86.1869812  21.5443287   7.4177246  85.6003418
  22.7072105   6.7729797  86.3235245  78.5754929  61.3479156  59.2072296
  78.3385468  61.7606316  60.0377426  78.4100037  62.0225868  58.5486984
  55.0347939  53.4803467  31.5658302  54.5314445  52.7457466  31.9168777
  55.3455429  53.9495239  32.3401260  83.3320312  29.2864227  39.9946671
  83.0330734  28.3941154  39.8196030  82.6323013  29.6747494  40.5198479
  24.4874477  46.9376030  70.4461288  23.8555298  47.2115402  71.1108627
  25.3009396  47.3773041  70.6933670  24.1129169  38.3816643  30.2822971
  24.2182560  38.6443405  31.1967030  23.2568588  38.7281799  30.0306530
  11.8824177  48.4902878  14.1485577  12.0081816  49.3293877  14.5916452
  11.1336756  48.0939865  14.5941601  86.3042526  67.6766357  20.2408333
  86.1980972  68.1447220  21.0689983  87.1699982  67.2730865  20.3030605
  30.2958050   1.3337862  45.8682251  30.6610374   2.0264606  46.4187164
  30.6609192   1.5008466  44.9993095  66.6521606   3.1881623  87.7818451
  67.5479202   3.5255699  87.7801285  66.2145844   3.6739538  88.4809647
  43.5932579  14.4159222   6.7063818  44.1217537  14.1544294   7.4604011
  42.9621201  15.0417213   7.0617261  47.6302567  51.9917526  79.8116989
  47.9173698  52.3332443  80.6585617  48.0493355  51.1337662  79.7448730
   0.3715504  36.2262611  33.8615074  -0.5026703  36.0820198  33.4993401
   0.5400626  37.1573563  33.7169304  75.5687027  40.7123222  74.5589294
  75.9997635  40.7095451  75.4135742  76.2832336  40.8167419  73.9306259
  62.2462959  54.0360565  40.7931023  62.6523819  53.4440117  40.1600075
  61.6172943  54.5419617  40.2786598   5.9622583  66.3297577  75.0144348
   5.6084104  66.8054123  74.2629242   6.9101448  66.4435654  74.9452286
  72.7400513  35.7800789   4.6595864  73.5886078  35.3539238   4.7803464
  72.6989365  35.9706230   3.7224450  22.2356701  60.5752068  60.8747292
  22.0006714  61.4683647  61.1262894  22.6727657  60.6718254  60.0286560
  84.2678986  46.9822044  29.3320007  84.5206146  46.1941261  28.8510685
  84.7286224  46.9107018  30.1679745  29.1321449  53.0950851  75.4771423
  29.0773239  53.3615685  76.3948669  29.7692337  53.6960449  75.0908813
  28.1980553  31.0179558  80.0938950  28.2653408  31.1029758  81.0449371
  27.5937347  31.7130756  79.8334427  28.1031551  42.3814697  62.1822929
  28.4863567  43.1496162  62.6057816  28.8524132  41.9098434  61.8184090
  37.6332626   3.4177451  73.7430115  36.8342209   3.6008320  74.2372208
  38.3419495   3.7069280  74.3177948  26.8175430  18.3718071  71.2956924
  26.0592346  17.7916698  71.3638229  27.5129204  17.9134598  71.7674942
  81.3875351  23.6690197  51.0126915  82.1086578  23.3512115  51.5560226
  81.3613815  23.0638924  50.2714958  82.1699600  37.2917480  52.2037735
  82.4652176  36.3824463  52.1565895  82.2824783  37.6265793  51.3141327
  16.5290813  71.1514893  16.4059410  17.3923779  70.7421341  16.4640656
  16.7007790  72.0229797  16.0492001  54.1236420  15.0822601   4.2071004
  53.6506424  14.6910915   3.4726021  55.0112114  14.7312698   4.1345820
   9.7597723  22.2546654  88.4914169   9.8492651  22.8831940  87.7750549
  10.4846306  21.6424599  88.3648605  28.6719551  58.1049461  60.5125084
  28.1481972  58.8724670  60.7423325  28.0689545  57.5391312  60.0303535
  21.7466507   2.3934724  22.8990917  20.8765354   2.0235312  22.7498417
  21.9379120   2.1936455  23.8154545  64.1397018  43.7199440  84.6931610
  63.7415810  42.8559265  84.5873184  64.3082199  44.0171700  83.7990189
  85.8270187  59.8605995  86.8124924  85.7178345  59.8561363  85.8615494
  84.9365768  59.9362106  87.1554642  77.2720947  54.2869949  25.7201233
  77.6270065  55.1070633  25.3769608  77.8298645  54.0797958  26.4699173
  27.5418053  20.6827374   9.7491055  27.7727222  20.7300682  10.6768274
  27.1188354  19.8297081   9.6507835   3.4314733   4.6787386  28.7220726
   3.0106828   4.8225727  29.5697041   4.3078523   4.3617215  28.9404564
  56.9534531   9.8328781  54.2067719  57.1737175  10.7061586  53.8825836
  57.6590004   9.2724619  53.8837090  69.8812180  27.7702274  39.4389572
  69.4595642  28.4397755  38.9003067  69.1549530  27.2978821  39.8459663
  19.0635014  47.8044739  33.4518967  19.6528530  48.1765327  34.1080017
  19.5403118  47.0524979  33.1005936  29.8690548   2.8906915  69.6917114
  29.6754284   1.9623395  69.5616989  29.6120605   3.0644293  70.5972443
  28.6036396  71.5208054  65.5724030  28.5173054  71.8511200  64.6781616
  27.7285480  71.2040405  65.7962570  70.4894028  68.7418594  46.3854942
  70.4186020  68.3334274  47.2482796  70.0819931  69.6013107  46.4931946
  82.0326920   3.1339905  52.6055145  81.3489456   2.4676678  52.6743393
  82.4683075   3.1190722  53.4577141  30.2085228  37.4794235  82.5128708
  31.0669384  37.6336975  82.9072723  30.0548477  38.2491188  81.9649811
  85.1744003  33.2411995  71.4325562  84.5244522  33.6892090  70.8911743
  85.7918472  33.9282913  71.6833420  79.6595535  53.1026917  38.7019768
  80.5270081  53.4749680  38.5433426  79.0900040  53.5460930  38.0732994
  70.8670502  26.8179207  46.3097763  70.6242905  27.1236382  47.1837502
  71.3138962  25.9853668  46.4628029  83.4513855  20.3406773  37.1509323
  83.3872070  21.1375694  36.6245537  83.1463394  19.6442776  36.5693779
  31.2367725  60.9039192  26.0309124  30.8883686  60.0256882  26.1843910
  31.5208473  61.2032127  26.8946018  38.2907753  51.0793419  48.6671143
  38.2893333  50.3306999  49.2635803  37.4449844  51.0321121  48.2214241
  10.7154922  19.6340923  83.7650604  11.5569782  20.0725460  83.8911209
  10.8375626  18.7662487  84.1499939  18.2807388  59.0015945  79.6870651
  18.7678127  59.4440155  80.3822327  17.6189384  59.6378365  79.4160461
  61.7302856  36.4883652  73.6416626  62.5869102  36.3032684  73.2567520
  61.1786804  36.7248268  72.8959732  50.1507492   3.4770923   7.7743802
  50.9354706   3.0526869   7.4275022  50.1503296   3.2554295   8.7055607
  73.0989380  12.5880318  35.2384796  72.5920181  12.5632277  36.0500526
  72.4793320  12.3179379  34.5607147  23.1167850  22.3482113  12.0038376
  23.5654621  21.9575710  11.2539577  23.1946239  23.2920094  11.8644800
  65.0662308  64.6805954  28.7415123  64.9414062  64.2739258  27.8840332
  65.9672623  65.0032425  28.7246914  17.1478443  46.7917976  40.0341911
  16.4286213  46.1737671  39.9038391  17.1129074  47.3649330  39.2683411
  50.9608879  42.6538315  51.9866676  50.3425789  42.3548508  52.6534042
  51.4532356  43.3548508  52.4137497  20.3395557  49.9337959  14.5188999
  20.9257698  49.1995316  14.3360224  20.9227066  50.6466484  14.7796812
  39.1294327  50.7699890  57.8963394  38.2500687  50.4215546  58.0431061
  39.0471153  51.7080498  58.0680923  29.5671787  41.6353378  24.3585510
  30.0952930  42.3097191  24.7857914  29.8751907  40.8129272  24.7393494
  62.2561264  47.0234032  64.9078217  61.5469704  46.3973351  65.0540161
  63.0524826  46.5377159  65.1226654  81.6993103  10.2224550  86.6533737
  81.2493362   9.4362812  86.9627075  81.0012207  10.8661366  86.5326614
  75.7070312  45.8344727  39.2353973  75.9203339  45.3300972  38.4503250
  76.0994492  45.3375931  39.9532700  86.7025757  29.3459053  57.1386414
  86.3713455  29.8610916  57.8742371  86.0790329  29.5100880  56.4312057
  39.5070152  65.7514648   1.6731291  39.7694893  65.2848816   2.4666255
  38.5501251  65.7346344   1.6908286  82.3786545  33.9891129  61.9684715
  83.2154846  33.9080200  62.4260445  82.3029861  34.9227180  61.7712708
  35.6957970  50.5225601  88.9455643  35.0780678  49.8993530  89.3279953
  35.8985291  50.1602287  88.0830994  28.9494247  41.6274529  33.7330704
  28.1855011  41.0510979  33.7546959  29.3030186  41.5899086  34.6217728
  64.3784332   3.0424967  25.1701145  64.6330719   2.6525493  24.3338528
  63.8783913   3.8221102  24.9284725  47.8098831  59.4309616  62.6816292
  47.6930923  60.2985458  62.2944717  47.8959312  58.8433113  61.9309654
  23.7846088  39.1367149  81.4358978  23.5222225  38.2187729  81.5049362
  24.1176434  39.3567123  82.3059082  77.1504288  44.8084068  48.3092422
  77.5193863  44.3180046  49.0438194  77.8756332  45.3468208  47.9923363
  15.9941998  35.3835754  11.6961145  16.3320808  35.9553871  11.0068378
  15.0470972  35.5211220  11.6785669   3.9240763  40.8107071  71.2681274
   3.9365563  40.6292953  72.2079010   3.2505462  40.2262421  70.9202957
  79.7755051  32.7850685   7.6237226  80.5147247  33.0799179   7.0918789
  80.1230469  32.7431831   8.5146170  71.5344009  70.2986221  44.0412979
  71.0964050  69.5812836  44.4993515  72.4676590  70.1358185  44.1782112
  58.8835030   6.2420568  47.5702477  58.9128113   5.7009554  48.3592873
  59.4568901   5.7920575  46.9497948  61.4480095  59.6383667  38.3096313
  61.5588722  60.1031952  37.4802475  61.7866211  58.7595177  38.1387634
   0.9388205   8.5264349  81.3171082   0.4543626   8.7112474  82.1217041
   0.4013542   8.9052954  80.6215286   2.8583469  43.9604111  64.4103088
   2.1398585  44.4679108  64.7877350   3.6187634  44.1870575  64.9456863
  84.0152206  55.3509941  57.6456757  84.5612411  55.9142227  57.0971642
  83.4047852  54.9397621  57.0337219  17.6034298  40.1858864  83.9269104
  17.8544579  39.9028206  83.0476532  17.7749386  39.4248848  84.4816132
  85.8881912  38.7625198  14.9549389  85.1565170  39.0859070  14.4292879
  85.7396469  37.8189812  15.0173740  67.7615509  64.7369919  42.8654938
  67.7645493  63.9929314  42.2633400  68.6859741  64.8915100  43.0599098
   3.5245566   1.6740255  28.5734768   2.6171241   1.9734566  28.6295033
   3.8834755   2.1376524  27.8168659  37.9472084   0.4886720  23.5308838
  38.2699966  -0.2214619  22.9761314  37.2082443   0.8550624  23.0451660
  49.1906929  10.5468788  48.0844803  48.4261017  10.8892336  48.5475388
  49.0506592   9.6003485  48.0579605  40.4180489  16.3596821  69.3277435
  39.8777275  15.8168812  69.9019012  40.5415878  17.1743431  69.8148727
  83.7264023  44.0516090   2.4117157  83.7857666  44.1502419   3.3619680
  82.7937927  44.1476822   2.2187426  69.7780914  65.3820419  19.4481983
  70.3581848  66.1113663  19.2295399  69.9027023  64.7549973  18.7357960
  82.6586609  62.0542564  53.0968513  82.6324921  61.6994057  52.2082405
  82.3518295  61.3362999  53.6505890  71.7010422  71.1773682  47.8845062
  72.4349899  71.7867279  47.8055725  70.9301682  71.7014465  47.6669769
  53.6616821  28.6279087  36.8793488  54.4572449  28.9525948  36.4575768
  53.2806473  29.3996277  37.2982712  34.1494865  51.3828888   2.7951579
  35.0364227  51.1753082   3.0892544  33.8084183  50.5540199   2.4591806
  69.2671967  69.9056854  59.2849503  69.0577087  69.9851456  58.3543434
  70.0303116  69.3284149  59.3102341  73.3387756  66.3362503  78.5025253
  72.5096130  66.0161896  78.8578873  73.9899445  65.7045593  78.8077850
  13.2343702  28.3310223  60.5104256  12.9462290  29.1219769  60.9660568
  13.5133228  28.6394310  59.6482773  76.0555725  20.9874935  29.1539669
  75.2407913  21.4882927  29.1144562  76.5774918  21.3212776  28.4242935
  86.8095169  68.8580856   3.1812778  87.3157196  69.5993347   3.5137527
  86.2819519  68.5742264   3.9278209  38.3742828  48.0272751   8.5410919
  38.7269707  48.8384590   8.1752768  38.9695168  47.3454094   8.2296610
  44.5627022  51.8617058  31.3201351  43.6910286  51.4896126  31.1861038
  45.1265297  51.1029091  31.4703312  49.3387032  32.0412483   3.0413003
  48.7271194  31.3607426   2.7600379  48.7866592  32.7003822   3.4620378
  51.5768967  18.3146687  40.5136909  52.1160545  17.6884594  40.9968109
  50.6997719  18.2100258  40.8823776  62.6227112  41.4366455  41.2427254
  62.5930138  42.0527153  40.5107346  62.5060349  41.9826660  42.0202103
  56.7033615  67.1710052  39.5647926  57.5567436  66.7418594  39.6264725
  56.7881889  67.9524307  40.1110649  48.1249847  46.2193413  14.0755777
  47.2931976  46.1810799  14.5476971  48.7289505  46.6392136  14.6880856
  48.9268456  57.2712212  74.2658157  49.4990807  56.5131645  74.1469421
  48.6764603  57.2398529  75.1891556  67.1863708  21.9737415  41.8403473
  68.0328369  21.8733349  41.4048615  66.6706085  22.5122337  41.2401428
  50.2881966  37.2443810   2.8216455  50.3006821  38.1987877   2.8936350
  49.6775742  37.0661087   2.1063871  21.4637756  13.4172249  32.7318077
  20.8720589  13.1440544  32.0307503  21.0962677  14.2428312  33.0473175
   3.1082129  52.4387093  73.5246582   2.2590337  52.4194336  73.0833435
   3.7423708  52.2535667  72.8319855  86.3839111  25.8044586  28.1741695
  86.7745514  26.1271019  27.3620510  86.3082886  26.5810509  28.7286224
  57.9136047  40.7122231  22.7558231  58.6075058  41.2664413  22.3986435
  57.9934311  39.8885612  22.2747345  68.7560272  48.2161636  66.7625809
  68.7784958  47.3506699  67.1707993  69.6766968  48.4606705  66.6686859
  82.2031631  21.9078465   2.6252487  82.9457092  21.4537277   2.2269676
  82.1555252  21.5553989   3.5139232  20.4085751  33.0730972  19.3380184
  21.0548077  32.8721886  20.0149593  19.6252499  32.5916977  19.6042614
  45.2227211  33.1887741  82.3148041  44.4388199  33.3116150  81.7794113
  45.5744705  32.3439407  82.0341568  35.6189651   5.8586960  82.3651352
  34.9840012   5.1830196  82.1274109  36.1029243   6.0276179  81.5567551
  81.9232254  46.1605530   7.9751410  82.6148987  45.7832222   8.5186863
  81.3372345  46.5908813   8.5977716   6.0878325  64.9911346  26.5570049
   6.8656526  65.3796921  26.9573193   6.0451193  64.1082306  26.9242706
  71.6237946  64.9668350  29.5547295  72.4417343  65.2386551  29.1384163
  70.9378586  65.3150406  28.9851074  81.4467163  61.2918510  30.8224621
  82.1049728  61.6779404  30.2446461  81.2989044  61.9566727  31.4950638
  57.6085320   1.9206262  67.2822647  57.2444534   1.9037962  68.1673584
  58.5214615   2.1814704  67.4037247  45.5548325  70.2190018   7.1608815
  44.7410049  70.1522446   6.6614208  45.2722740  70.2637177   8.0743313
  79.4895477  35.2259293  47.1906700  78.5347900  35.1996956  47.1276093
  79.7931137  35.0644493  46.2973557  61.9589691  66.7685471   1.3487506
  61.6395035  65.8823318   1.5184433  62.1392250  66.7822723   0.4087768
  83.4024811   2.0126956  34.8749504  83.5826416   2.8194392  35.3575859
  83.5423126   2.2462881  33.9572830  80.5978699   2.2871785  34.8042183
  80.2012405   1.8237793  35.5419044  81.5402451   2.2205508  34.9582634
  43.1940765  65.8517761  49.8162613  43.7397499  65.5254288  49.1007462
  42.5303612  66.3900452  49.3850021  58.8592491  64.7593765  28.9374828
  59.1381531  64.8868713  28.0307350  59.6092720  65.0419998  29.4607582
  72.8731918  41.2691231   3.7787580  72.1853104  40.6484146   3.5383861
  73.5711823  41.1111221   3.1430895  21.5916729  17.4315052  70.2245407
  20.6953163  17.1065941  70.3094559  21.9275475  17.0045357  69.4364243
  63.6097565  64.1234207   2.0907295  64.0210495  64.1436462   2.9548249
  62.6908264  64.3328400   2.2579019  36.9913750  46.3435707  81.3454514
  36.2770042  46.8916397  81.0206070  36.6511955  45.9613457  82.1544113
  12.2930336  47.7177925  30.1560078  12.1934729  47.5317078  31.0896530
  12.5762939  46.8866310  29.7750015  70.3464279   3.7253330  50.7820015
  71.2843933   3.5722342  50.6679459  70.1846695   4.5597448  50.3417511
   7.0757446  28.0092411  61.2461624   8.0287113  28.0214958  61.1570740
   6.7869558  27.3297539  60.6369553  65.1919022  48.6933289  25.0674324
  64.5959854  48.6114464  25.8120193  64.6899719  49.1763496  24.4109364
  47.5605125  33.2898636   4.7503552  47.4438171  32.8696747   5.6024442
  47.0164528  34.0761681   4.7945337  49.7634583  22.5145874  32.1486053
  49.7365685  22.4489994  33.1031761  50.6780968  22.7129726  31.9478283
  49.4696312   8.7374878   2.5039804  49.9650002   8.6590929   3.3192689
  49.6674271   9.6188812   2.1873498  82.3256531  51.4390984  87.3601456
  81.4248810  51.7201996  87.1994781  82.5189590  51.7487144  88.2450180
  77.3578873   5.0476937  13.4364309  77.7837677   5.1228218  12.5824890
  77.9079666   4.4356775  13.9253931  50.2197075  30.7032661   9.3767633
  49.7400932  29.8756886   9.3404999  49.6014099  31.3215599   9.7661896
  42.4964943  19.3097553  22.5822105  43.4165802  19.5093651  22.7549286
  42.5205688  18.6497402  21.8893661  58.0007172  22.4284840  37.9132729
  57.6610298  21.5978489  37.5802765  57.2235260  22.9741745  38.0333824
  79.4963760  67.0117340  84.4054260  80.0559006  66.4925613  84.9830246
  79.9173584  67.8707733  84.3728333  22.9189510  37.3579330   1.8506925
  22.0365314  37.6405525   2.0908923  22.9100914  36.4094963   1.9796129
  68.9535446  45.8111687  68.0069427  69.5203857  45.5284233  68.7245636
  69.1901016  45.2404976  67.2757721  84.7854614  35.3042603  19.3510818
  84.7357178  36.1128426  19.8609390  85.4216919  34.7642326  19.8199234
   7.4574542   8.1421146   5.4091091   7.9233003   7.8630834   4.6208444
   7.8321524   8.9976692   5.6185379  45.3929596   9.0149946  10.9605074
  45.2928200   9.9605417  10.8503075  45.8986588   8.9201603  11.7676668
  13.0835896  14.6623201   0.8132002  14.0220137  14.5104837   0.7012247
  13.0253744  15.2667542   1.5531342  65.1286545  13.8514376  41.4615669
  66.0135651  14.2080574  41.3841743  65.0003891  13.7310476  42.4024620
  59.3878479  45.6179276  53.1010094  58.6783867  46.1562958  52.7502136
  60.0006256  45.5243492  52.3716393  56.0785904   4.5742779  41.2714653
  56.6282768   4.0386691  40.6994476  55.4558945   4.9957991  40.6791763
  43.0698891  53.2520103  47.4378777  43.7300415  52.5600967  47.3968124
  43.4635429  53.9868546  46.9674873  38.9925461  47.8124619  49.1639099
  39.7334747  47.3906136  49.5989952  38.2365761  47.5875244  49.7062607
  34.0919724  69.9868698  57.0747414  34.9340439  69.6390991  56.7811394
  34.3122063  70.8079681  57.5146637  43.0060425  51.1965942  13.1200724
  42.1636238  50.7974548  13.3374367  42.9363251  52.0945816  13.4440851
  81.8925858  59.4460106  78.8384705  82.4243622  60.2410507  78.8016815
  82.4125900  58.8339348  79.3592300  11.7336702  23.3723030  86.8581924
  11.9288979  24.2795391  87.0928040  11.3785515  23.4254723  85.9709015
  78.2514420  48.5652542  29.3822784  77.6190186  48.5037842  30.0981655
  78.0522995  49.3997345  28.9577541   7.4543152  64.5665131  31.7604542
   6.8323045  65.0243225  32.3259125   7.8731885  65.2616577  31.2529621
  82.0932922  13.6777210  54.3101730  81.4252930  13.3567324  54.9159622
  82.0348816  13.0907698  53.5563087  64.0960007  70.4025879   3.5048378
  64.7320480  71.0459976   3.1922710  63.5427628  70.2237778   2.7444508
  20.1619701  47.0894279  44.1044235  21.1148090  47.1533432  44.0392838
  19.8362579  47.8141556  43.5706558  24.0558872  44.2987900  24.6384411
  24.2924118  44.6524353  23.7809906  24.4944324  43.4487991  24.6762199
  24.6678677  42.5790558  12.6458673  23.7208023  42.5654488  12.7841101
  24.8856964  43.5081482  12.5712147  79.0666046   1.4352658  69.0408783
  78.2534485   0.9536723  68.8889313  79.0278015   1.6855916  69.9639511
   1.1825566  65.5257874   7.3275380   0.2684726  65.5601883   7.0455832
   1.5859383  66.2958374   6.9268703  41.7838097  28.3691425  15.7066517
  42.5116158  28.5134182  16.3113956  41.0345764  28.1849766  16.2731857
  28.9185829  61.7837334  78.9579315  28.9965057  62.3597450  78.1974258
  29.2024651  60.9268608  78.6394806  61.6358261  40.7457886  15.2722158
  61.6403732  39.8104477  15.4755564  62.0888596  40.8103294  14.4314852
  47.5192986   5.0052962   6.8905087  48.0209618   4.3338919   7.3528738
  48.1699982   5.4715266   6.3656754  85.2435455  45.0668716  61.2339058
  84.9771957  45.5994301  60.4844589  85.2329865  45.6732521  61.9744606
  41.1745834  49.3045769  52.4312515  40.8839645  49.9676514  51.8050690
  40.3694954  48.8663559  52.7069855  50.5868454  48.9332733  54.3207817
  50.1922379  48.1085663  54.0372772  50.1891403  49.1083755  55.1736565
  85.0255508  30.8347263  72.7266693  85.3111420  31.1282310  73.5918427
  84.8495712  31.6432590  72.2454834  77.3973312  16.6314316  -0.0140971
  77.0064621  16.9402199   0.8032781  78.1611633  16.1249294   0.2620312
  63.6379089  14.6725521  36.4595337  64.5424652  14.3667116  36.5264282
  63.2816505  14.5612812  37.3409691  70.4705734  40.4112930   1.3644160
  70.2662048  39.4774742   1.4138812  69.7373352  40.8406258   1.8051753
  12.0105143  54.0704422  81.6766663  11.5375195  54.3186417  82.4709625
  12.8733025  54.4728699  81.7760696  43.4013405  39.5744324  46.3812408
  42.5481491  39.2102318  46.1453285  43.2783279  40.5225334  46.3342476
  84.8460999  57.9366951   8.0964899  84.1741104  58.3637161   7.5651512
  85.1948700  57.2466011   7.5322614  22.8986607  35.3370323  88.3685684
  22.3828812  35.2525520  89.1704865  22.7319946  36.2309608  88.0696564
  63.3950462   6.0386372   6.7916379  62.6854897   5.5932574   6.3286028
  63.3019295   6.9586802   6.5444894  50.3264923  64.6738434  16.2984772
  49.9182587  63.9444389  15.8320532  50.1711349  65.4337769  15.7375870
  23.5275230  57.6407509  25.0695839  23.7303371  56.9621162  25.7134457
  23.9792194  57.3588715  24.2741299  32.3102570  27.8185768   4.3906784
  31.9620323  28.7068958   4.4672294  32.6906853  27.7852612   3.5129564
  53.9501839  70.4937515  18.3186569  54.0886230  70.5477600  17.3730621
  54.7493935  70.0882950  18.6549587   6.5980124  30.2245312  19.1223259
   6.7577605  30.7128983  19.9299202   7.3756447  29.6766205  19.0159550
  25.5931549  36.0091095  29.4670944  25.1938171  36.5799332  30.1235428
  26.5203018  35.9839630  29.7037315  71.8214951  22.9467392  37.4735336
  71.1722565  23.5945034  37.7476082  72.2705688  22.7007313  38.2822647
  21.1064548  21.5074005   1.6320655  20.3124371  22.0222721   1.7758511
  21.5437145  21.9410896   0.8992974  12.5522175  15.0244017   7.9446473
  12.1503344  15.7498121   7.4666300  12.4067850  14.2602301   7.3868628
  63.1294441  56.4836617  25.4932899  63.0319557  57.3455353  25.0884380
  63.7578888  56.6216469  26.2019863  68.2599640  57.6358871   9.1566849
  67.6913605  58.2662888   8.7145109  68.1101456  56.8119316   8.6931238
  14.4771795  33.3580093  69.9676285  13.7528238  33.2558670  70.5849686
  14.0604963  33.3494453  69.1059265   9.5906916  11.4587097   3.4320028
  10.4173079  11.5076656   2.9518566   8.9301147  11.3049297   2.7565606
  84.1706543  17.1160755  85.0126953  84.1190796  16.5321903  85.7694321
  83.3114548  17.5363369  84.9754410  54.5925674  48.7072449  45.7142830
  55.2534447  49.3087540  46.0573044  54.7251816  48.7209320  44.7664146
  73.9531021  48.8472786  65.2696457  73.4450073  48.7063217  64.4707718
  74.3083572  47.9844131  65.4829254  46.1514969  49.7332878  23.4388695
  46.1949005  48.8047333  23.2105408  46.2515640  49.7508202  24.3906631
  14.6428041  12.6519814  55.3568001  14.0885000  11.9418650  55.6803970
  15.2781191  12.2190590  54.7865524  80.5243988  48.9539948  48.7736511
  81.3637695  49.2941437  48.4638481  80.7285385  48.0805359  49.1077538
  22.6697998  47.1727066  72.5419083  22.1543503  47.6760368  73.1721420
  22.9515934  46.3975563  73.0276642  60.9385109  19.0737267   0.4210712
  60.3989487  19.8609180   0.3473514  60.7758827  18.7541313   1.3085638
  71.0092468  26.1672306  89.1309662  71.6936798  26.7123528  88.7428665
  70.1990433  26.4742451  88.7240906  44.5891685  16.1309490  44.2095032
  45.3799248  15.8182945  43.7699814  44.6430588  15.7614985  45.0908852
  26.0539055  37.9100952  44.6764488  25.3594189  38.5591812  44.5641823
  25.8508015  37.4835701  45.5089493  22.3903713  14.0793352  88.5033417
  23.3329678  14.0590420  88.3380203  21.9935036  13.9214869  87.6467133
   0.6927382  39.3819733  44.1509438   0.3127333  40.2576408  44.2218933
  -0.0416281  38.7886772  44.3088722  65.9763412  66.3919067  12.8091621
  66.5748367  65.6574097  12.6729670  66.4080887  66.9333038  13.4700108
  83.2270050  54.5187492  46.9594460  84.0745697  54.9395065  47.1037750
  82.6188354  55.2454033  46.8240395   8.3149681  71.7851791  57.9025612
   7.6154122  71.1960144  58.1849289   9.0778618  71.5129013  58.4125481
  82.4119263  22.1548729  35.1317062  81.8671722  22.8898869  34.8502197
  82.2032318  21.4524403  34.5158577  71.3236313  37.2250977  56.5104218
  71.4918747  37.5584793  57.3917770  71.1494598  38.0077019  55.9875183
   5.6803269  50.4402275  54.0501251   5.5362802  50.3124046  53.1124992
   6.3499761  51.1224594  54.0987549  68.1440811  46.7610283  72.0050278
  67.2141724  46.7779808  71.7787323  68.4105835  45.8539925  71.8550491
   2.5637412  31.8847351  81.9836197   3.1394229  32.5295105  81.5724182
   3.0822392  31.5253296  82.7034912  72.6632843  52.5981827  38.0884781
  72.2952957  53.4721489  38.2188568  73.4591675  52.7471275  37.5779724
  61.1029167  17.0530987  67.8613586  61.3836861  17.7629642  67.2838745
  61.4271584  16.2579155  67.4385376  41.0673294  65.5942383   9.5955658
  40.2878189  66.0663681   9.3028355  41.4150505  66.1264496  10.3111620
  60.9912338  43.3582535  36.5636330  60.4742126  44.0666237  36.9472122
  60.3748932  42.8894119  36.0010147   5.6724439  27.2058430  63.9845657
   6.1308913  27.0754032  63.1544800   4.7692046  27.3969860  63.7318687
  84.1990128  66.9322357  69.5456314  83.9253616  67.8305817  69.3603897
  84.3894043  66.5576859  68.6855698  66.4064407  70.5452881  81.2954636
  67.2804642  70.1656494  81.2049179  66.5378647  71.3220901  81.8390961
   5.3591022   4.9512992  62.8200378   5.0860744   5.4929929  63.5604820
   6.3049974   4.8543611  62.9301147  78.7245102  39.4802589  47.4955788
  78.1066971  39.7988319  46.8375168  78.2382889  38.8102303  47.9760818
  85.7943420   5.0926180  87.7808838  85.6457062   5.4074478  86.8892441
  86.6233597   5.4939189  88.0415039  38.7559204  58.1326180  14.5875959
  38.9248009  57.2453613  14.2705975  38.0220642  58.4412117  14.0561304
  47.1291847  67.6053009  25.4604836  47.2437248  67.0483551  24.6904678
  46.8581276  67.0031509  26.1534309  79.9332581  15.4524488  30.7064724
  80.5176392  14.7587271  30.4007339  79.4126053  15.6833887  29.9371719
  71.4561844  58.3900490  47.2775574  71.6527863  58.5632935  48.1981888
  72.2209549  58.7168884  46.8037109  44.8522720  59.8184319  38.9366493
  44.8733177  59.0871964  38.3193321  44.5980072  59.4213867  39.7696800
  67.4760056  63.4892426  59.9069786  67.6847458  62.6406593  60.2975731
  66.6259689  63.7221718  60.2803612  35.8302994  52.9230652  57.6120949
  36.5415878  53.3373184  57.1235313  35.3771515  53.6504898  58.0384102
  84.8384705  59.6213875  79.6354446  85.1419983  59.7190018  80.5379791
  85.4185486  60.1865578  79.1252213  29.6969376  46.2445374  28.5536633
  29.5972328  45.3169403  28.3395252  28.8159428  46.6074829  28.4622841
  25.0247383  46.4999657  55.5348167  25.0896854  45.5450363  55.5456886
  25.4929810  46.7808456  56.3209991  62.0169716   9.1027775  13.2654819
  62.2713661   9.1221466  14.1880531  61.0725403   8.9476824  13.2806606
  22.5893345  45.5234680  84.4013290  23.2090168  44.9861565  84.8948059
  22.9858665  46.3945580  84.3872681   7.6983938  40.9606361  51.9163361
   8.3082829  40.2853317  51.6193008   7.2078056  41.2025757  51.1308289
  37.3022346  53.6129951   8.9231157  38.1659470  54.0243416   8.9551344
  37.3483505  52.9085083   9.5694914   9.9569931   3.3471780  86.1252289
  10.7052221   3.0735071  86.6557846   9.8841372   2.6740196  85.4486389
  73.9271240  35.3048210  16.5984535  73.4584503  35.6623001  17.3526325
  74.4065094  36.0511131  16.2386341   3.4395196  39.9903717  83.7738190
   3.8175502  39.7207069  82.9367981   2.9380684  40.7790794  83.5671463
   4.7454767  20.7861099   4.2663679   4.2746363  21.1749592   5.0034828
   4.6773248  21.4374123   3.5682321  22.7497082  44.6290932  33.1260109
  22.9848194  45.2640038  33.8026505  23.0602741  43.7901344  33.4664917
  44.1768951   4.4802747  42.9229507  44.9536247   3.9665570  42.7015457
  43.6719475   3.9122787  43.5048752  83.5020905  33.8545837  83.3962555
  83.8522491  33.7278748  84.2780609  82.8636322  33.1496124  83.2884903
  75.9302139  24.5460606  54.1634369  76.5241241  23.8044186  54.2794876
  75.6985397  24.5243683  53.2349510  51.5144234  57.0031166  41.2764282
  52.3277359  57.4141846  41.5693169  51.6750870  56.7809525  40.3593330
  62.6725006  22.5812798  20.6352768  63.5798264  22.6542206  20.9313679
  62.4935837  21.6409645  20.6408920  83.1094742  31.0922413  67.8612061
  82.7783813  30.9480114  66.9747467  83.8103561  31.7351837  67.7534409
  33.0198135   4.5541821  86.9967270  32.9213753   4.7696757  86.0693130
  32.4607391   5.1852822  87.4499130  50.4542503  54.6746330  26.3700066
  49.7063522  55.2631187  26.4728317  50.1570435  54.0172615  25.7409096
  75.2703400  66.9990921  34.4904976  74.9375000  67.8872070  34.6197433
  76.0226822  66.9372559  35.0790405  26.3702183  50.7403641  41.3375549
  25.4851551  50.6406364  40.9869080  26.3845634  51.6246605  41.7036705
  38.3136482  25.4429188  41.0825768  37.8168678  24.7229252  40.6939278
  37.6610909  26.1242561  41.2443695  55.9169044   8.4101448  10.8886843
  55.6926498   9.2206068  10.4314194  56.1825294   8.6942329  11.7633095
  57.7390594  18.2523518  85.0351028  57.0958443  18.4411316  85.7183838
  57.5140686  18.8505268  84.3225021   5.2147784  11.0773754  77.3837433
   6.1430564  11.2589779  77.5305481   5.0869527  11.2257614  76.4467926
  19.2513943  20.8786278  24.9349499  19.0809441  20.4967060  24.0739536
  19.2536392  21.8234711  24.7816639  48.0759010  32.6210442  88.5015335
  47.1223984  32.6829643  88.5584030  48.2527122  31.6813297  88.4578857
  52.9367599  35.0142288  73.8373337  52.3569260  35.4239159  74.4793472
  52.3529892  34.4948654  73.2844238  22.5545712  58.1833572  52.0416641
  21.7900028  57.8786240  52.5303421  23.0907974  58.6351852  52.6932373
  60.1284676  33.6211815  32.2543983  59.5635338  33.1565247  31.6370049
  60.9681129  33.1646996  32.2009888   5.9901881  54.0013428  44.3214111
   6.1763773  54.0332718  45.2597847   5.8666463  54.9167595  44.0704575
  50.2402115  25.8135662  65.1121368  50.2644997  26.2591496  65.9589539
  49.8537216  26.4543839  64.5153046  70.0112762  57.1698914  38.9081383
  69.7845459  57.7568092  38.1867867  69.2684250  57.2304878  39.5087509
  82.1789856  29.3563690  43.6899567  81.8135147  29.4423275  42.8094597
  81.5430679  28.8185730  44.1617813  72.3089981  40.7542152  23.7542744
  71.7486038  40.7203522  22.9790001  71.8501511  40.2227745  24.4048653
  39.8566170  30.1044559  63.2631416  39.1252174  30.7075806  63.3955269
  40.5133896  30.6228447  62.7982178  36.0620918  12.1540394  -0.0468095
  35.2454033  12.4068632  -0.4773138  35.8440781  12.1295137   0.8849095
  64.5647888  23.2847137  34.0889244  65.1477585  23.2915859  34.8480911
  64.7555542  24.1044712  33.6330261  70.7946701  57.2678032  79.2672729
  70.5255203  58.1733894  79.4212265  70.8452988  57.1916656  78.3144531
  33.9482765  36.4260139  64.0641022  33.4347000  36.9206276  64.7027130
  33.3703194  35.7129364  63.7925949  83.1886292  17.2330799   9.1214228
  83.7164993  16.7868633   9.7835999  83.5875320  18.0994816   9.0410461
  14.9206896  58.1412392  42.1125145  14.3701801  58.8405228  42.4648933
  15.2148008  58.4725075  41.2639923  70.5101547  23.0843124  84.4910812
  70.3051834  22.2941551  84.9909515  70.9585876  22.7632141  83.7087555
  56.0632591  19.8413963  42.0090256  56.7037659  19.6552277  42.6955566
  55.4296494  20.4261303  42.4247818  46.3871803  16.1404209  54.6656075
  46.8948669  16.2578259  55.4685402  45.4884911  16.0085354  54.9675941
  49.5023727  49.6571770  37.8656502  49.7041092  49.0169220  37.1832962
  48.8495445  49.2237206  38.4153404   0.6630302  44.4280281  54.0420036
   0.9470554  43.7821503  53.3951645  -0.2317654  44.6485901  53.7833023
  79.7251740  63.8703957  28.5249996  79.4498825  63.0547829  28.9435921
  79.6900940  63.6820145  27.5871754  53.5841942  58.2483025  85.5716248
  54.1400719  58.6001282  86.2669296  53.4421005  58.9881439  84.9811401
  27.9844818  41.1003799  77.4950333  27.6061668  41.5605736  76.7458115
  28.4566441  41.7780342  77.9788513  61.6729050  56.1932182  68.3710327
  62.1787872  56.6778145  67.7187424  62.0198975  56.4902000  69.2122421
  62.3351555  31.0342026  64.0617905  62.5637207  31.6135769  64.7886429
  63.1647072  30.6296539  63.8079796  49.8031120  52.7505379  11.6511984
  48.8894424  52.9927063  11.5002108  49.9033546  52.7753525  12.6028118
  18.1180687  38.8864365  44.7998581  18.5046673  38.8134270  43.9272499
  18.5802784  39.6196709  45.2060165  76.6648712  29.9050789  32.4525871
  77.1221619  30.4072208  31.7780704  76.4654922  29.0677032  32.0339241
  78.0036850  69.7844315  46.9494400  78.0606155  70.3956985  46.2150383
  78.3979492  68.9768143  46.6199722  58.9712830  42.1035118  35.4543228
  58.2526398  42.4100113  36.0073509  58.6077995  42.1010056  34.5688248
  85.0396652  53.8435059  59.8042107  84.9591293  54.5572662  59.1715240
  84.2112198  53.3688202  59.7365074   7.7454867  66.3167877  18.2589931
   8.2671909  66.9723969  17.7961426   7.4607248  65.7107849  17.5749607
   8.5683165   8.0441666   3.0947623   9.5116949   8.1100922   3.2428267
   8.4574566   8.2417173   2.1647542  72.6080780  51.9012794  58.0429497
  72.6831436  51.6959648  57.1110458  72.9987717  51.1482811  58.4863281
  43.3066750  20.5959148  45.1220474  42.4512596  20.5269432  44.6980896
  43.3861084  21.5217018  45.3519249  64.5729752  68.7854156  85.6392593
  65.4135971  69.2328873  85.7359467  64.5405579  68.1748352  86.3757172
  75.8403625   4.4930849   9.5019598  76.6538010   4.7312036   9.9467611
  75.2876205   4.1279249  10.1928720  22.1366558  63.2960663  86.9749756
  22.1555805  64.1488037  86.5405655  22.4042053  62.6757965  86.2968063
  24.5450668  34.4333572  71.1556778  23.8111019  33.8332253  71.0238876
  24.5997009  34.5400124  72.1053467  47.6505089  23.3104877  18.2573376
  46.8648872  22.7923203  18.0825882  48.1354065  23.2960396  17.4321728
  26.5823479  27.5597858   7.9199929  25.7033501  27.3473682   7.6061916
  27.1003227  27.6729813   7.1230478  73.8005447  69.6883621  85.8673630
  74.2500610  68.8440018  85.8323975  73.4282150  69.7978897  84.9923706
  63.2170982  28.9631577  21.1466637  63.4751511  29.3905411  20.3299713
  63.7279320  29.4091778  21.8221970   7.7812390   8.6393061   0.3224412
   6.8450179   8.4841862   0.1973008   8.0284052   9.2115345  -0.4039847
  42.0629501  13.9725590  11.8442039  42.7828789  13.9872255  11.2135525
  42.4756584  13.7304535  12.6732330  14.5124712  32.3914299  10.1862869
  14.2935352  32.2450180   9.2660360  15.4281473  32.6699982  10.1732473
  35.1005287  38.2621803   7.2247210  34.3916206  38.8601608   6.9878683
  34.7065697  37.3913345   7.1731825  47.4736633  10.8620386  77.5708160
  48.2121849  11.4349899  77.7770767  47.8580742   9.9873552  77.5126038
   4.8181930  22.4872932  72.0931244   4.0686531  22.0562496  72.5037613
   4.5102835  22.7201557  71.2172241  56.2627182  38.8789635  70.2621460
  55.3271713  39.0807686  70.2460480  56.3349113  38.1242180  70.8464203
  44.3910828  39.3180542  64.5552597  43.7112083  39.7890968  65.0370560
  44.4386978  38.4629059  64.9826736  22.6595402  26.1716328  66.7274323
  23.0815792  26.8903370  67.1981506  22.7911568  26.3809967  65.8027267
  68.5489807  16.2317352  31.0557709  68.1810150  15.6830339  30.3631210
  69.4668427  15.9656143  31.1099739   7.9698267  52.3430786  56.2275963
   8.2859955  51.8564262  55.4663849   8.7518063  52.4897919  56.7597733
  32.3675995  46.9446411  17.4694653  32.9544411  47.5720100  17.0472546
  32.9358940  46.4381638  18.0497684  87.1357422   5.3616657  40.4175568
  86.4394302   5.8841114  40.8155861  86.6895065   4.8306804  39.7578888
  52.3173218  39.8395233  77.6428223  52.2313614  39.0712624  78.2072830
  51.4422379  40.2272415  77.6311111  67.9973450  23.8902454  84.9887543
  67.5884018  23.1125259  84.6090775  68.8914032  23.8817711  84.6469727
  19.2556190  20.5862923  79.9240417  19.4615974  20.5460396  78.9901276
  19.3622799  19.6862297  80.2318420  44.3051147  68.2119141  61.4431915
  44.1296654  68.5729828  62.3121452  43.8913841  67.3488159  61.4544601
  73.1298447  43.3036652  12.8117971  73.6157150  43.7180862  13.5248260
  73.5081100  43.6768150  12.0156193  72.3214798  23.8214340  34.7348175
  73.1563568  24.2078209  34.9992256  72.0129471  23.3607883  35.5151024
  52.0627365   7.9508257  42.4362335  51.8246727   8.0081348  43.3615837
  51.6563988   8.7197151  42.0363197  35.4516602  56.9406738  15.4403801
  34.5644608  56.5852966  15.4934063  35.3815536  57.8172340  15.8184824
   0.5945361  39.1985741  33.2571831   0.0233177  39.1877213  34.0251846
   1.3315220  39.7524681  33.5146446  48.1094322  16.0178471  46.3705635
  48.5751648  15.8385801  47.1873779  47.4484024  15.3277617  46.3153419
   8.6117907  30.3913994  37.4350700   8.2163782  29.6637745  37.9151154
   8.6786623  31.0955944  38.0799522  65.3165207   3.8836501  39.3341026
  65.5573502   4.5057626  38.6476555  65.3624954   3.0275726  38.9083672
  25.1045399  68.5807266  82.7797318  25.2275925  68.6135712  81.8310471
  25.9831371  68.7024384  83.1395721  73.4355164  18.4991016  16.2591438
  72.7701874  18.4681320  15.5716763  73.3059158  19.3491116  16.6797600
  73.4668884  18.8616428   5.4020982  73.8946304  18.0215588   5.2362027
  73.6340103  19.3756466   4.6120977  54.6836319  11.3393250  14.0246468
  54.1816978  11.7772360  13.3372402  54.7107925  11.9726963  14.7418184
  20.2493000  19.4624405  21.4735336  20.2678490  19.2643223  20.5372448
  21.0975304  19.8698120  21.6490002  24.9327717   4.4977155  86.9237366
  25.5354404   4.3401074  86.1969757  24.6316376   5.3970661  86.7944412
  43.0189972  32.9636917  66.8701935  42.4347839  33.3359642  66.2096329
  42.5167542  32.2467155  67.2573929  35.8579483   1.3765600  16.9196129
  36.0978355   2.0145471  16.2475567  35.1097336   0.9083624  16.5492153
  16.6320877  58.8411865  10.8206339  17.1454620  58.1237907  11.1921453
  15.8987761  58.9496040  11.4262180  59.1614304  62.1448250  56.1055183
  59.3874855  63.0401726  56.3574791  59.8135414  61.6000938  56.5462570
  58.5351944  28.1738815  20.3373337  58.8733864  29.0689411  20.3103638
  58.2937469  28.0365715  21.2533455  46.9302254  67.2432938  61.1610718
  47.2160187  67.5946808  60.3178139  45.9853745  67.3957901  61.1762657
  32.2065239  47.1474037  86.1679382  32.1305389  46.3649979  85.6217728
  33.0403633  47.0400009  86.6255493   8.6882401  51.2615814  14.8699160
   9.1812773  50.6526184  14.3200874   8.1381741  50.6997833  15.4158506
  43.4933853  36.4423256  56.8961105  44.1168785  36.3688431  56.1735497
  42.6653099  36.6735687  56.4753418  11.1728506  44.7402382  11.1749840
  10.9183445  45.5251160  11.6601906  12.0947189  44.6097260  11.3971500
  44.3603172  57.5080490  30.5268421  43.7385559  56.8386688  30.8124485
  44.2157288  57.5823708  29.5835495   4.2839370  32.3986893  13.7375898
   5.1624413  32.1135674  13.4862576   3.8538918  31.6025524  14.0497704
  70.4355011   4.0395207  75.1469498  70.7331924   3.7604277  74.2810898
  71.0038681   4.7768588  75.3694763   0.8496167  36.3619843  40.6365509
   0.2609083  37.1020851  40.7845573   0.4379884  35.8663597  39.9286308
   1.6028721   4.0977449  61.0205574   2.0343990   3.7998641  61.8213577
   2.3197348   4.2515397  60.4051819  30.7066479  48.2303772  88.5619583
  31.0285892  48.1943054  87.6612473  31.1254330  47.4870682  88.9959488
  74.8564148  55.8854103  37.5665474  75.5582962  56.5227509  37.4346809
  74.1867981  56.1310501  36.9281845  54.2594719   4.0523224  84.6455078
  54.7672729   3.2662735  84.8467407  54.5510025   4.6972904  85.2899170
  74.7632980  40.6834412  80.8212509  74.2500916  40.4491730  81.5945358
  75.3213654  41.4041328  81.1134796  40.4929428   6.9959764  69.5820847
  40.5607262   7.5433979  68.7997971  40.2594986   6.1296225  69.2486725
  44.7427368  32.1802254  20.7281818  44.0021439  31.5776234  20.6601963
  44.3428116  33.0328903  20.8992081  31.5391407  58.4298859  22.2422447
  31.4613743  58.6139145  21.3061256  30.9526558  57.6879730  22.3900185
  -0.0997767   4.6166701  55.5467720   0.6502702   5.2093825  55.4982605
   0.2682902   3.7895420  55.8576050   7.1436229  53.5720215  10.6439266
   7.6472363  52.7963715  10.3970032   6.8452644  53.3901825  11.5350771
  65.8913269  24.3284435  50.8098717  66.4560165  24.0184879  51.5178909
  65.2616272  23.6196957  50.6780167  50.9207077  19.4759598  48.0571365
  50.5773811  19.1745358  47.2160072  51.0438156  20.4181767  47.9417992
  71.2984543   4.9653206  45.2133369  71.1124878   5.7938781  44.7715912
  72.2538910   4.9258118  45.2559967  84.0483627  47.1812477  87.4359818
  83.9294052  46.3884697  87.9590302  83.1620712  47.4308357  87.1743927
  84.5210800  38.4652138  19.9411888  83.9576950  38.7363396  20.6659832
  83.9129257  38.1919022  19.2543983  15.1028242  56.6914673  65.6324844
  15.7363796  57.3043861  65.2594299  15.3323774  55.8457489  65.2473831
  53.7813683  22.1752090  11.6003790  53.0219421  22.7347565  11.7629032
  54.5302200  22.6992626  11.8846636  65.3647461  28.6653843  29.8425083
  66.1700363  28.2860775  30.1944618  64.9922638  29.1577377  30.5739975
  60.7998085   4.6914825  46.2343674  60.1978951   3.9474287  46.2521973
  61.6699257   4.2947226  46.1930313  75.3212509  49.0298119  69.2201080
  75.1671066  48.2485771  68.6889420  74.5229340  49.5484695  69.1205521
  72.2174149  65.6227570  11.8805609  71.6941376  66.4216385  11.9453526
  71.8211441  65.1347580  11.1587172  27.2114353  63.0112000  82.2185287
  26.5779171  62.5478287  82.7664108  27.8774281  62.3545532  82.0148087
  26.6355000  33.6196518   9.2249937  26.5969143  32.7304916   8.8726568
  26.5404396  33.5068474  10.1707592  62.1163254  17.2430153  21.3111801
  61.3507500  17.1295528  20.7479305  62.2909393  16.3677883  21.6571846
  55.2121544  34.4136772  45.6070900  56.1171684  34.3608589  45.2998619
  55.0582428  33.5759964  46.0439415  21.8534393  44.7105827  77.1333237
  21.5252972  43.8216858  77.2690353  21.1497040  45.1562958  76.6618042
  50.2968063  22.2193871  49.8870201  50.5771942  23.1099148  49.6758881
  49.6035881  22.0302753  49.2546310  37.1141968  28.8411827  67.9965515
  37.6826668  28.4841156  68.6788864  36.2785912  28.9951935  68.4373169
  74.6967010  46.1667557  84.7001724  75.5262222  46.5942078  84.4870911
  74.7893982  45.9075012  85.6169128  54.7276268   9.6740923  79.5491562
  54.9306831  10.5625305  79.8418579  53.7906494   9.5746565  79.7177277
  83.7895508  29.1054802  69.5215378  83.7843628  29.5511112  70.3686600
  83.6340790  29.8019447  68.8835678  18.7169895  57.4403801  25.1042461
  18.3709755  58.0626297  24.4644718  18.2781601  56.6152344  24.8973808
  53.4545975   0.2620632   1.9315834  52.6480064   0.7674506   2.0327296
  53.1584396  -0.6402479   1.8117583  15.5163355  30.6740685  12.2253790
  14.9520531  31.1730328  11.6347418  15.0028725  30.5842342  13.0281973
  75.8343506  12.3634167  61.4721756  75.1960144  12.6997681  60.8431854
  76.1733093  11.5656605  61.0660706  61.1528778  11.6922941  47.7749672
  60.9171715  12.2954435  48.4798698  60.3207092  11.3060217  47.5019836
  58.8621826  59.3926506  17.2768097  59.3888741  59.4404678  16.4789753
  58.8869629  60.2804718  17.6337337  65.8448257  24.7148876  30.3243179
  65.4658127  25.3651943  29.7329769  66.5123901  24.2737255  29.7989960
  37.3163719  45.3718796  18.8146248  37.0724373  45.8083076  17.9983768
  37.9234810  44.6825218  18.5454845  80.3587646  16.8217735  77.9355545
  80.8719254  16.4789753  77.2038498  80.0178223  16.0426331  78.3747940
  81.2006454  18.4474983   5.7492361  80.2798080  18.3328648   5.5143991
  81.3654556  19.3819275   5.6231022  21.6871471  32.1331406   0.2305485
  22.4924850  31.7992573   0.6257498  21.9787693  32.8362732  -0.3497926
  52.2238464  37.2925987  24.9090099  52.0039864  37.3666267  25.8376713
  53.0251465  37.8069115  24.8108463  85.3133774  53.1602631  13.3525887
  84.6268692  52.4990845  13.2643261  86.0712585  52.6762962  13.6806450
  35.8519783  29.8926868  78.6031113  36.6484261  30.3265228  78.9092026
  35.2072754  30.5967941  78.5336685  19.5495262  44.0165672  79.4789352
  19.3556118  43.1808472  79.9034424  19.0510998  43.9916458  78.6621246
   1.8273600  56.0766068  57.2687950   2.1907942  55.3799133  57.8153915
   1.9945194  56.8797836  57.7619476  24.4957790  -0.0889630   3.0021100
  24.5436935   0.6393250   3.6214101  23.8412113   0.1854385   2.3598676
  34.3768692  61.1901932  79.5472107  34.0442924  61.9266624  80.0602722
  35.3191872  61.1873169  79.7153168  31.7100430  71.2717896  38.3391228
  31.2393284  71.9907150  38.7607918  31.3632736  71.2489624  37.4472351
   7.6216202  20.3115139  69.7237549   8.3589849  19.8973293  70.1720581
   7.7312279  21.2466736  69.8960648  34.5449181  44.3376884  29.6143379
  34.3891220  43.4107399  29.4334354  33.6730537  44.7327194  29.6083698
  84.7573776  61.0472870  68.4761963  85.2988510  61.7644119  68.8059998
  83.9166565  61.1582069  68.9201813  16.3141537  37.7637787  54.3946762
  16.4944363  37.1260185  55.0853195  15.3672256  37.7140350  54.2639694
  13.2746391  38.1704865  22.2644501  12.7726088  38.1702576  21.4494667
  14.1812963  38.0386238  21.9872932  48.8348160  52.9981918  60.4324951
  47.9591064  52.7505035  60.1358261  49.0238724  52.3947372  61.1510544
  78.0939484  12.9095364  31.2009926  77.4249725  13.5908661  31.1339283
  78.6011810  12.9915905  30.3933983  62.1325493  40.2129173  45.1961823
  61.1954727  40.0719566  45.0610962  62.2733536  41.1297417  44.9598694
  76.4151840  60.4171753  20.5202770  76.6507645  61.2003784  21.0175972
  75.5384445  60.1910172  20.8307686  26.1520844   1.3484614  78.9400024
  26.6734028   1.1443074  78.1636124  26.4102631   0.6875234  79.5824509
  69.0664291   6.5928378  54.1897240  68.9664001   7.1337404  54.9730797
  68.2308807   6.1330829  54.1078148   9.2880163  48.8228340  34.8568916
   8.8949766  49.6077995  34.4753456  10.1796474  49.0872917  35.0833549
  24.8300648  51.4967079  87.9620361  24.9132614  51.5293312  88.9150543
  23.9177170  51.2505302  87.8095474  83.3583450  18.6179981  77.1306534
  83.8189697  19.4329739  76.9309845  83.9063263  17.9330807  76.7474747
  71.8394241  31.4802265  41.3285866  71.6669083  30.6973858  40.8054886
  71.2220688  31.4218884  42.0577660  65.1080475   7.9158096  29.8991318
  65.2945862   7.0449424  29.5483799  64.6672363   8.3730726  29.1830101
  46.0482750  23.7050610  24.2476826  46.9597626  23.5589714  23.9945393
  46.0435982  23.5971603  25.1987705  11.3447428  19.5932579  73.2900925
  11.6151600  19.6415634  74.2070312  12.1465378  19.3747292  72.8151169
  42.8443832  54.8070030  81.0254822  43.0559082  53.9681244  80.6158829
  42.2590561  55.2370949  80.4020691  24.7973766  52.1768799  78.3968811
  25.6050262  51.7859573  78.0635529  24.7659206  51.9140091  79.3167419
  20.4479408  14.8164606  26.9548893  21.1096954  14.6252499  27.6195335
  20.9360676  14.8443623  26.1319771  78.4724121  31.4193764  76.3257675
  78.1063919  31.1608353  75.4799500  78.3210373  32.3633118  76.3737946
  14.1617699  51.0365295  36.1744804  14.3097582  50.5604439  36.9915962
  14.8372974  50.7089462  35.5806961  36.1182251  44.7522888  62.6431885
  36.5261879  44.9960327  61.8122940  35.4934959  44.0652962  62.4108429
  75.9657898  49.1555443   8.5341063  75.7088470  49.9940948   8.1506453
  76.2728577  49.3781281   9.4129677  75.5001984  40.8578529   0.0249844
  75.9937973  40.0427589   0.1155676  74.5891342  40.5776596  -0.0626832
  60.9642944  34.4846497   8.4144955  60.2687492  34.1339874   7.8581781
  61.1704140  33.7712975   9.0185432   5.3319497   8.6043224  24.4767265
   5.5375004   9.4960203  24.7575378   4.4844847   8.4156475  24.8797607
  71.2230606  53.3689346   7.5083613  70.7811966  54.2179260   7.4940610
  70.5165176  52.7330666   7.6210465  43.2894592  22.0639439  66.1385040
  43.1955948  21.2744427  65.6054764  43.6434898  22.7186146  65.5365829
  49.4583626  10.1657286  21.6288223  49.0669937   9.9420404  20.7844124
  49.0194855  10.9755535  21.8892117   7.5326371   3.2215564  81.6900024
   7.7760448   3.8862908  82.3342972   6.7673941   3.5870938  81.2461395
  36.2106209  35.6137428  62.5319443  35.6120644  35.8987122  63.2224197
  35.8532829  34.7766380  62.2356300  45.2155342  39.4539337  72.5469055
  45.0623169  40.2704086  72.0713806  44.4571686  38.9087753  72.3373413
  14.1644468  50.3310738  69.5979843  13.9472685  49.4097824  69.7404251
  13.3182220  50.7783890  69.5914383  69.7599411   0.1300308  32.4058189
  69.4281235   1.0266858  32.3595886  69.3034210  -0.3308861  31.7019939
  55.7411385  42.9177475   2.1401041  56.5788841  43.2942200   1.8705058
  55.7978821  41.9977264   1.8820758  41.6447258  11.0975418  59.2598267
  40.8590240  10.5649309  59.3832245  41.9912415  11.2215319  60.1434479
  31.7946949  51.3618622  73.5244446  31.3838425  51.6284256  72.7020264
  32.5590630  51.9322014  73.6062164  77.5979538  70.4279785  67.3423691
  76.7747726  70.0286331  67.0610733  77.5374908  71.3359222  67.0453568
  68.0135651  26.9828300  84.9576721  68.5951004  26.9266777  84.1994476
  68.5952072  26.8942623  85.7127075  44.6858788  66.3615646  65.8500061
  44.8667068  65.8286057  65.0757370  45.0692520  65.8682632  66.5751953
  13.7538939  64.7534485  76.9856033  13.8896399  65.4468384  77.6313782
  14.4411707  64.8946533  76.3344955  67.1605072   0.7834296  23.2808170
  67.0264435   1.5367823  23.8558960  68.0797348   0.5474430  23.4055958
   6.5409918  65.8165894   0.7684253   6.0492959  66.6264954   0.9045115
   6.0302472  65.3324661   0.1195815  76.8628387  44.2606735  41.7541962
  77.7056427  43.9816437  42.1120453  76.4772034  44.8014603  42.4434433
  83.2659683  65.7951965  45.9526558  83.1411972  65.3204575  45.1308975
  82.4189987  65.7357025  46.3946152   0.2441496  68.6599579  75.1593628
   1.1882839  68.5245819  75.0786438  -0.0295281  68.9613647  74.2930603
  64.5905838  33.1684189  13.8338976  64.2425461  32.2872543  13.6973562
  63.8304329  33.6884460  14.0946093  35.5172462  54.9127083  20.3867264
  36.1212997  55.6527824  20.4470844  35.3754692  54.7952576  19.4473991
  69.7077942  29.4050102  25.1658592  70.0291901  28.7409401  25.7757320
  69.0447464  28.9513950  24.6454372  19.7313633   2.8230362  82.4453812
  20.2008381   3.6556253  82.4965744  19.4166203   2.7806735  81.5424042
  73.3298264  38.0484772  27.5489540  73.7066727  38.8834991  27.2715492
  73.8610458  37.3869476  27.1057587  69.7013092  50.5002365  63.1953011
  69.6379166  50.3651505  64.1408005  70.4600906  49.9807930  62.9294777
  48.7517929  69.7429962  80.4507828  48.7901878  68.8300476  80.1656723
  48.8379059  70.2498856  79.6433945  47.2933998  59.7748947   6.5311155
  47.6892014  60.4244423   5.9500313  46.4490662  59.5748901   6.1269732
  64.9572754   9.9344645  21.1821079  65.7206421   9.4590445  21.5099564
  65.1895828  10.8577833  21.2808456  70.2152405  48.8368225  27.7007103
  69.7653656  48.5208015  26.9171448  71.1255341  48.9472771  27.4261189
  12.5431747  60.4640388  77.1766891  12.3694191  61.2081604  77.7531662
  13.1193037  60.8161049  76.4981918  12.7532549  63.9082451  16.1279240
  13.6872578  63.9625931  15.9256420  12.6822701  63.1722641  16.7358093
  56.9874458   8.3369665  47.2578392  56.3783302   7.8455195  47.8089218
  57.7006607   7.7230663  47.0826721  20.5142536  59.7221260  86.2711258
  20.2319756  60.6184502  86.0890274  21.1810379  59.5417137  85.6084976
   9.7083321  17.5394287  68.7777252  10.2439308  18.2754688  68.4817276
   9.7271576  17.5983810  69.7329254  73.0475693   3.7420809  10.9136314
  73.6620102   3.4033024  11.5647259  73.1781616   3.1832805  10.1475239
  31.5477123   3.8357055  46.8349953  31.0578918   4.5265079  47.2812042
  32.0575371   4.2959585  46.1683044  35.5587769   1.3451854  21.7199879
  35.1551628   1.9541178  21.1014977  34.9390182   0.6181239  21.7792778
  48.0659485  54.3537140  82.7886734  48.9524651  54.0468178  82.9787598
  47.4961967  53.6576958  83.1160507  54.3694420  19.3748970  74.4654312
  54.7241173  19.5070171  73.5862350  55.1050110  19.5569057  75.0502777
  68.7090149  58.2868843  13.2235594  67.9276199  58.5644531  12.7454252
  69.0551910  59.0934219  13.6055174  10.4116659  28.1936035  11.2715034
  10.5333490  28.3180256  12.2127495   9.4788837  28.0022793  11.1738110
  75.3221512  23.8046265  22.6220436  74.8866501  23.0322571  22.2614708
  74.6563492  24.4916058  22.5904865  78.9881439  60.9628067  38.8368225
  78.1543045  60.6672935  39.2023582  79.6059113  60.8961296  39.5649338
  57.9505234  38.8856392  31.6901855  58.3638039  38.5713272  32.4943275
  58.1181870  38.1950111  31.0489750  16.0787430  57.8498573   3.5829701
  15.5003805  58.0204201   2.8395743  16.6529427  58.6148071   3.6201425
  57.2618904  20.3664455  44.5293350  57.0494652  20.8777256  45.3101692
  58.0464783  20.7849960  44.1751099  50.3736115  19.5810490   3.3238997
  51.0442696  19.2177982   3.9022596  49.5724030  19.1157722   3.5643439
  58.9991112  50.7687263  76.2961426  58.2279282  51.1751671  76.6915131
  59.7356148  51.2876892  76.6193619  34.8780403  44.4265480  65.6622314
  35.6930389  44.8498077  65.3923111  34.9879036  43.5105705  65.4069824
  81.0036774  27.8035088  18.2910690  81.4991226  28.0856667  19.0599346
  81.4258118  26.9882889  18.0200443   9.3294382  34.3977280  80.5990601
   9.0200272  33.6485062  81.1081390   9.4709740  35.0865402  81.2484741
  61.5935249   0.0032555  28.0170155  61.9854050   0.0048015  28.8903179
  62.2989426   0.2908503  27.4374390  78.0371017  49.8357430  70.2163773
  78.7986450  50.4134827  70.1663513  77.3395081  50.3202286  69.7749405
  70.7714996  33.1434212  75.7403641  70.0422592  33.4968910  75.2309494
  71.2114410  32.5397797  75.1417770  62.6998215  33.5494499  86.1155777
  63.1581383  33.9735298  86.8410645  61.7718506  33.6896248  86.3038635
  85.6124954  65.7300186  83.4564056  85.4063721  65.5866470  84.3800812
  85.7013702  64.8496323  83.0913773  44.6851845  71.3212662  33.2866821
  44.0278969  71.8789597  33.7028275  45.2109146  70.9873962  34.0135727
   2.3400607  24.8667164  59.4746933   1.6516988  25.5239258  59.3723907
   2.0463579  24.3241730  60.2065506  40.2012329  32.7258415  15.8804359
  39.4486732  32.5375557  16.4411793  40.0332718  33.6050873  15.5414009
  84.5574570  36.3095551  40.9391327  84.7576675  36.5994797  40.0491409
  84.9093323  37.0001297  41.5008507  31.7112885  69.0031433  45.4239807
  30.7702084  69.1590118  45.5033989  31.9989109  69.6143723  44.7458229
  74.0714417  16.8170967  46.6443062  73.8019791  17.2978897  47.4269066
  74.8687286  16.3577595  46.9080772  75.2663345  46.4227562  28.2221966
  75.5464249  47.0312614  27.5384541  75.7243423  45.6071205  28.0192375
  65.5829620  39.6477737  60.8861809  65.1544647  40.1098061  61.6067009
  65.7663727  40.3295822  60.2398605  84.4128647  25.3075428  69.3593826
  83.5343323  25.0857697  69.0507965  84.6105728  26.1440830  68.9382553
  83.2196350  21.2178364  17.5764961  83.2178192  20.2624702  17.6357002
  83.6561203  21.5066433  18.3779335   0.2474379  64.0105591  31.7202854
   0.6228427  63.2148094  31.3433342   0.2117743  64.6279373  30.9896698
  47.6993752  25.8576298  28.5625687  48.3950500  26.5115299  28.4941330
  47.3866119  25.9341087  29.4639912  35.3755074  35.5440140  11.4149227
  35.5863724  36.0665245  12.1887140  35.9042931  34.7517586  11.5095205
  44.7308464  62.0820160  41.0823708  44.8065491  61.5154610  40.3145714
  44.5852318  61.4791489  41.8114662  69.4225388  14.5895958  85.6774368
  68.9950790  15.0354614  84.9461975  70.2971344  14.9766998  85.7157288
  20.8400650  39.3828354  85.5245132  21.4336948  38.6324883  85.4959412
  19.9713612  39.0064850  85.3832779  83.8237610  59.8755035  72.4389420
  83.7397308  58.9226379  72.4041367  82.9651108  60.2016716  72.1695786
   7.4403844   1.4603834  27.4958630   7.3260183   0.8450626  26.7716179
   7.7164998   2.2753010  27.0764580  65.5094986   1.5173099  46.3894958
  65.5100708   1.2035822  47.2938232  66.4355927   1.5669161  46.1526031
  70.9210587  29.0152073  44.7454643  70.6755829  28.2976055  45.3294334
  71.0853271  28.5925140  43.9025040   7.6966934  48.8045692  29.4592667
   8.4709854  48.7566109  30.0199852   8.0247030  49.1438065  28.6264648
  74.0721817  53.5614395   7.9815907  73.1155014  53.5806656   8.0066662
  74.3411331  53.9125671   8.8304768  47.9884872   4.0411921  84.1259842
  48.1325531   4.7849989  83.5409775  48.8447609   3.6183667  84.1911469
   1.0003794  35.4207268  86.5238800   1.9209670  35.6314316  86.3678284
   0.9428975  34.4763374  86.3787766  43.2510872  59.7728233  20.4549809
  43.6271820  59.9584198  19.5945530  43.6697006  60.4038162  21.0405121
  72.8599625  22.1511116  66.8179245  72.4965820  23.0248089  66.6735687
  73.7843399  22.3053646  67.0127716  60.3505211   5.8742118   7.3376083
  59.7630234   5.2000389   6.9961843  60.3785477   6.5385542   6.6490622
  63.6905327  54.4851112  84.3373337  64.6211853  54.4602776  84.5598145
  63.3334274  55.1887512  84.8791733  74.5676422  40.2757607  26.4238338
  75.4152374  40.5217018  26.0532532  74.2426605  41.0783501  26.8318443
  56.8190727  53.4721489  37.6502266  56.7497787  52.8509293  36.9253044
  57.6598129  53.2689705  38.0602341  15.0991745  54.0779419  64.7009125
  14.6700068  53.2462120  64.5002365  15.9255028  53.8275185  65.1140747
  22.3786850  63.3842087  67.3465195  22.9495659  63.6294937  66.6184006
  22.3610764  62.4274063  67.3252563   7.2209044   0.9518278   5.7855854
   7.0380473   0.9477122   6.7251482   7.1252046   1.8684467   5.5269680
  55.3259277  19.8382797  16.8268223  54.7010536  20.1696472  16.1818714
  56.1840553  20.0092983  16.4387474  57.7461739  67.8963089  62.5732117
  57.3734703  67.6437988  61.7284889  57.3822136  68.7646637  62.7456245
  37.2869072  21.0809288  15.6847630  37.7685890  21.5971355  16.3310928
  37.5117722  21.4795742  14.8440790  13.3660517   5.1306639  60.8420982
  13.3763762   5.5903754  60.0025787  14.2441425   4.7580943  60.9219666
  74.5483551  53.9004021  58.6520119  75.1926804  53.3977737  59.1504555
  73.8329239  53.2840805  58.4953728  25.6793766  54.2166977   6.8301735
  26.3039837  54.5274200   7.4855719  25.2395535  53.4774284   7.2500186
  41.1291199  25.9114647  61.6524048  40.3777008  26.4395733  61.9220352
  41.0405388  25.8364124  60.7022705  81.5574417  39.8151283   8.7207098
  81.8373795  39.5320854   9.5911980  82.1054993  39.3128242   8.1177597
  14.7194405  35.3871613  21.3617344  13.8417187  35.0642319  21.1578846
  14.5938845  35.9615517  22.1170750  70.1386108  65.4880371  25.2517529
  69.8000870  64.6105194  25.0740013  70.4987106  65.7800140  24.4143105
  64.3634491  69.7630997  22.6971111  65.2252960  70.1400604  22.5200424
  64.5133133  68.8177719  22.7087879  71.7824631  53.6173096   4.7412519
  71.6865997  53.1835403   5.5891218  72.1129913  54.4899178   4.9546556
  26.7624702  58.3721313  13.9816818  27.5055237  58.9648514  13.8686018
  26.6182346  58.0001564  13.1115885  74.4291000  56.4451599  29.0690002
  74.8110123  55.6281357  28.7483082  74.3858261  56.3328094  30.0185986
   6.1891317  46.8219757  60.3481827   6.8560991  46.4774628  59.7542953
   5.5560102  47.2523079  59.7735519  45.5270920  62.1687889  75.1764221
  45.6411552  62.3731995  74.2482910  46.4123192  61.9877090  75.4923477
  48.9019470  48.7410965   0.7518957  49.0246964  48.7806587   1.7003679
  47.9522552  48.7210655   0.6339214  74.2809525  69.5855179  34.7328720
  73.6448593  70.1875305  34.3466034  75.1295395  69.9982071  34.5721817
  48.4251709  46.1635666  62.1230202  49.3162537  46.2956810  62.4466629
  48.2188721  46.9714203  61.6528664  72.3128281   5.0346556  34.8627548
  72.6625824   4.4815931  35.5613403  71.3739471   5.0828462  35.0427933
  58.9292831  59.4810066   4.7752571  58.0902901  59.7848701   5.1216559
  58.6955490  58.7991257   4.1454635  15.6378975  35.2238350  58.0956345
  15.3110752  35.3197212  58.9901848  14.8962774  35.4685898  57.5421638
  68.1681442  70.3009186  47.6164742  68.4373093  70.7339172  48.4265900
  68.2159805  70.9870987  46.9508209  13.3557549  31.3897705  20.1657772
  13.5595217  30.4564991  20.2267437  14.0359058  31.8178902  20.6857166
  50.1533966  40.3020859   3.2496512  50.1346397  41.0397263   2.6399238
  50.7042007  40.6027527   3.9724557  48.6913452  26.3657646  77.9933090
  48.7149086  25.6147041  78.5862579  49.3508301  26.9661503  78.3409424
  71.7171402  20.5043697  17.7282753  71.4275436  19.8094158  18.3193817
  71.7133560  21.2948971  18.2679825  68.8549042  24.1470890  23.8436584
  68.2771149  24.6723118  24.3973122  69.2958603  23.5542164  24.4521732
  52.5299644  17.4921665  32.4703407  53.0674324  16.7032928  32.3993530
  51.6588898  17.1686382  32.7000961  59.7491417  49.3386307   9.4954958
  59.5077972  48.5420189   9.9681396  59.2816849  50.0385399   9.9513979
  42.4570885   8.8425350  77.0954514  41.6025162   8.9049664  77.5221176
  42.7012329   7.9210453  77.1819611  51.9190598  30.9055729  38.0040054
  51.5296288  30.5198421  38.7887268  51.7215805  31.8396378  38.0729904
  31.9335041  52.4705353  22.7247982  31.9094028  52.4996109  23.6812534
  32.8443794  52.2650452  22.5142994  63.8639450  11.7250156  88.1881485
  64.0905380  10.8157158  87.9930573  64.4913712  11.9891205  88.8610687
  28.4227734  56.9029198  69.8858871  28.1232624  57.7962990  70.0543976
  27.7608166  56.3468666  70.2967987  10.1940680  34.3457489   8.5582628
   9.9404869  33.4764137   8.2481251  10.0909672  34.3004303   9.5088148
  37.0194321  67.1471405  72.4086533  36.9789085  66.2067566  72.2346573
  36.9047890  67.2205658  73.3561249   7.4687195  14.1716585  80.8869247
   7.8754482  13.6563845  80.1902924   7.5398912  15.0779419  80.5872345
  79.7967377  62.5914040  84.5334320  78.9739380  62.4220772  84.0745621
  79.5447464  63.1223412  85.2889709   7.7167606  69.5598373  23.6010094
   6.9005895  69.4038315  23.1258678   8.1391773  68.7017593  23.6396523
  20.3072491  20.4336472  87.9137497  20.9056072  21.1455803  88.1403580
  20.6617928  20.0722065  87.1014099  80.9647751  59.0669174  27.9426193
  80.9881287  59.2083740  26.9962177  81.7988052  58.6415482  28.1418629
  74.0466156  42.3298492  87.2310257  73.3512421  42.7014465  87.7738037
  74.7055740  42.0308075  87.8575897  43.2197304  55.0784798  40.0537643
  42.4072304  54.6080093  40.2401390  43.0309181  55.9861679  40.2918434
  47.0299110  69.7923737  41.4156036  47.0397873  70.1427536  40.5248947
  46.9599609  70.5650864  41.9761848  59.6261406  25.4940968  30.1885624
  59.4273109  26.4207268  30.3229332  59.7639542  25.4131107  29.2448044
  83.0939331  52.7342720  44.8395271  82.8737335  53.3724327  45.5181236
  83.3611298  53.2651215  44.0891647  70.8465881  55.5318527  27.0982990
  70.7373276  56.3587685  26.6287193  70.7040329  54.8581924  26.4334011
  59.9439468   2.4457486  42.8630371  59.4724464   3.2461488  43.0938568
  60.8465614   2.7316077  42.7223282  77.4163666  34.9453316   6.0574203
  77.1982498  35.2728157   6.9300094  78.2607498  35.3479805   5.8546348
  77.5842972  61.8255348  82.9273911  76.7462997  62.1282578  83.2771912
  77.5854187  62.1227036  82.0174942   8.2165346  42.0756416  42.2681656
   7.8490872  41.5163727  42.9525833   9.1636562  41.9644814  42.3508453
  63.6081772  36.7180405  16.8267269  63.5948677  35.8066368  16.5345001
  63.8754005  36.6713562  17.7446823  74.0094910  22.6486263  19.9375801
  73.7638321  21.7236786  19.9564247  74.6225586  22.7187557  19.2058277
  60.3920250  40.3668633  20.3665638  60.8852234  39.5467491  20.3865566
  60.5852699  40.7416763  19.5072613  37.8188515  69.1685028  85.7594604
  37.6588173  68.2382812  85.9185638  36.9790268  69.5062103  85.4482117
  64.3266296  31.0354557  19.0217056  64.8173752  31.3417549  19.7843227
  64.9532089  31.0811558  18.2995262  21.0061760  65.0062561  10.0956898
  20.2096920  65.1619110   9.5881290  21.5966949  64.5647202   9.4853077
  80.3103333   0.9304781  48.2232895  80.1001282   0.1209151  47.7578278
  79.5458527   1.0947376  48.7753906  13.9709797  59.2443886  66.6616821
  14.6287384  59.5986519  67.2600861  13.8416576  58.3423729  66.9547195
   3.4051523  48.6826057  29.6627445   3.0351737  49.0121193  30.4817505
   3.7018275  49.4669838  29.2012615  53.8111877  41.6165504  65.3736725
  53.6575737  41.9446259  66.2596741  54.4142990  40.8826141  65.4912491
  43.0355949  46.3696175  20.2819347  43.2308311  46.3332253  21.2183056
  42.1220818  46.6521873  20.2385502  39.8339577   2.5544159  24.4386196
  39.4219284   1.6978079  24.3259773  39.3135109   3.1441238  23.8930798
  78.5891800   4.6449676  64.5991592  79.2495651   5.2251058  64.2202530
  79.0876694   3.8964460  64.9269638  51.1199226  46.8610191  62.5661812
  52.0596695  46.9808998  62.7030640  51.0048180  46.9328461  61.6186447
   9.0897245  20.5783119  14.1772995   8.6205063  20.9806194  13.4463987
   9.8724070  21.1185474  14.2858667  47.5083809  11.0892429  42.5465736
  46.8825684  11.6077738  42.0408936  46.9991722  10.3445282  42.8664818
  63.9388504  15.5893288  26.7669144  64.4129639  16.1198063  27.4072571
  63.0689278  15.9863539  26.7240810  31.7565556  34.1598167   3.8361742
  31.2433434  34.9627991   3.7463851  31.6596947  33.7180634   2.9925487
  58.8550987   5.2932076  13.1318693  59.7180290   4.9287391  12.9350376
  58.6174278   5.7842731  12.3453588  62.2201729  41.8172798  77.3068390
  61.3713379  41.7021179  76.8796997  62.8465881  41.4100075  76.7085419
  11.8601465  17.8762569  61.0761681  12.4945307  18.4800568  60.6898880
  11.1107826  17.9032650  60.4812279  74.0976639  26.8612499  60.1007347
  73.1445999  26.9138565  60.1723289  74.3595123  27.7152500  59.7567139
  61.0873604  62.8658562   6.8542967  61.0145760  63.4265251   7.6266866
  61.3501091  63.4597740   6.1511202  82.9005280   6.4013734  58.6558762
  82.3030243   6.8489499  58.0567970  83.6656799   6.1930618  58.1197968
  24.1741486  44.2082710  70.6012955  23.4826202  43.8047295  70.0767288
  24.1924267  45.1206436  70.3123779  50.6792831  60.4634056  18.6348267
  51.1721649  59.9945793  19.3082523  51.2044487  60.3639221  17.8407612
  36.6142273   2.5479236  28.9310856  36.1649094   3.1274188  29.5463333
  36.1808777   1.7013345  29.0393696  80.9400635   8.7535229  19.3532524
  81.0133972   9.4573174  19.9978657  80.0651169   8.8606739  18.9801388
  44.8668861  68.5559387  54.1733742  44.5825577  68.9495621  53.3484840
  45.8013687  68.3894958  54.0497780  55.6175842  12.9010448  62.8652344
  55.0197983  13.3104124  62.2396889  56.4428825  13.3724136  62.7515297
  55.1212692  11.6102133   2.0529654  55.6480598  12.2387667   2.5465724
  54.2539062  11.6565580   2.4551611   6.7376528  33.9142456  55.2719193
   6.5973458  33.3358765  56.0216103   7.3614073  34.5682030  55.5873604
   2.4184339  11.5503244  76.6175537   1.6749240  11.1006021  76.2160873
   3.1752324  11.0086193  76.3938522  26.2353840  69.2715530  58.8548965
  26.9693260  68.6582718  58.8929329  25.5422382  68.7879868  58.4055138
  81.4057693  24.7095928  38.6221619  81.3726578  23.9390450  39.1890717
  82.0087585  24.4647827  37.9202309   7.7285576  39.4205284  89.0026245
   7.8449998  40.3582001  89.1557541   6.8107667  39.2548141  89.2180939
  18.5590191  39.2306023  55.1542778  19.1693993  38.5496407  55.4370537
  17.7742081  38.7525558  54.8863716  59.9432755  22.9372139  23.8088989
  60.7991943  22.7167034  24.1763401  60.0011215  22.6719360  22.8910141
  73.7455978  22.1308537  25.6630535  74.1049423  21.2532063  25.7928143
  73.3692703  22.1079082  24.7832317  16.9478035  70.4918289  83.5873566
  16.9665356  70.7424927  82.6637497  16.9737720  69.5350418  83.5764389
  37.4442673  45.5104218  65.0916367  37.0448799  45.7183723  64.2469559
  38.1472473  46.1527672  65.1888046  69.0855408  68.4523468  32.6807747
  69.8791199  68.0254059  33.0035591  69.4044495  69.1417389  32.0983124
  33.0162392  13.0434065   6.2904725  33.4288750  13.8566523   6.5813231
  32.3260918  13.3262415   5.6905265  84.5734329  41.6178894   1.2490182
  84.1175995  41.7006531   0.4114024  84.5575562  42.5007172   1.6185991
  53.0883484  30.2410259  53.5948181  52.4518127  30.9106693  53.8450890
  53.9055557  30.7229557  53.4677505  64.4899750  36.5340996  19.2127686
  64.6764374  35.6180840  19.4186306  64.9871521  37.0315094  19.8621044
  19.2272453  44.7906494  62.8192177  19.3905220  45.4358406  63.5071869
  20.0831451  44.6506004  62.4141808  27.9563789  67.6479111  16.1027622
  27.2220268  67.0603409  16.2808418  27.9062061  67.8155899  15.1616983
  76.3215332   8.2848892  88.9134521  76.4208679   9.1904001  88.6194916
  75.4168091   8.2309084  89.2213440   7.0578094  27.8581390  10.7347326
   6.2768340  28.2635803  11.1114664   7.2528720  27.1254883  11.3190308
  78.3875046  46.3323708  74.3277740  78.0256577  46.9724808  73.7149506
  79.0370407  46.8232727  74.8311157  35.3029366  29.2723370  69.9573746
  36.1447639  29.6967888  70.1228867  34.6974678  29.6957264  70.5659637
  12.6296835  35.8765984  43.3040543  13.1517487  35.2920380  43.8535728
  12.1395044  36.4150658  43.9253502  24.5715370  28.1100979  67.3335419
  25.2292461  28.7512932  67.6028366  25.0651188  27.4515285  66.8447800
  20.2215462  44.1413307  83.3755646  20.3622246  43.2471199  83.6867218
  20.9886417  44.6250038  83.6819229   2.8657565  11.2949123  32.7226334
   2.2399938  10.5784416  32.8290405   2.8334651  11.5044765  31.7892151
  58.2061615  25.9719563  49.2862091  57.4508972  25.9756145  48.6981659
  58.0074921  26.6466923  49.9354362  38.3649445   2.7026336  88.9307938
  38.7898178   1.9418851  88.5345917  37.5434151   2.3612227  89.2840118
  15.6184196  15.3095150  31.3162594  16.2836304  15.9591837  31.5435410
  14.8125372  15.6441383  31.7097206  17.4306774  21.1062317  27.0574341
  17.2939167  22.0502396  26.9775562  18.1075325  20.9067059  26.4106808
  73.9297104  42.1494789  84.3847046  73.9588089  43.0807457  84.1653366
  73.9073944  42.1293640  85.3414383  35.7558479   2.8139849  66.4735947
  35.2392273   2.5152926  67.2220078  35.1165237   3.2191525  65.8876495
  53.6346283  66.6157303  54.3690796  54.0547295  65.9215317  54.8768463
  53.3246994  66.1783752  53.5760498  37.9594154  22.7661037  75.2084045
  38.2424240  23.1152782  74.3632889  38.7409019  22.8097439  75.7594147
  46.5146484  57.9261169  11.3348856  45.9270096  57.7409706  12.0674372
  46.6622620  57.0738373  10.9249334  84.1931610  53.1418839  32.3040504
  84.2758560  52.6860390  31.4664345  83.4189911  52.7542610  32.7122765
  40.9525146  69.3112640  60.1526833  41.0655975  68.3905945  59.9164276
  40.4673805  69.6889496  59.4190407  82.6084442  14.1400328  68.4657669
  82.9620895  13.5282764  67.8200760  82.6149445  14.9877310  68.0212479
   5.5886860  37.8145142  78.4996719   5.6955347  36.8808823  78.6817398
   5.0168962  38.1310158  79.1990433  51.9605560  18.2691441  60.8964691
  51.7985916  17.5333672  60.3060188  51.7279778  19.0433159  60.3838310
  59.7663651  60.2511368  85.1903076  59.6833649  60.2276115  84.2369995
  60.5868950  59.7924156  85.3706741   0.9956231   0.1455420  17.4641647
   1.0541373   1.0518187  17.7666054   0.2368969  -0.2122859  17.9251690
  36.7940063  62.8914528  59.5192986  36.4466171  62.4055939  58.7713051
  37.7181320  63.0259666  59.3092346   5.9749050  48.6768036  17.9270096
   5.9201121  48.9650841  17.0158978   5.3256998  47.9768181  17.9962006
  54.8953705  31.7360096  46.6745453  55.6604042  31.2734318  46.3325233
  54.2547989  31.0456505  46.8457260  84.1468277   6.6256199  81.3656158
  84.0089722   5.7591014  80.9830246  84.6475067   6.4580250  82.1640244
  11.7289467   8.7445602  15.9716206  12.0729876   9.5785627  15.6517658
  11.8836193   8.1305552  15.2537718   1.4002742  28.6739597  69.5020752
   1.1468878  28.8132744  70.4145584   1.3576584  29.5443726  69.1061020
   2.2964957  58.2143593  16.7508392   2.8756592  58.9719810  16.8333626
   2.4350324  57.9032898  15.8562593  17.1234779  33.4707565   9.8431034
  16.6646633  34.2853050  10.0485964  17.7943974  33.3960114  10.5217123
  56.6471977  68.3871307  59.7930717  56.6402397  67.5221252  59.3832474
  56.2254066  68.9592896  59.1520081  84.1951065  10.4342489  87.7976379
  83.3057251  10.0990658  87.9110947  84.7068481   9.6703186  87.5316238
  80.3905334  40.2226295  27.7855396  80.0467453  39.9487610  28.6358566
  79.8219910  39.7917786  27.1472912  44.8523407   2.6550748  30.8495407
  44.0652962   2.1329911  30.6939030  45.5576591   2.0113137  30.9153519
  22.9216480  21.9751301  79.4111710  23.1419353  22.0586853  78.4834213
  22.4664745  22.7899456  79.6235962   1.9804770  13.6361027  51.1755714
   1.4407798  14.2496834  50.6770973   1.8127916  13.8588724  52.0912590
  17.5299702  42.5755501  78.1151276  17.3083916  41.8420792  78.6888504
  16.7950153  42.6325378  77.5045395  33.3742065  27.1023636  86.0012665
  33.6255913  27.6192989  86.7666473  33.2981529  27.7429333  85.2940750
  61.0136452   8.8972473   1.2966442  61.4940567   8.3973541   1.9566011
  61.4998970   9.7178774   1.2168931  38.6097183  51.6001167  86.0570908
  38.1158447  50.8296623  86.3376541  39.1743126  51.2796288  85.3537064
  34.8384857  42.9865265  17.7593880  35.0740852  42.8659515  18.6792717
  35.5751457  43.4694786  17.3847923  11.7337179  46.6486130  39.0621223
  11.5944223  47.3157082  39.7342911  12.6259069  46.8037186  38.7520027
  45.6514664   2.6549678  55.3336716  46.3303871   2.6615586  56.0083961
  45.8252602   1.8618279  54.8267632  78.0453720  62.0061531  35.4546967
  77.8806763  62.5561752  34.6888084  78.9095001  62.2782974  35.7636490
  79.9816284  45.2167549  36.9598579  79.5956421  45.4519234  37.8036270
  79.7771835  45.9568939  36.3883400  43.2892380  47.6664429  73.2644272
  42.9397011  48.4454269  72.8317108  42.5146637  47.1576309  73.5039597
  31.4673309  67.6624756  64.2982559  31.0970039  68.4064560  64.7732162
  32.0693130  67.2559891  64.9216537  29.6115913  58.4312630  26.2839603
  30.2058201  57.8856812  25.7687283  28.7366657  58.1311913  26.0376034
  26.6887569  62.7121696  77.2144241  26.2952709  61.8561249  77.0453491
  27.1245365  62.9417763  76.3936844  48.6876450  28.4868469  53.4831810
  47.9190292  28.2755775  52.9532547  48.5960579  29.4197941  53.6767044
  20.4336243  43.4609871   4.1583338  20.8437271  43.8023300   3.3636429
  20.5390759  42.5118217   4.0935493  76.1273270  65.2546997  80.8314285
  76.0343094  66.1974945  80.6946259  76.6421432  65.1788940  81.6348267
  45.4129715  37.2112770   7.1639457  46.2142258  37.3191414   6.6515155
  44.7562065  37.7234955   6.6922207  61.3598862  40.6921425  64.1754990
  61.0031853  40.2383842  63.4118919  61.9454880  40.0532417  64.5818405
  56.0503197  62.2372971  73.4580383  55.6438522  61.9246864  72.6497726
  56.2143936  61.4430084  73.9663773  42.3747520  35.8765526  10.9333496
  42.5441322  36.4624481  11.6710968  43.2424583  35.6766815  10.5821104
   5.7691975  56.4463921  10.0593967   6.5329189  56.8959999  10.4210796
   5.5020857  56.9877701   9.3165684  10.8060503  38.3149986  54.9716072
  10.8930550  37.4016113  55.2443466  10.1788826  38.6907425  55.5894356
  48.3222504  44.3283043  85.3460770  48.0589027  43.5670128  85.8631058
  48.0402603  45.0804939  85.8665848  42.4923286  68.8978653  29.3274307
  42.3209152  68.3589478  30.0997143  43.2874985  69.3837738  29.5461407
  80.4796829  36.2590218   6.0729127  80.9436874  37.0961685   6.0622654
  80.5868530  35.9371452   6.9679780  16.9664764  45.3495255  69.5127792
  17.8695869  45.2134857  69.7993317  16.4384327  44.8635101  70.1461716
  49.6233215  35.2609062  31.4499912  49.3306122  35.3810196  30.5465946
  48.9646072  34.6868477  31.8408699  38.2100906  46.0815201   1.2647831
  37.8691254  45.5443687   1.9799372  39.1512222  45.9069099   1.2617636
   8.4868031  66.5490875  11.9656563   9.0176983  66.1557922  11.2730522
   8.3844938  67.4627991  11.6993952  39.5639458  34.8508606  19.0764332
  39.8788223  35.4436378  18.3940105  40.3595428  34.5324554  19.5029011
  60.1522522   7.8065996  64.9123535  60.5788155   7.6251721  65.7498245
  59.3112946   8.1963329  65.1513748  84.4076843  11.7922554  77.6429825
  84.6846085  10.9380026  77.3116302  83.4855347  11.8579359  77.3948593
  44.6312294  52.2919807  86.9014359  44.7169266  53.1999092  86.6106491
  45.2903595  52.1974907  87.5890808  78.9380417  45.4573936  87.4006577
  78.2886887  44.9326630  86.9324341  78.5266571  45.6519623  88.2427673
  47.3753967  42.3394508  23.8998184  47.2425919  43.2364807  24.2063065
  47.2885933  41.8020172  24.6871319  45.7655411  48.6809349  16.1568661
  46.4054680  49.1039772  16.7293663  45.8196716  47.7522049  16.3821774
  25.3027306  49.8680801  85.1805573  25.7903194  49.2456360  84.6410599
  25.5172310  49.6240463  86.0809250  26.6410618  55.1314468  32.0576324
  25.6853180  55.1541710  32.1052551  26.8296700  54.8535461  31.1612911
   1.2112433  20.7568035  55.5146561   1.0540012  21.5921555  55.9547653
   1.7387224  20.2544651  56.1356659  68.7593231  41.3843536  48.9819374
  68.2636337  41.9686432  48.4082336  68.9314957  41.9070435  49.7651215
  22.2940254  58.0026588  41.0751724  22.3342781  57.5937958  41.9397202
  22.7101669  57.3688850  40.4908905  68.8701096  26.5566216  25.8618488
  69.8203430  26.5032616  25.7596741  68.7159271  26.3445663  26.7824421
  43.2704124  27.7290726  86.7070389  42.9113922  28.6044312  86.5618362
  44.2149658  27.8359261  86.5946503  23.3573017   4.7283311  79.4419632
  24.2486401   4.6727352  79.7864304  23.1711445   3.8478062  79.1159973
  64.2634583  58.8637543  31.8703671  63.7789078  59.6734123  31.7094421
  65.0051346  58.9044609  31.2666340  32.1422691  68.2952881  56.4592476
  32.0735626  68.5541840  55.5402870  32.8010178  68.8852158  56.8256721
  33.7681885   2.6134443   5.7932963  33.8610306   2.3719387   4.8717289
  34.6663322   2.6547637   6.1217241  16.0947266   0.7327823   5.2059464
  15.2243252   0.6421979   5.5937967  16.6427631   0.1253577   5.7028599
  81.1715012  27.9154778  48.0781517  81.7319946  28.6899834  48.1252365
  81.4927902  27.3445263  48.7760162  30.1083107  44.4061546  32.2875977
  29.3098774  44.3880768  32.8152428  30.0538425  43.6203423  31.7437553
  34.8701057  30.4488049  73.5343704  34.5485649  30.3454552  74.4300003
  34.1995926  30.0360622  72.9900436   0.3145224   6.2056351   7.4422784
  -0.2621353   6.9512634   7.6088200   0.7514151   6.0490618   8.2794409
  30.7041512  54.9115181  35.1180191  30.5099964  54.0301323  35.4369202
  31.4994373  54.8074226  34.5956078  85.3654404  68.9998703  22.7203960
  86.0868378  68.5326691  23.1417503  84.8956146  69.4166183  23.4427681
  24.5828686   1.7544390  10.2405634  23.9040184   2.3694277   9.9627438
  24.3446198   1.5243628  11.1386356  49.2533646  48.0607185  42.9687614
  49.1210022  48.9697075  43.2379341  49.5648499  48.1212845  42.0656891
  39.5081444  25.3489151  66.2191315  39.2484627  24.7616329  65.5092773
  38.8599739  25.1950874  66.9064789   6.0199504  21.5829430   7.4913545
   5.5610495  21.6944160   8.3239498   5.3335996  21.3389511   6.8703699
  37.7444229   5.6740127  13.9141073  37.9151421   5.1258264  13.1482239
  36.7901764   5.7362928  13.9561634   0.7636892  58.8561668  27.5744801
   1.6128775  58.8985672  27.1348057   0.2022675  58.3766060  26.9653320
  84.8504333  30.2819901   8.6884909  84.3527527  29.4644203   8.6996441
  85.4988403  30.1582470   7.9953179  42.4749451  24.2213078   1.7913438
  41.8641739  23.5473938   1.4929645  42.1801186  24.4369717   2.6761031
  25.0046501  41.6460609  24.8896599  24.1459446  41.2967949  25.1281357
  25.6205502  40.9554977  25.1346569  29.6518841   3.7156081  78.4194107
  29.4514084   3.8673801  77.4958267  29.1189289   4.3573823  78.8887863
  10.3820753  47.6326637  74.3221512  11.1103668  47.9826965  74.8352814
  10.3698568  48.1670952  73.5281296  82.5574570   3.6712017  55.8763924
  81.9515076   4.3980923  55.7325516  83.2925949   3.8527548  55.2908669
  11.8251076   5.0513015  84.4621582  11.9440088   4.3586640  85.1120453
  12.7038841   5.2095737  84.1172943  56.1676788  17.8937893  35.9476395
  55.3973351  18.2306099  35.4900856  55.8747253  17.0687485  36.3345757
  72.7660828  65.7273407  34.8636131  72.9198914  64.8934860  34.4194679
  73.5798035  66.2167206  34.7428131  59.2675972  61.6670303  14.4710159
  58.4655838  61.1977615  14.2412462  59.6407394  61.9298248  13.6296272
  46.6849709  44.9612770  52.6299706  45.9608879  45.3181152  53.1443634
  46.4812851  45.2065353  51.7274208  43.0045433  43.0161552  51.8126602
  43.9025574  42.7425995  51.6256676  42.7010231  43.4152184  50.9972725
  37.9190369  13.1854591  69.3360214  37.4931297  12.4444599  69.7670135
  38.6758652  13.3811455  69.8884277  30.5210724  19.5497799   0.3145041
  30.9626274  18.7222996   0.5056499  31.0594387  19.9574089  -0.3639003
  74.5417633  61.1151428   2.1724920  74.3678131  60.2667961   1.7647163
  73.7759552  61.2776680   2.7232728  84.4563980   6.3484368  52.1216240
  84.1301880   5.7048268  52.7505798  83.7232666   6.9502015  51.9926567
  18.5504150   3.5876143  79.4759674  17.8442898   3.7413514  80.1036453
  18.3655720   2.7205069  79.1151505  79.5664139  55.5436172  64.5659485
  79.5597458  56.0969543  65.3469772  79.5151901  54.6499786  64.9050903
  72.5383606  29.2559261  79.0782471  73.0015793  28.5885143  78.5720596
  71.9484634  29.6685028  78.4473495  43.8967361  13.3978691  82.0226212
  43.8673515  13.9654484  82.7928314  44.4840469  12.6846790  82.2729263
  47.1037827  41.2723503  21.4312611  46.8755112  40.3494720  21.5427094
  47.0367012  41.6436005  22.3109798  73.4341812  20.5359249  62.4818726
  73.9856949  21.1125717  61.9531555  72.6818314  21.0772133  62.7210617
  41.0532570  46.3338966  70.3448181  40.2451591  46.0825195  69.8975830
  40.9528008  47.2709694  70.5122528  79.1884460  34.8412285  54.0466347
  80.0057755  34.3773766  54.2284164  78.5044403  34.1881027  54.1942863
  79.9616165  40.2381516  72.1106720  79.6424942  39.3542023  71.9289474
  79.1945877  40.7067642  72.4397812   9.0601082  65.4797287  27.2638569
   9.1979170  66.4251556  27.2054195   9.2578344  65.1541367  26.3857193
  34.0002174   3.6377523  81.0959854  33.5940666   3.2756219  80.3085022
  33.2691612   3.9960051  81.5994186  29.8741589   2.7531304  25.6955338
  29.3500309   2.6952965  26.4943943  29.5699806   2.0232277  25.1561375
  62.5486603  67.4645920   3.8916664  63.1284447  68.2188110   3.9976745
  62.4616470  67.3606949   2.9441090  85.1804352  69.7934952   1.2327906
  85.8567734  69.4288330   1.8035927  85.6644516  70.1672058   0.4963812
  37.0182953   9.0907974  79.2311554  37.6253357   9.7289600  79.6059723
  37.1977882   9.1128788  78.2911911  21.1167259  58.3969498  26.0289822
  20.4802742  58.0923309  25.3821678  21.9681911  58.2113838  25.6329975
  14.8677073  58.9649811  15.8006821  15.5616112  58.3116989  15.8898668
  15.0998039  59.6482925  16.4295254  39.9683800  64.1335602  47.8008118
  40.8343697  63.7835922  48.0101242  39.3621712  63.4335556  48.0431671
  46.3507347  30.8980122  81.2712708  46.5962029  31.2368450  80.4103546
  45.8876610  30.0814457  81.0841522  70.0180817   8.9312897  -0.1310796
  69.5890350   8.7530508   0.7058097  70.9192200   9.1524086   0.1040530
  67.0844421   8.8784485  35.9735832  67.0257797   9.8338470  35.9758110
  67.2116470   8.6441536  36.8929062  47.5466080   2.8482344  57.2827263
  47.5152397   2.1955321  57.9821739  47.9083672   3.6297894  57.7005005
  56.1874504  41.5350609  34.5557671  56.3794708  40.5975952  34.5785294
  55.5653381  41.6695442  35.2706985  41.2474976   3.9808731  32.8976784
  41.6770401   4.4519172  33.6117134  40.3162689   4.0107217  33.1171074
   6.1861191  70.8469009  70.2698441   5.6322222  71.6270218  70.2409058
   5.6130705  70.1355438  69.9838028  79.8505936  43.1352463  27.1273212
  80.2098465  42.2532234  27.2232609  79.9659119  43.3412361  26.1996880
  66.0775223  41.9180794  44.0671921  65.4638977  42.2618217  44.7164536
  65.9097214  40.9757881  44.0543823  59.8100586  54.3402901  26.7229004
  60.3448257  53.6400414  26.3488560  59.6991920  54.9655876  26.0067005
  59.7135658  66.9444580  60.6856003  60.6334648  66.7571182  60.4987221
  59.7170258  67.2978363  61.5751762  27.0844841  62.5460052  38.7703629
  26.4497337  61.9476395  38.3763046  26.6300030  63.3876648  38.8061981
  28.4400826  62.5824509  26.4203682  28.2377243  62.5187721  27.3537655
  28.4563923  61.6749535  26.1163750  65.5907593  15.9023495  85.3712234
  65.3460312  16.1218376  84.4722443  64.8228455  15.4543095  85.7259064
  43.1280861  60.2462311  64.8055115  42.8410339  60.7887268  65.5400391
  44.0610046  60.1023521  64.9642410  73.6805725  27.2058620  24.3027325
  73.5402756  26.8924980  23.4092274  73.5823898  26.4255753  24.8483925
  42.2846603  27.1336823  44.6797180  41.3646355  27.2026901  44.4247208
  42.3177986  27.5073490  45.5603485  41.6055107  49.3945007   3.0793927
  40.9691849  49.6948853   3.7283099  42.0771484  50.1866417   2.8219018
  10.7922039  10.9335337  82.4182129  10.3404427  10.9363232  81.5743332
  10.0890484  10.8892641  83.0661697  21.3748646  51.1760368  77.2547913
  22.1147728  50.9202728  76.7040176  21.6157913  52.0378914  77.5944748
  16.2346401  64.8600998  22.7262802  15.4381218  65.3846283  22.8079262
  15.9527540  63.9653473  22.9164982  12.0415068  54.8426094  40.5308495
  11.6957378  54.9693794  39.6473312  12.8349876  54.3222084  40.4051361
  50.9740562  62.6704903  52.5787277  50.8522110  63.2956161  51.8641624
  50.1431122  62.1978912  52.6278114  23.9603996  69.5617065  21.9818363
  23.3892708  70.3237228  22.0786610  24.4000511  69.4827957  22.8284245
   9.3219728  28.6834011  74.6178360   9.4906349  28.9123325  75.5318222
  10.1684885  28.7903328  74.1840057   6.0169091  58.0009842  59.8584480
   6.4501929  58.8322105  60.0522499   6.7174563  57.3500938  59.9009666
  16.9033661  18.4625244  27.9859352  16.8672409  19.3127098  27.5476284
  16.0980186  18.4246426  28.5018921  73.0898361  13.4867640  11.7697639
  72.7758255  12.6929655  12.2027912  72.3178329  13.8396292  11.3273535
  15.4558477  47.8027229  86.6286469  14.9439240  48.5541801  86.9277802
  14.8448315  47.0668221  86.6652298  74.6449432   2.0584683  51.7863121
  74.8489380   1.1879581  51.4445076  73.9245224   2.3684747  51.2375717
  74.1175308  43.0647888  27.1891785  73.8922195  43.2269974  26.2731247
  74.9406128  43.5354843  27.3203545  66.5713806   0.6723025  70.1520615
  65.7619705   0.4594711  69.6875229  67.1997375   0.8734706  69.4585724
  16.0547333   1.7978095  70.5793304  15.8685484   2.1514542  71.4491043
  15.1971903   1.5525944  70.2318802  78.2138672  14.2515755  54.4060020
  77.7892914  13.3938942  54.4248123  77.9473648  14.6324501  53.5692558
  17.6493549  39.4928322  68.0999832  17.2221241  39.8001099  67.3004303
  17.3641644  40.1080666  68.7755508  10.4527521   6.8517041  82.8794861
  11.1957645   6.4516020  83.3312378  10.2678137   7.6463885  83.3799896
  46.5513725  26.7092915  66.5954971  46.7695999  27.1608486  65.7802048
  45.6304779  26.4677010  66.4963989  49.2300034  41.2520752  40.5123405
  48.6114540  41.8851929  40.8767433  48.6778450  40.5607948  40.1469879
  57.5380440  39.4014816   9.6242828  57.8903465  38.5648384   9.9278278
  56.7746124  39.5558968  10.1806660  31.0230827  50.8146706  41.1907234
  30.4483452  51.4519691  40.7667465  31.9067535  51.1473732  41.0336723
   5.5395761  51.7182465  86.6645126   5.2867680  51.5476570  87.5718231
   5.2372894  50.9482841  86.1828308  59.9645538  63.3023911  41.4319878
  60.4602242  62.9060135  40.7154503  59.3940048  62.6006508  41.7454567
  32.9735565  58.1266975  33.1291885  32.8093948  57.6763115  33.9577026
  33.0003166  59.0547066  33.3622475  82.3409576  64.0233612  22.8292580
  82.8324585  64.8352356  22.9538498  82.9315414  63.3361130  23.1377010
  20.0038567  61.5021210  23.8823776  20.8729305  61.4443817  23.4853802
  20.1492290  61.9569969  24.7119484  74.5537872  22.5001087  48.5192909
  74.9758835  22.2200661  47.7071037  75.1119232  23.2045040  48.8487511
  65.6023483   3.5489597  50.2681770  65.8705750   4.1927633  50.9237709
  66.1842651   2.8028924  50.4130440  71.6344833  19.0621815  78.2818222
  71.6095886  19.7506504  78.9463654  72.2318497  19.3965492  77.6128082
  59.0185776  18.4215431  61.0096779  59.2249680  19.3522530  60.9235687
  58.1189041  18.3453159  60.6918564   3.1152782   4.9494796  44.5700111
   4.0442595   5.1164331  44.4107895   2.8662362   4.3182206  43.8949394
  62.6432838  70.2848740  24.6892052  63.2517815  70.0022202  24.0065136
  63.1078224  70.9836884  25.1497421  49.1376419  30.5037327  72.9814453
  49.0935135  31.2154293  72.3428726  50.0704803  30.3000832  73.0490265
  36.4067612  13.1539803   2.9696555  35.6555748  13.7233143   2.8028891
  36.1087456  12.5598497   3.6584432  56.1589203   4.0181761  19.1292610
  55.6929207   3.1843486  19.0675373  56.1456108   4.2314959  20.0622940
  48.7052307  54.5646210  78.8967667  48.7719345  53.9365005  78.1775665
  47.9006691  54.3203850  79.3542175  29.3199253  15.7083035   9.8416910
  29.5991669  15.3771324  10.6952610  29.5666771  15.0190954   9.2249756
  75.0590363  67.1883011  65.4855804  75.6928940  66.4736786  65.5469894
  74.5543289  66.9935837  64.6959076  71.6761856  52.2610817  33.7994194
  71.2583008  51.4084358  33.9202080  72.4735413  52.2139015  34.3269005
  79.8845825  55.0457268   7.3503003  79.7084808  54.1129951   7.2268782
  79.9811630  55.3907394   6.4626799  74.2021332  28.3530560  85.5403976
  73.4981995  28.9445381  85.8065872  74.0030441  27.5287247  85.9843292
  27.5985928  65.7090759  11.2866564  27.9926491  66.5536652  11.0684195
  27.2421436  65.3897324  10.4576836  28.8503456  55.3966484  58.3399353
  29.5189819  56.0815048  58.3283615  29.1655827  54.7435608  57.7151680
  60.7351074  28.9061623  31.5284195  60.1134720  28.5005054  30.9240646
  60.1863022  29.3180561  32.1957932   2.8913276   0.1488397  15.4756794
   2.0455132   0.0708484  15.9169817   3.1465220   1.0620470  15.6066761
  30.2414856  16.9362831  80.0785065  29.2888737  17.0029812  80.1441727
  30.3959312  16.5562630  79.2136612  58.7550087  44.7745132  28.6505032
  59.4439354  45.4015503  28.8705845  58.3822708  45.1052589  27.8332481
  80.0442810  44.6423454  79.0477371  80.7126389  45.1045990  78.5419159
  80.2213669  44.8848724  79.9566116  33.6606178  25.2097721  11.4735031
  33.0794640  24.8181763  12.1255350  34.3251152  24.5400238  11.3119230
  40.3459892   8.7807302  74.2639618  39.8164825   9.4768600  73.8750458
  40.7488823   9.1866703  75.0315018  66.4846420  33.2782135  59.9689789
  66.7103195  33.1207008  60.8857613  67.1468964  33.8975639  59.6622963
  17.4660683  58.9381256  50.7158051  16.5647163  58.7140770  50.4842911
  17.7852001  58.1768074  51.2003479  59.6298904  21.2416115  27.0573063
  60.3773842  21.5417938  26.5402241  59.6791687  21.7498207  27.8669510
  55.3083992  42.6119385  71.1467438  55.6508904  42.1337051  70.3916168
  55.9823036  43.2624512  71.3440247  54.2929001  65.6963882  58.7026253
  53.3685074  65.4753799  58.8161545  54.6648903  65.6295776  59.5820503
  81.2571793  19.0108891  72.9437332  80.9691238  18.7747631  72.0619736
  82.1838837  18.7721310  72.9649429  67.1205978  43.3047638  47.8507805
  67.3292542  43.8012047  47.0594254  66.1940460  43.0834274  47.7573280
  86.7450027  36.7668343   0.8919761  86.6097260  36.3552551   1.7455180
  85.9391861  37.2582550   0.7326238  62.3928566  47.3647728  25.3992653
  62.5053177  47.9900169  26.1152649  61.6781807  47.7266426  24.8753185
   3.0785737  56.0529442  28.1726456   3.2817152  56.7106552  28.8377609
   2.6390507  56.5429115  27.4776764  29.2389011  24.8906670  13.8325119
  28.7454758  25.4959545  14.3860397  29.3780041  25.3714523  13.0165901
  23.2221909  19.1152554   0.4780649  22.4399815  19.6513157   0.6085259
  23.0264530  18.5909500  -0.2984807  25.1327324  60.8710785  47.9233665
  24.3542576  61.0706329  48.4433556  25.7270126  60.4400368  48.5375862
  60.6648521   6.7811680   3.2946577  59.7340660   6.8243098   3.0755484
  60.7187958   7.1365509   4.1818018  27.8404961  54.9133224   2.1235774
  28.5059757  54.3940887   2.5749800  27.5576077  54.3596153   1.3958305
  53.0820732  57.0554390  18.2594662  53.8257866  56.6330299  18.6892204
  53.2412453  56.9270706  17.3243637  68.4736786   1.8529358  19.3159389
  68.7038574   1.0879086  19.8431816  68.0920258   2.4688497  19.9414177
  25.2518940  66.1702881  36.4435463  24.6539555  65.8085327  37.0976334
  26.0897484  65.7436371  36.6230011  12.3053999   3.2508039  73.0753326
  11.5594406   3.4682512  72.5163193  12.6714134   4.0987401  73.3268661
  48.3276482  54.4136810  33.4619064  49.0919266  54.2748375  34.0212212
  48.6186562  54.1501160  32.5889320  76.5264664   9.1439009  36.8206444
  76.3466873   9.7273560  36.0834274  77.4059372   8.8066587  36.6502571
  70.6352081  33.2253685  48.3986473  70.2107162  33.5870590  49.1766052
  71.2773666  32.6046219  48.7429428  17.1334190  48.8658257  66.2941971
  16.6900387  48.3805962  66.9900360  16.4307060  49.3341866  65.8435669
  43.2988892   4.6282010  17.9608631  43.9168510   5.3171358  18.2052479
  43.7996902   3.8167136  18.0440292   3.6548109  57.6097641   0.2989226
   4.6005526  57.4621620   0.3031928   3.2802489  56.7708015   0.5673999
  53.1774025  63.5734253  77.5983047  53.6435776  64.3914490  77.7707901
  53.5725632  63.2376099  76.7937546  44.7225151  64.3007355   6.1214156
  45.6791534  64.2716522   6.1064014  44.5122337  65.2321091   6.1888313
  79.2733917  69.4215240  74.9267960  79.6149750  69.1075439  75.7640305
  79.7501984  70.2353210  74.7636185  65.1280823  49.3547516  88.6753006
  64.3220825  48.8816643  88.8821487  64.8418884  50.0899658  88.1332779
  30.2507381  61.2140694  69.6376572  30.1615791  60.5502853  68.9537888
  31.1643143  61.4942398  69.5818481  44.8843765  33.4876671  47.6067467
  43.9659195  33.5647736  47.8650475  44.8957481  32.7695503  46.9739647
  37.5506401  45.1057739  59.8069954  38.0155716  45.0561104  58.9717674
  37.4150124  44.1927109  60.0602798  35.2531548  63.6591949  41.5461273
  35.7589760  64.2987900  42.0474167  34.7820587  63.1539841  42.2087440
  19.2127571   1.7469769  22.6896648  18.9122715   1.6754465  23.5956593
  18.9620838   2.6315408  22.4233150  68.2044907   7.1973433  33.8603973
  68.1173782   7.8726139  34.5331955  68.7560730   6.5270743  34.2637939
  42.6975403  35.0167923  72.4359665  42.4322052  34.9095192  71.5225525
  41.8772430  35.1577721  72.9086914  30.9362144  48.2687721  69.7366409
  30.0329857  47.9932289  69.5801620  31.2311497  47.7209167  70.4640350
  39.5045433  50.4200630  36.0879440  38.9444389  49.6686096  35.8934402
  40.0311546  50.5372925  35.2972641  48.7000694  11.6142445   2.8431215
  47.7949677  11.9195700   2.7815108  48.7727203  11.2573538   3.7283239
  80.3156128  36.3033142  60.5898895  80.7891541  36.0678253  59.7920609
  79.5752640  36.8268700  60.2832870  65.3403778  43.9810181  57.6670303
  65.0199966  43.8504524  56.7745361  64.6076355  44.3905678  58.1270180
  22.0826626  42.0212822  78.1335449  21.9510460  41.1895943  77.6783524
  21.7118568  41.8789597  79.0044556  16.0738468  31.4298153  60.5480881
  16.2030697  31.2876167  61.4858055  15.1255589  31.5116673  60.4466934
  47.2746925  28.5019188  72.9304276  47.5717964  28.1943779  72.0740509
  47.9814415  29.0684738  73.2398682  80.3008957  19.6596165  76.3265076
  80.0379105  19.2002048  75.5290070  81.0354080  19.1484394  76.6662369
  79.3504562  67.4197922  80.0551758  80.0858994  67.7857666  80.5465164
  78.5831985  67.6109619  80.5946274  55.9662590  31.5680485  67.4503021
  56.8624878  31.2430325  67.3644562  55.4276810  30.7777538  67.4902802
   9.2124987  43.2685699  56.3830338   8.9427891  42.3747368  56.5940971
   9.0718851  43.3446388  55.4392776  63.2078590   7.5966315  57.6655769
  63.4758148   6.7654390  57.2737198  63.4537354   7.5172095  58.5872421
  51.7023430   8.5378180   0.1969087  52.2028389   8.2989082   0.9770747
  51.1495705   7.7756710   0.0242736  32.8123436  30.8242226  66.0220490
  32.4434586  31.4483414  66.6470490  32.2973328  30.0271454  66.1472168
  32.3849716  48.1870117  66.6743927  32.6911697  47.7592735  65.8746948
  32.8770447  49.0072403  66.7107620  79.3351593  44.5110283  70.8100433
  79.5055695  44.0843544  71.6497726  80.1101456  44.3188553  70.2821198
  66.7130661   4.4437752  69.4329910  66.1243134   5.0692086  69.8554153
  66.1328506   3.8653655  68.9379883  23.7053928  57.0312691  39.0011139
  24.5768127  56.6364899  38.9693565  23.7647419  57.7897377  38.4202232
  30.2324142   1.2745286  39.8436127  29.6114216   1.1519741  40.5616493
  30.0564957   2.1591773  39.5231705  48.3798714  66.8070297  79.8678131
  49.0668221  66.4727020  79.2911377  48.4727173  66.2963257  80.6720428
  28.7433128  62.4099846  13.1444635  28.9164734  61.9267769  12.3365288
  27.8439617  62.7232208  13.0481319  34.8209190   0.9853608  57.7280807
  34.2762260   1.5993159  57.2355385  35.2176704   1.5173298  58.4178848
  57.3763199  40.8087006  88.9759064  57.1780014  41.6510277  88.5667725
  56.7427559  40.7339745  89.6895142  16.2810669  18.0716915  76.9180832
  16.2215500  17.1863155  76.5591965  16.0960121  18.6446838  76.1739960
   7.8837948  54.4234161  89.3234253   8.2919884  53.6341782  89.6793900
   7.5369587  54.1513100  88.4737854  83.3081207  59.2861252  59.7334099
  82.3949814  59.0422974  59.8849106  83.2838135  59.8269272  58.9440002
  19.9885693  48.2550278  78.7461853  20.0228157  47.6399651  79.4788208
  20.8158588  48.7338638  78.7965775  28.2477703  69.8730698  80.9977798
  27.6328621  70.5405121  81.3021622  28.2724152  69.9856415  80.0475388
  23.5925388  64.3189468  65.2313843  24.0879021  63.8161392  64.5848312
  23.3730621  65.1355362  64.7827759  56.5667496  10.9339952  20.2436886
  57.1304283  11.3847780  20.8724117  56.6961937  11.4087048  19.4226360
  50.8038025  69.5799637  75.1495132  50.9952621  68.6720734  74.9143448
  51.4302330  70.0960312  74.6420670  55.7190742  19.4782867  19.9722099
  55.1247520  19.8570843  20.6199188  55.2648926  19.5887661  19.1368980
  13.8320274  52.0538635  72.6534424  13.2920094  51.8443108  71.8914032
  14.6921549  52.2607040  72.2878799  79.0237808  20.5632191  23.7064171
  79.8851776  20.7001991  24.1007214  79.0233231  19.6421299  23.4459763
  77.1027985  21.5171261  34.7575455  76.2926025  21.4900169  34.2485466
  76.8601913  21.9603615  35.5705147   0.0306225  70.0300522  77.5842438
  -0.2795157  69.4119186  76.9224548   0.6497250  69.5254745  78.1118317
  31.2141705  57.4681931   7.7588749  31.6613197  57.3441620   6.9216743
  31.9199657  57.6221390   8.3868761  39.1174202  64.5656586  34.9666786
  38.1704445  64.7008972  34.9322662  39.4800644  65.2746124  34.4355354
  38.9836731   9.8214931   8.0788021  39.8807564   9.5751762   8.3041973
  38.6256638  10.1881733   8.8872614  14.5016956  52.4520073  26.3022442
  14.1062288  52.8752670  27.0642738  14.4462757  53.1085892  25.6079388
   9.1271400  57.1640129  27.0451756   9.3030214  57.9593277  26.5424137
   9.6690369  56.4932442  26.6296635   8.0203829  63.5759506  79.9494705
   7.3909307  63.2959557  80.6140137   7.7056603  63.1769981  79.1382828
  79.7567673  40.9397812  24.6773510  80.5801620  41.0381126  24.1992493
  79.2498550  40.3174286  24.1558628  42.7507858  23.3299046  45.2850647
  42.6940346  23.8912792  44.5118446  43.3344154  23.8003521  45.8802872
  52.2485542  18.6024914  79.0647507  52.7072411  18.0342331  79.6835556
  52.9439812  19.1045074  78.6397858  83.4166489  50.8391991  61.3598099
  83.1043243  51.4252777  60.6704636  83.9614639  51.3944283  61.9175987
  85.7917175  22.1698952  88.0543900  85.1758804  22.7953777  87.6726074
  86.4129333  21.9850540  87.3499985  78.1348038  45.0547752  84.0846405
  77.6587219  45.8123093  84.4248199  78.1962051  45.2137032  83.1427231
   7.9533868  64.2132797  60.7419319   7.4911270  63.7727432  61.4550095
   8.0844145  63.5307693  60.0837173  72.4098434  15.3483448  45.1225395
  71.5371780  15.7413597  45.1075249  72.8959732  15.8688650  45.7620430
  39.3796005  70.1908569  45.9251671  39.7215118  71.0817337  45.8498535
  39.2870522  70.0486755  46.8672142  23.1475887  63.6006317  54.8359604
  23.4672031  64.4733124  55.0651207  23.9373779  63.1061974  54.6168785
  44.9654160   5.6848755   3.8875334  45.5372162   4.9173207   3.8992372
  45.4346733   6.3249841   3.3524709   3.1235929   1.9428920  68.3530121
   2.7833202   2.5022769  69.0512466   3.8538959   1.4737128  68.7564468
  85.3950958  44.3223381  86.0958862  84.7576218  44.6893997  85.4834137
  85.9323654  45.0696106  86.3588638  41.0073776  43.2222290  77.7753830
  40.2426109  43.5543709  77.3052292  40.6509514  42.8586731  78.5859528
  25.1953926  29.9103584   3.9849718  25.1257648  30.8475075   3.8029325
  25.3703880  29.8612766   4.9247584  84.4275131  12.4730606  47.2203217
  84.6852570  13.3853483  47.0879173  83.9371719  12.4795990  48.0423698
  60.7204361   3.4183488  17.2813454  61.3251991   2.9257226  17.8361568
  60.0115318   3.6767864  17.8703232  81.3930893  65.6459808  85.7474594
  82.2518768  66.0467148  85.8821030  81.5839157  64.8034821  85.3351364
  73.6077881  67.5120316  69.4240341  73.8768692  66.6218796  69.1971970
  73.9677200  67.6553345  70.2993317  10.3969316  65.2741699  70.9393539
  10.7583885  66.1602859  70.9201660  10.5907078  64.9176254  70.0724335
  55.3589172  53.2105026  43.2295494  54.5908279  53.7433357  43.0237236
  55.7825890  53.6708183  43.9540100  85.8132935  30.8877068  77.5283737
  85.6336594  31.0877495  76.6097107  85.4103317  30.0311203  77.6702042
  59.3685074  19.0417519  57.4746361  60.2550812  18.7189217  57.6358833
  59.1880074  19.6245918  58.2121658  43.6660614  65.4711609  61.3931274
  43.3024826  65.5409470  62.2758331  44.0774994  64.6071701  61.3711777
   7.6339321  43.5957146  63.0745125   7.4926615  42.9623184  63.7781334
   8.5798769  43.5845795  62.9285812  40.5735207  57.2752113  71.6010208
  40.9400024  56.4741135  71.2266388  40.3118706  57.0272942  72.4877625
  76.0629959  38.4766617  18.2760239  76.0051956  37.5520592  18.0351849
  75.5695343  38.5425110  19.0935745  68.9851303  44.9624596  53.0648346
  69.0242538  44.1834412  53.6196594  69.4105453  45.6464348  53.5819702
  11.8203602  66.0667877   6.0431900  10.8768511  65.9054871   6.0452375
  11.9106379  66.9556808   5.6997490   7.2729516   0.3765627  24.9242039
   7.3988724  -0.4583943  24.4734001   6.3371606   0.5575775  24.8361053
  60.7925186  28.5535889   3.0175867  61.5653534  29.0394955   3.3054299
  60.9342461  27.6642284   3.3419068  41.0320663  38.5622826  45.7896576
  40.6725159  39.2510605  45.2306099  40.4468384  38.5384178  46.5467377
   1.9903537  45.7585945  68.4907150   2.0322740  46.3686295  67.7542801
   1.0550086  45.5985641  68.6162186  77.1446609  58.5585709  61.6954994
  77.2982941  57.7345467  61.2333183  77.6382217  58.4714203  62.5109940
   1.5231966  58.8845520  66.9152985   0.5851638  58.7049026  66.9789505
   1.8676232  58.6694221  67.7820816  51.9841537  58.6518898  20.4033375
  52.3138695  58.1070480  19.6887283  52.6999855  58.6728477  21.0384579
  85.0284958  46.2127151  73.2619324  85.2506790  45.7787209  72.4382095
  85.7831039  46.7708778  73.4497147  21.1758862  24.3217487  78.7964325
  21.0326347  25.2474346  78.5994186  21.4978046  23.9491997  77.9755783
  83.6965256  19.2659073  41.4888077  84.6026382  19.5173244  41.3099670
  83.7556000  18.3627739  41.8004036  84.9671707  65.4990158  85.9307022
  84.6201782  66.2210388  86.4546432  84.4847641  64.7297821  86.2336960
  44.3238487  43.2388268  27.4883156  44.4614868  43.9586372  28.1040726
  45.1853333  43.0885506  27.0990963  23.2701378   5.2091579  58.5805435
  23.3274708   4.3086319  58.8999138  22.3672428   5.2980409  58.2754021
  28.2362061  64.8810120  24.8409786  27.3484421  64.8212509  24.4880829
  28.3891792  64.0292435  25.2500401  11.3001347  17.2340927  85.2948074
  11.3959007  16.4235954  85.7949600  11.5127792  17.9275341  85.9194260
  35.2542343  26.8265476  47.5144691  34.5787430  27.3590469  47.9344559
  35.5127335  27.3318405  46.7436943  21.1448479  37.1746979  20.8497181
  21.6064949  36.7939262  20.1026402  20.2202606  36.9995270  20.6745377
   4.8317533  16.2843018  85.5914917   5.3202925  16.3057976  86.4143524
   4.0361376  15.7938337  85.7980499   3.3437798  43.5972176  43.2368889
   2.4071512  43.5764313  43.0406075   3.7177436  44.1620255  42.5605927
  31.2754040  66.3770065  45.9991798  31.7352657  67.1918106  45.7970543
  31.9703407  65.7609406  46.2310371  23.9671326  34.1443748  73.7607346
  23.7342854  33.6029358  74.5149612  24.4323292  34.8916245  74.1368179
  58.1240540  60.8119469  33.3126678  58.4835396  61.5513306  32.8224564
  57.2061386  61.0428009  33.4554062  28.7432880  45.0410881  85.5754852
  28.4393024  45.3809433  86.4171066  28.9934387  45.8201828  85.0788269
  56.6622505  28.0425797  61.5427322  56.7886887  28.5571442  62.3398972
  55.8751984  27.5253677  61.7138252  49.0612831  39.5364876  32.5493469
  49.6100311  39.9233208  31.8670940  48.4863853  38.9318542  32.0801582
  73.6668167  16.6308422  12.5296602  73.1688995  16.7721558  13.3348551
  73.5644531  15.6971197  12.3455009  23.1009979  13.1028948  45.9867325
  23.5466728  12.3033676  45.7068024  23.1178284  13.0642109  46.9430046
  79.1661072  32.4197197  41.4291267  78.5041809  32.9875336  41.8236694
  79.5512848  32.9498100  40.7313576  18.3712597  58.0954819  57.1056061
  19.2917995  58.1580276  57.3604088  18.0486813  57.3183861  57.5620003
  86.4198303  21.3760986  83.5682068  86.7198792  22.1944790  83.9637527
  85.8471298  21.6518440  82.8525162  23.2046928  58.9166451  34.1115913
  22.8974018  59.8199806  34.0354881  23.9499741  58.9668045  34.7101517
  23.6613655  33.4072876  13.3147907  23.8658581  32.7448921  12.6547565
  22.8340454  33.1160240  13.6981201  45.4385300  10.4523115  65.5379715
  46.1850624   9.9917564  65.9211273  44.7807999   9.7704077  65.4014816
  78.9986420  48.3333054  40.6500587  79.2953339  49.2081718  40.9006767
  79.0701141  47.8170242  41.4529152  66.4486771  13.0300407   3.3589649
  66.8916931  13.8641462   3.2032804  66.2321091  12.7069616   2.4843504
  66.3711777   3.6153686  36.1561775  65.6472931   2.9973004  36.0550842
  67.1486740   3.1167934  35.9048843  32.2144966  63.4176521  20.3710346
  33.0596085  63.7865372  20.6278286  32.1184006  62.6367836  20.9162331
  73.7313538   2.5996289  59.9154739  74.2384491   1.8515908  59.5999908
  73.4274139   2.3340247  60.7834053  72.8691101  44.3319435  22.2919884
  73.4671860  44.8476982  21.7511196  72.5645676  43.6332817  21.7128887
  61.8631363  69.1511841  67.6637650  62.4227562  69.7983322  67.2345123
  61.4068832  68.7144012  66.9445419  24.5120087  57.0608482  61.5991440
  25.2901497  56.9431152  61.0542870  24.8011513  56.8316765  62.4823799
  24.8370609  24.3533020  74.2438278  24.2401810  23.6131840  74.1334076
  24.2801094  25.1261616  74.1504364   6.4940934  56.7248611  87.7898636
   6.0254540  55.8903236  87.7773895   7.4144421  56.4812660  87.8891220
  56.1029663  31.3130169  28.4081726  55.2155952  31.5716057  28.1593018
  55.9972763  30.4509125  28.8104610  55.9357719  55.6748886  68.5106735
  56.2596245  55.1394997  67.7863083  56.6954498  55.7903824  69.0814438
   8.6739101  34.3727493  73.1642838   8.0233850  34.8858528  73.6436386
   9.4472275  34.3794136  73.7283478  41.5580788  33.5312538   3.6877103
  41.1251030  34.0290947   2.9942284  42.4319420  33.3492622   3.3420587
  59.6554146  41.8120117  28.9690495  59.5986671  41.2095413  28.2274036
  59.4652557  42.6719666  28.5941486  60.6687317  56.8334045  83.8860550
  60.5626030  56.1563530  83.2177963  59.7755089  57.0418739  84.1597748
   9.8268528  65.9533234  83.7938995   9.1475592  65.2801590  83.8344498
  10.4637051  65.6133804  83.1653366  15.4870100   9.3946199  63.5026741
  15.7629490   8.6177177  63.0163498  15.4954844   9.1189499  64.4192810
  22.9959068  22.5803547  17.1141949  22.4360504  21.9748268  17.6001244
  23.2172642  22.1095333  16.3107281  35.6430092  46.7411957  84.2611618
  34.8153038  46.6553879  83.7881165  35.4857216  46.3072662  85.0997314
  83.1755447  44.8536072  10.2700787  82.4783630  45.0256042  10.9029961
  83.9082794  45.3923340  10.5685844   4.2623363  24.2689056  89.0177765
   4.6580930  23.6132011  88.4436188   4.9936032  24.6077099  89.5341949
  79.6311493   6.1607442  25.4705811  79.5561829   6.2992291  26.4147377
  80.3418961   6.7415400  25.1990070  51.7508163  21.8045845  81.7538834
  51.7323418  22.5596447  81.1658554  51.2509041  22.0855770  82.5202789
  69.6921539  10.5788355  62.8643265  68.8330154  10.8832846  63.1566200
  70.1605072  11.3782635  62.6239395  49.0598297  16.5114479  86.2080688
  49.6918602  17.0062580  85.6865997  48.2201958  16.9366150  86.0334930
  27.8624153  34.2735748  52.6514435  28.8020344  34.4487991  52.7028542
  27.7922230  33.3214302  52.7201691  42.1726952  37.9497643  41.6652870
  41.9908028  37.8580093  40.7300186  41.4297447  37.5273361  42.0963478
  19.5352173   9.2893047   8.8592758  20.0513573   9.5956593   8.1136360
  20.1854210   8.9769917   9.4885044  52.6603127   3.4747376  63.8121452
  53.4299736   3.8892450  63.4222260  52.6298828   2.6044161  63.4148445
  81.1242523   4.5404224  77.2477570  80.7858810   3.7630506  77.6920853
  82.0755386   4.4626803  77.3202057  46.0204468  70.8562698  50.8967514
  46.6044312  70.1871185  51.2537231  45.5500565  71.1947708  51.6585808
  52.4691505  68.0371170   4.2918048  51.7506943  67.6436996   4.7870598
  52.4838600  68.9509811   4.5761757  46.7115135  65.8108978  36.0121231
  45.9241028  65.2919693  36.1762047  46.4952545  66.3375320  35.2426262
  14.0039301   5.7786455  86.5380096  14.8213110   5.3875055  86.8464355
  14.2677307   6.3429871  85.8112640  48.7449722  64.5583572  31.8276672
  48.0945435  63.8561211  31.8218460  48.2705803  65.3214874  32.1575470
  74.2581329  15.3433037  53.5969887  74.8809586  15.5662565  54.2888031
  73.3985825  15.4797773  53.9954567   1.9054821  34.2279587  52.6208572
   2.3357244  33.4232864  52.9100494   2.4632249  34.5579033  51.9163780
  19.3264389  65.0137787   7.7902789  18.4359074  65.2631683   7.5433130
  19.4165936  64.1118393   7.4827037  58.1139755  37.4595299  39.2360802
  57.2887383  37.1999283  38.8264160  57.9654503  38.3601837  39.5241661
  58.8349838  26.5317726  67.8178482  59.2554321  26.2302246  67.0125427
  58.8918114  27.4863129  67.7747726  47.0684319  55.5594559   9.8886862
  47.7374496  55.4314461   9.2161827  46.8811569  54.6778564  10.2110949
   3.4227309   7.9891062  21.3213692   3.4004004   8.9362001  21.4582844
   2.6727033   7.6579428  21.8153534  22.0228100  63.2438049  74.1336517
  21.1794357  62.8224220  74.2991409  22.0036221  63.4601555  73.2014160
  45.3690186  56.6756439  80.8273315  45.9746208  56.5243912  81.5530090
  44.9045715  55.8448486  80.7258453   1.6483991  64.7906265  80.9305420
   1.3736331  65.2821579  80.1565094   1.8269713  63.9089508  80.6034622
  69.1763000  60.8944511  21.4811649  68.6932297  61.7205658  21.4609203
  68.7958221  60.3770561  20.7713985   0.2939845  35.4879646  45.5701294
   0.7593551  34.6515350  45.5631599   0.2985095  35.7569237  46.4887543
   3.5915151  39.5873337  62.2248573   3.8613048  40.4643135  61.9521866
   2.7645869  39.7240448  62.6871681  55.8484726  36.4666748  21.9421864
  54.9358444  36.4484940  22.2303085  55.9022865  35.7835617  21.2738380
  48.5706596  59.5569496  29.3370323  48.8186607  60.2783203  28.7588043
  49.2414970  59.5558205  30.0198288  50.3407784  19.6887779  10.5976906
  50.7797470  20.1548805   9.8861542  49.4198189  19.9357166  10.5134859
   5.5563250  31.0779076   2.6185112   5.6075397  32.0319939   2.5608413
   4.8553300  30.8385963   2.0122373  86.0781937   3.6634090  76.0265656
  86.9993439   3.8884192  75.8958664  86.0485001   2.7113266  75.9322815
  54.7882919  63.3652344  18.5169487  53.8997459  63.3353958  18.1622200
  55.0671730  62.4498940  18.5416775  47.4428215  50.8997040  31.1526489
  47.7032928  49.9982491  30.9635201  48.2154579  51.2919464  31.5593548
   8.8733902   3.7612841  13.1478844   9.5498772   4.3164387  12.7600698
   9.2470732   3.4752431  13.9814148  31.4645271  25.6073017  79.0366592
  31.0770550  25.7205544  79.9045715  30.8958473  24.9721012  78.6015091
  70.9284286  18.2908478  86.5917206  70.3518982  17.8641224  87.2255630
  70.6238098  17.9756813  85.7407684  26.9995079  54.9757233   9.5853024
  27.2485771  54.1817169  10.0583267  27.6956596  55.0983276   8.9398785
  86.8326263   5.3332758   4.6236954  87.0090790   5.9349842   5.3469119
  85.9187393   5.0753698   4.7442455  77.8152695  14.3675556  51.5602646
  77.1490326  13.9389563  51.0229912  78.1603546  15.0649261  51.0027466
  72.8973541  13.5567951  15.6617603  72.4276581  14.1944304  15.1241379
  72.2586899  12.8621178  15.8222637  48.4933968  65.9701004  38.1612701
  49.2448502  66.4702225  37.8428001  47.8418999  66.0467072  37.4641953
  38.4379997  41.5947647  21.0420895  39.0344238  40.9911842  21.4850349
  38.9495850  42.3955269  20.9268188  66.8278961  25.4134045  37.7060585
  66.1710205  26.0512123  37.4268646  67.0805359  25.6985397  38.5841827
  13.8215208  -0.1630963  86.5843353  13.8691425   0.6848131  87.0259399
  12.9666319  -0.5148200  86.8327026  49.6273193   8.3277483  50.6936035
  50.5180740   8.6409330  50.5364456  49.1789131   8.4512529  49.8569984
  58.1137695  69.7487411  12.5316772  58.6037979  69.4886780  11.7516336
  58.0330582  70.6996765  12.4578390  65.3683548  16.8907413   0.9814806
  65.8177490  17.1859035   0.1895483  65.7790070  17.3875179   1.6891601
  72.0446320  26.1472893  63.8472443  71.6701279  26.4083843  63.0059357
  72.5980835  26.8853931  64.1024475  46.8633499  66.6596603  54.4673309
  47.3801498  66.6883316  55.2725182  46.6375351  65.7356339  54.3604431
  52.5629616  60.2480621  35.2949257  52.8239288  59.6937904  34.5594597
  51.9739685  60.8964386  34.9090157  73.3143311  27.2561436  88.1128693
  73.3582764  28.1793957  88.3616791  74.1764297  26.9061928  88.3377075
  66.4382553  17.4354382  87.7605972  65.8099976  18.0153294  87.3301926
  66.6248703  16.7590351  87.1095352  82.0732727  53.0907593  41.3797340
  82.2213821  52.1686020  41.1701508  81.9833908  53.5184822  40.5281448
  56.5204773  28.1906128  53.3909645  57.1618004  28.6092873  53.9651184
  56.7178268  27.2560158  53.4527397  58.0273170  39.5497093  57.0959129
  57.3012390  39.0410347  56.7349510  58.6768913  38.8937263  57.3488464
  58.6854172  24.0911140  87.3133774  59.2518501  24.6045818  86.7374115
  58.8243217  24.4666481  88.1828079  17.1775169  37.0024796   9.7424870
  17.8598328  37.5114403  10.1802483  17.5912914  36.6890411   8.9382610
  27.4926281  56.1989555  48.1133423  26.6343441  55.9427452  48.4508858
  27.4971733  55.8865547  47.2085686   0.2729712  52.3697166  75.2649765
   0.7349804  51.5316086  75.2837524  -0.4646490  52.2500458  75.8631668
  41.9427643  16.4027843   7.7806334  41.3047447  16.9174881   8.2748432
  41.6428909  16.4569149   6.8732319  68.8950119   4.5392942  38.2648277
  68.0120926   4.2749343  38.0063744  69.0474396   4.0865207  39.0942841
  62.6544762  62.3801384  59.0271034  62.4634590  61.4462318  59.1140633
  62.0626640  62.8045120  59.6483078  32.5379906  10.6358833  77.1001511
  32.7786102   9.8757601  76.5704880  33.2132416  10.6794844  77.7771759
  72.6567688   4.8645806  31.4214458  72.8691940   3.9362977  31.5183907
  71.7057114   4.9044318  31.5221291   9.8644047  59.2785492  14.3985519
  10.6813164  59.5536995  14.8146992   9.8234940  59.7894630  13.5901423
  63.7727890  54.0569458  25.7383327  64.3590393  53.9203644  24.9940968
  63.4866791  54.9664917  25.6540890  84.7608566  28.3353367  20.0996952
  84.7168961  27.3939362  19.9321651  84.4251862  28.7371445  19.2983818
  10.0950499  61.0331421  85.2851257   9.1988850  61.3694763  85.2857742
  10.2286968  60.7093353  84.3943253  46.6995544  32.9506721  62.5694962
  47.2535629  33.1912804  61.8269196  47.1072731  33.3800964  63.3215561
   6.5388494  64.8822861  54.1514320   7.1463156  65.2576523  53.5139999
   5.6811652  65.2188187  53.8919067  72.7157211  65.9239960  75.4888077
  72.7531662  65.9149780  76.4452286  72.4869614  66.8264923  75.2665634
  39.5910034  61.0050163  30.8035278  39.0030327  60.3541412  30.4202766
  39.5232887  60.8625069  31.7476349  81.3459625  27.0126648  59.0539894
  80.7826462  27.3534679  58.3591843  81.8197479  26.2886238  58.6446877
  56.0939713  14.2181845  65.3571091  55.6791229  13.8711233  64.5673752
  56.4972343  15.0391073  65.0748062  61.8578491  31.9680786  36.9165268
  61.8695183  31.8059406  37.8598213  61.9067116  32.9206848  36.8366165
  56.8868752  35.6823997  81.8175125  56.2600479  35.9270744  81.1367416
  57.2370262  36.5160866  82.1315079  17.6901360  13.2715750  18.2922688
  18.2452831  13.2687798  19.0720348  17.8099480  12.4023075  17.9098415
   9.4622707  31.9619732   6.7658253   9.9904699  31.9276428   5.9682918
   9.1029987  31.0790825   6.8533483  64.8795471  68.6335144  32.9028931
  64.0075455  68.7267609  32.5192947  64.7237701  68.2290802  33.7563553
  77.0080795  71.2453766   9.1635504  77.1777725  70.3644333   9.4972782
  77.8767014  71.6345825   9.0622892  32.5824928  40.0048447  26.4163589
  33.4296265  39.5620041  26.3664761  32.6897736  40.7884979  25.8772774
  33.4173622  57.4216232  83.8096466  32.5127640  57.7335396  83.7843170
  33.9260712  58.1298904  83.4149323   8.3807583  15.2611675  67.8411865
   8.6930103  16.0194778  68.3348389   9.1775646  14.7928829  67.5921021
  81.6886597   1.0945708  77.1559296  82.0688248   1.8087784  76.6444473
  81.5693283   0.3850043  76.5246582   1.2783458  18.1069794  88.2611237
   0.6167182  18.1979141  88.9468460   2.1133447  18.1421795  88.7277832
  80.3055267   7.5794592  32.5491066  80.0347137   6.6629710  32.4948997
  79.8296432   7.9255810  33.3040657  48.8706360  28.1081161  12.9023314
  49.4834290  28.8017883  12.6583347  48.6377640  27.6914864  12.0726194
  76.3008881  56.0409660  55.9690208  76.9063950  56.7074509  55.6443672
  75.7580490  56.5017624  56.6087265  66.1374893  42.4632530   3.9487958
  65.6343765  42.7622414   4.7062364  66.8218689  41.9066925   4.3203979
  17.1478577  51.6632423  14.9952860  17.4319839  52.0372238  14.1612339
  17.9013748  51.1578178  15.3002262  45.9138145  61.3341522  35.4178467
  45.8365746  61.0166283  34.5181580  46.1887856  60.5669327  35.9198380
  60.6786613  13.3414783  29.5215168  59.7920303  13.0544510  29.7399979
  61.2274513  12.9712772  30.2129002  37.9434280  22.7851162  78.8451538
  38.6978455  22.3044529  78.5044937  37.3116112  22.1050014  79.0785751
  82.6875839  64.6985245  43.4805450  81.8844452  64.1778183  43.4885788
  82.4159164  65.5526505  43.1445427  74.6649094  68.8723068  67.3865433
  74.7188492  68.1941376  66.7131805  74.4341583  68.3985748  68.1856461
  63.2397995  71.0711365  56.4485588  63.2497139  71.6415787  55.6799698
  62.9281502  70.2287674  56.1176224  10.0368767  37.6001625  15.9281006
  10.9877386  37.6253738  15.8210573   9.9035282  37.5560341  16.8749390
  24.1541042  55.6916122   9.4987278  23.3319111  55.2126770   9.3945389
  24.6925144  55.1256561  10.0519361  49.8266945   4.3182659  80.2096939
  49.5122795   4.0553751  81.0747147  49.4157143   3.6985683  79.6069489
  66.2858582  51.2296219   1.4038081  65.8023605  50.4428291   1.1519780
  66.9792252  50.9101105   1.9812059  50.5213966  15.5911074  19.3099365
  51.1188583  16.0043221  19.9332542  50.6528282  14.6517792  19.4388542
   0.9202510  70.7108536  46.5084763   1.8747574  70.7517395  46.4495049
   0.6685129  71.5467682  46.9010429  60.9988976  44.1148605   3.5304520
  61.0281334  43.2107925   3.2173431  60.2914772  44.5194588   3.0283699
  59.9852982  11.6095877  38.7015266  59.6719627  10.7466393  38.9724045
  59.1922722  12.1409016  38.6304817  62.6716957  22.8712502  66.7776947
  61.8164749  23.2005463  66.5012970  62.4993896  22.4221439  67.6052475
   5.2252040  36.1495819  47.3268929   4.4716864  36.3241196  46.7629967
   4.9941940  35.3464012  47.7935486  10.8851948  50.4583740   2.1608412
  11.6660929  50.8530579   2.5489850  10.8768587  49.5625229   2.4979012
  60.4510307   3.0931401  67.3061523  60.4794731   4.0310144  67.4953995
  60.5276413   3.0385818  66.3535843  72.8986130  39.8349648  82.9219360
  72.6891022  38.9402657  83.1899872  73.4269028  40.1827469  83.6404037
  42.5141678   6.6948285  61.1330147  42.6097298   7.6186256  61.3647461
  43.1916618   6.2490368  61.6414490  32.3099480  34.3211060  18.4623337
  32.3619118  34.1053047  17.5312252  33.0743065  33.8948441  18.8500080
  32.4960022  68.6525116  62.1616631  31.8738060  69.3344879  61.9086494
  32.0375443  68.1471252  62.8329582  77.5978165  70.4960861  14.8005123
  78.4524689  70.9093018  14.6778336  76.9865875  71.0674210  14.3355360
  36.6516685  14.7166300  10.2786455  36.9317780  15.5431099   9.8853235
  37.4677505  14.2629957  10.4894981  77.3316879  46.7026672   7.8813019
  76.8273544  47.4901581   8.0855989  76.7064056  45.9849586   7.9820414
  66.7439117  61.4415283  69.7004547  67.1418610  60.5717697  69.6631622
  66.7771912  61.6806297  70.6267166  46.6625290   4.8592191  49.6854401
  46.1917381   4.0756698  49.4014740  47.5867615   4.6378312  49.5713730
  81.9449158  36.9946404  69.2106247  82.4435501  37.7426338  69.5394135
  81.7374802  36.4827766  69.9924164  30.6046848  68.7433395  74.2442932
  31.2940598  68.8154068  74.9044495  30.6243496  69.5828323  73.7848358
  11.0916653  37.1118546  73.3787918  10.5372124  36.3462143  73.5291519
  11.1336384  37.5480232  74.2298126  36.6815605   4.8499556   9.6168909
  36.4785614   5.5763640   9.0275249  37.5779953   4.6016588   9.3910856
  65.8726120  16.1086540  43.7942886  65.6418839  15.2284460  44.0913315
  66.7358551  16.0075111  43.3932800  79.0806046  41.3942223  83.6423111
  79.5751953  41.8464546  84.3257599  79.5756531  41.5587273  82.8397598
   1.3797262  44.5345840  83.9502945   0.6464572  45.0626183  84.2660904
   1.8243365  44.2420197  84.7458801  83.6573029   4.5245981  85.5632935
  84.5787582   4.4184160  85.3269043  83.2244644   4.7566223  84.7416840
  62.2021980  18.8268127  13.4767456  61.4869041  19.3045883  13.0568419
  61.8450165  18.5553513  14.3223009  12.1202049  31.1548634  77.4023209
  11.6634293  30.6296368  76.7452621  13.0286894  31.1773720  77.1016846
  37.8751335  23.0083275  47.0508537  37.6726532  22.2882710  47.6481400
  38.1035042  22.5787201  46.2265244  31.9679966  19.5938587  17.7487812
  31.2652283  20.2044449  17.5262165  32.6918373  20.1537971  18.0294151
  61.1425056  14.8178272  34.7483444  61.8777504  14.8800993  35.3580780
  60.7510338  13.9637833  34.9316216  83.7945251  23.0440254  66.7112808
  83.4454498  22.1531353  66.7376862  83.2390213  23.5369205  67.3151855
  39.7616425  60.2198029  81.7957840  40.6166916  60.4408264  82.1649399
  39.6344261  59.2982559  82.0211639  20.6833935  47.8859596  74.2248611
  20.2737370  48.7309456  74.4103622  20.0109882  47.3915405  73.7561951
  44.5923462  24.0514221  82.1374741  44.4843636  24.2006531  83.0767822
  45.1514969  23.2765903  82.0807800  80.4899216  67.1416016  12.9523764
  80.8333206  67.1990051  13.8440094  81.2687759  67.1290817  12.3960886
  51.7358589  57.1781425  87.8843231  52.2616806  57.9725685  87.7914047
  51.6700897  57.0436745  88.8297501  15.5820065  48.6051712  41.2003212
  14.9191513  48.0410843  41.5986443  16.3306503  48.0273628  41.0523224
  77.9372787  55.4182701  33.5861244  78.8404083  55.6999626  33.7318611
  78.0074921  54.4863510  33.3791733  76.3676147  25.3388157  72.5917816
  76.4936066  24.5763130  72.0270233  77.0173111  25.9723759  72.2872696
  39.6412582   1.8602407  72.6674957  40.3994484   2.0034146  73.2339554
  39.0775375   2.6174445  72.8259048   7.9193239   3.8906581  63.9132652
   7.5782285   4.3327537  64.6907196   7.7636442   2.9608264  64.0788193
  70.0307083  50.0739937  69.3327713  69.2057190  49.7333374  69.6785660
  70.2511368  49.4826279  68.6130981  16.1813869  30.0671616  19.4365978
  16.0142288  29.4253426  20.1267853  16.7896347  30.6914330  19.8322601
  73.7451706  62.6981087  42.7224846  72.9507141  63.2248726  42.8095894
  74.1742706  63.0397568  41.9380226  68.1182404  18.5681133  60.1546059
  68.9877319  18.1701241  60.1973114  67.6135559  17.9811592  59.5915680
  57.2993927  60.8182106  54.2694206  57.8672333  61.3745155  54.8026314
  57.8602219  60.0901413  54.0018044  58.5476646  59.0229912  26.8231201
  58.7569809  59.9500160  26.7088966  59.2620354  58.6805840  27.3603973
  76.4014359  24.4505501  43.0486565  76.5005417  24.3996830  43.9993515
  76.4633331  23.5424366  42.7524605  60.6628609  29.9951744  53.3573380
  59.7432938  29.8165894  53.5541420  60.9263000  30.6428547  54.0110512
  43.2454414  60.6541023  31.9551048  42.6631393  60.8834991  31.2308559
  42.6556625  60.4378395  32.6773415  36.6795654  57.7200279  10.2388420
  36.7312393  58.0185280  11.1468401  37.3151741  58.2624092   9.7718763
  26.5030899   2.7448397   8.2362623  26.0373783   2.0721965   8.7331486
  27.4204674   2.4733706   8.2671967  47.0241547  58.2897530  31.2546635
  47.4043388  58.6113968  30.4372063  46.3347855  57.6864510  30.9771233
  86.8038207  71.6217805  89.1650308  90.0000000  90.0000000  90.0000000
