QMMM reactant CHA#2 frame 53493
 55680
  17.5601234  39.1475029  37.1967201  17.8772926  40.0981560  37.0711250
  16.5514431  39.1896439  37.1669235  18.0045490  38.8009834  38.0348778
  18.0029945  38.2964363  36.1911888  17.2186413  38.2962608  35.4342957
  19.2636261  38.8158493  35.4872284  19.0963955  39.8419762  35.1598282
  19.9959564  38.8252563  36.2945099  19.8108025  37.9704628  34.3611565
  19.7116318  36.8966179  34.5196533  19.2868538  38.1335793  33.4193611
  21.5588417  38.2375755  33.9724998  21.4675465  39.9473648  33.2826347
  22.4741001  40.3191948  33.0911064  20.9176235  40.0069733  32.3434143
  20.9518681  40.5510902  34.0294228  18.1346169  36.8078880  36.5766220
  18.8451557  36.4644699  37.5250359  17.3610935  35.9732437  35.9202957
  16.8646870  36.2803154  35.0960464  17.1106701  34.6146317  36.2534752
  16.7842617  34.6841278  37.2911339  15.9962349  34.1563644  35.3293610
  15.1277456  34.7521286  35.6102409  16.2747173  34.3572731  34.2948647
  15.7029591  32.7051697  35.5505829  16.6359291  32.1455269  35.4837303
  15.0292025  32.3828239  34.7567024  14.8784771  32.4047127  37.1499748
  14.6932592  30.6478863  36.7612228  14.0770693  30.1781921  37.5279121
  15.6831474  30.1916103  36.7672501  14.2535524  30.6102448  35.7645607
  18.4097404  33.8183365  36.0587196  19.2109184  34.1411209  35.1707878
  18.5023098  32.7704239  36.8859520  17.7661800  32.5783577  37.5502739
  19.6297092  31.7889137  36.8433189  20.5045834  32.3101463  36.4547157
  20.1111698  31.3256836  38.2220840  19.3869400  30.6485233  38.6749115
  21.3634415  30.4569435  38.0760994  22.1850357  30.9667473  37.5729256
  21.6736641  30.1420116  39.0724335  21.0917797  29.5043678  37.6212311
  20.3196239  32.4973564  39.2221298  19.3713799  32.9247208  39.5481567
  20.7757816  32.0893135  40.1240845  21.2614632  33.6789169  38.8188477
  22.2664089  33.4428596  38.4689026  20.8344421  34.2152824  37.9714584
  21.2067509  34.3042679  39.7099419  19.2781601  30.7432766  35.8173065
  18.2078972  30.0985680  35.9477730  20.1666565  30.3659687  34.9249573
  21.0562572  30.8435955  34.9008293  19.9846458  29.0523643  34.1694107
  19.0993786  28.5780907  34.5930557  19.8109169  29.2985973  32.7224274
  20.4978485  30.0123196  32.2676468  20.0478954  28.3579998  32.2252121
  18.3084240  29.6143913  32.4517288  18.0691795  29.2885551  31.4394588
  17.6996574  29.1051407  33.1988335  17.9460754  31.0256672  32.6076012
  17.9981136  31.4048538  33.6281929  18.6298428  31.6995239  32.0913849
  16.5294628  31.2424316  32.3236542  15.8640909  30.5101643  32.5265465
  15.9059954  32.2935753  31.9584751  16.5727959  33.3433838  31.6238880
  16.1099834  34.1649208  31.2619629  17.5403347  33.4306831  31.9002056
  14.6517324  32.4145164  31.7562046  14.0384550  31.6533375  32.0103683
  14.3632603  33.2013054  31.1924248  21.1902218  28.0984459  34.4164658
  22.3190136  28.5443878  34.6081505  20.9501457  26.7733707  34.3902588
  20.0307999  26.3838463  34.2380257  21.9742451  25.7627029  34.3135300
  22.8279915  25.9154663  34.9737396  21.4342403  24.8688660  34.6258621
  22.6086254  25.5115833  32.9415817  21.9369392  25.4108925  31.9544716
  23.9263973  25.3579712  32.8918839  24.4173489  25.4343948  33.7712173
  24.7851505  25.1795063  31.6986885  24.1920662  24.9888744  30.8042545
  25.4931736  26.5526237  31.3183575  26.0293293  26.8343277  32.2246017
  26.5342274  26.2466774  30.1999874  27.4521561  25.7822380  30.5602760
  26.1128750  25.5902596  29.4386215  26.7946434  27.2054424  29.7515965
  24.4914513  27.6436157  30.9925556  24.3287849  27.8698502  29.9387722
  23.5159779  27.3829594  31.4031754  24.8291283  28.9107838  31.7276077
  25.8728523  29.1533928  31.5278778  24.0516300  29.6209259  31.4460220
  24.7474880  28.8778572  32.8140488  25.7556381  24.0266285  31.9779034
  26.3968906  23.8839245  33.0292664  25.7859821  23.0211277  31.0651627
  25.1730976  23.1849346  30.2792606  26.5364056  21.7792511  31.0712662
  27.1900787  21.7501144  31.9430256  25.5048275  20.6254730  31.0931301
  24.8752518  20.4782524  30.2155991  26.0467758  19.6819687  31.1578865
  24.5961819  20.7192230  32.3466988  25.1917400  20.9571247  33.2280693
  23.7962646  21.4312210  32.1434898  23.8921795  19.3123684  32.5546951
  24.7179852  18.6978760  32.9132233  23.1698112  19.3414440  33.3704376
  23.3002605  18.7305794  31.3374271  22.4682922  19.1952667  31.0027695
  23.8255405  17.7257767  30.7227154  24.9361534  17.1185417  31.0448742
  25.4152374  17.4016762  31.8877316  25.2438869  16.3014603  30.5371532
  23.2046127  17.3750439  29.6419315  23.5488014  16.5502663  29.1714153
  22.2741871  17.7306824  29.4748077  27.3823318  21.7073326  29.8082504
  27.0344448  22.1773853  28.7477798  28.4079876  20.9513893  29.9040432
  28.4335289  20.3949947  30.7465820  29.3525848  20.5860806  28.8246193
  28.8544312  20.6627254  27.8581486  30.2457485  21.1957512  28.9612274
  29.9677277  19.1004772  28.9546947  29.8038540  18.5287304  30.0655041
  30.6638660  18.7072849  27.8377705  30.7043114  19.3006535  27.0214520
  31.3399334  17.3585625  27.7956543  31.8001213  17.0343933  28.7290611
  30.1758499  16.4184380  27.5713272  29.4720459  16.5624580  28.3910923
  29.6303425  16.7065506  26.6727104  30.3825321  15.3482151  27.5739326
  32.3862877  17.1568565  26.6609478  32.2145081  17.5563946  25.5396252
  33.5596237  16.6277256  26.9874878  33.6932144  16.2013874  27.8932953
  34.8030891  16.4534016  26.1150723  34.5964737  16.4824448  25.0452271
  35.6081238  17.8007946  26.3432484  34.9610558  18.6556358  26.1466579
  36.3471603  17.8675480  27.7325630  36.8833733  18.8142796  27.6672707
  35.6455460  17.8289013  28.5658379  37.0748405  17.0614948  27.8267078
  36.5044556  17.7830544  25.2691689  36.9695282  18.6206322  25.2077618
  35.5821915  15.2188253  26.4511032  35.3266373  14.6669855  27.5302143
  36.4635887  14.7888594  25.5324402  36.7938232  15.3431025  24.7553577
  37.2301941  13.4929514  25.7973347  37.1968155  13.2555103  26.8606339
  36.7054901  12.2288942  25.0679722  37.3207512  11.3974237  25.4117947
  35.2249870  12.0076942  25.4335175  35.1911240  11.8705053  26.5143204
  34.6315689  12.8857126  25.1784859  34.8239746  11.0493412  25.1035957
  36.9067574  12.4773502  23.6978340  37.8465004  12.3966064  23.5190506
  38.6945496  13.6727619  25.4997292  39.1463547  14.2347107  24.5550137
  39.5484581  13.0405388  26.3533497  39.1218681  12.5427046  27.1216507
  41.0119400  12.9282751  26.0625134  41.3569183  13.7999077  25.5063248
  41.8667603  12.8298120  27.3241043  42.8746758  12.5886002  26.9864254
  41.8836174  14.1031590  28.1791458  42.5562744  13.7961712  28.9800110
  42.1684570  14.9928846  27.6175823  40.8778801  14.3462410  28.5219173
  41.4749374  11.6680450  28.1868668  40.4340973  11.6980200  28.5091171
  41.5482864  10.6960869  27.6989956  42.1340408  11.6626129  29.0550022
  41.2474937  11.6594858  25.2203312  40.3669281  10.7818785  25.1708336
  42.5004005  11.4998589  24.5948009  43.2466011  12.1404839  24.8247604
  43.0172729  10.2026672  24.2398930  42.2104530   9.5697508  23.8703461
  44.1073074  10.2749929  23.1835918  45.0573349  10.7337179  23.4576626
  44.4493446   9.2946539  22.8518620  43.6342659  10.9703808  21.8287373
  43.5281143  12.0523653  21.9071102  44.3713417  10.8052073  21.0429001
  42.2802010  10.4769650  21.3061295  42.1162033   9.2746820  21.1078568
  41.3067818  11.2350731  21.2281551  43.5022469   9.3563032  25.3570881
  43.4443932   8.1488438  25.3051643  43.9624901   9.8940096  26.5239944
  43.8897324  10.8945827  26.6408691  44.6832390   9.1159678  27.5112076
  44.3659973   8.0788450  27.6199951  46.1544113   9.0561838  27.2145290
  46.3317757   8.6559410  26.2163067  46.5426102  10.0742579  27.1840477
  47.0455284   8.2513199  28.1803761  47.1315765   8.8003063  29.1180897
  46.7176971   7.2205892  28.3153610  48.4141197   7.9473748  27.5622463
  48.9466629   7.2446232  28.2030563  48.1681900   7.4791102  26.6091709
  49.1718788   9.1625385  27.3034153  49.1645813   9.5086145  26.3545856
  50.0087051   9.7412014  28.1199169  50.3072319   9.2673120  29.3077202
  51.0639000   9.6997547  29.8181610  49.7515831   8.5573168  29.7629776
  50.5676117  10.8393259  27.6955433  51.1493301  11.3879890  28.3125381
  50.2388535  11.1925268  26.8082619  44.4442558   9.6967402  28.8644142
  44.5293198  10.8811941  29.0922012  44.2539330   8.8341475  29.8897705
  44.1799736   7.8463469  29.6925850  44.2389336   9.1672726  31.3237877
  43.5384827   9.9879112  31.4787884  43.7058830   7.9401398  32.1471939
  42.7170219   7.6549778  31.7881184  44.3823128   7.0952878  32.0176964
  43.6452179   8.2453156  33.6533241  43.3975372   9.4744081  33.9529495
  43.8383636   7.3115578  34.4249420  45.6077881   9.6556787  31.7446957
  46.5106468   8.9989138  32.2394867  45.8418770  10.9547291  31.6773796
  45.0696869  11.5265293  31.3661327  47.0587082  11.8145561  31.8691196
  47.5668030  11.5953197  32.8082047  48.0190773  11.6663132  30.7119274
  48.1065331  10.6105843  30.4552422  47.6535683  12.3939972  29.4956150
  47.6740799  13.4797268  29.5897884  48.3622360  12.3182774  28.6708984
  46.7215805  12.0804291  29.0253201  49.2428818  12.1516666  31.2057667
  49.7547150  11.5238075  31.7209530  46.6424255  13.2301674  32.1792641
  45.7078896  13.7150602  31.5385361  47.3895721  13.9537687  33.0776482
  48.1817703  13.4385166  33.4340668  46.9811821  15.1930923  33.5800896
  45.8976936  15.2426510  33.6882515  47.6809692  15.4884605  34.9520149
  47.0130310  16.1650944  35.4850502  47.5964928  14.6091013  35.5905228
  49.1557121  15.8200550  34.9808731  49.2313728  16.7286568  34.3835411
  49.5715828  15.9844742  35.9749107  50.0229759  14.6898680  34.4490089
  51.0284729  14.9918051  33.7415771  49.6305847  13.5178595  34.6596947
  47.2775612  16.3146667  32.5597076  46.5223351  17.2497501  32.5287704
  48.2743378  16.1160355  31.7371044  48.7552528  15.2283163  31.7651367
  48.5990105  16.8808899  30.5213547  48.9432335  17.8438969  30.8984890
  49.7119331  16.1238174  29.7248039  50.6129684  16.1147957  30.3381138
  49.4513741  15.0673122  29.6615028  50.1192894  16.6926327  28.3316174
  51.0959854  16.2296448  28.1908665  49.3855591  16.3154202  27.6192646
  50.2738647  18.2276726  28.1852341  50.3352852  19.0273952  29.1786003
  50.1521263  18.7128315  27.0120792  47.3703194  17.0612717  29.5831184
  47.1881676  18.2077141  29.1964893  46.5830498  16.0441971  29.3012581
  46.6759567  15.1425257  29.7467442  45.4139214  16.1753483  28.4167519
  45.6927719  16.9635506  27.7174091  45.1324234  14.9078150  27.5910358
  44.9674339  14.1154633  28.3211422  44.1858406  15.0467787  27.0687580
  46.2964287  14.6027641  26.6187000  46.5589142  15.4747744  26.0197010
  47.2107773  14.5186958  27.2060623  46.0226822  13.3237829  25.7785168
  44.8239174  13.0597725  25.4436665  47.0147820  12.7097807  25.3387184
  44.1484909  16.6683826  29.1129150  43.3739738  17.3752499  28.4750900
  43.9535942  16.1658764  30.3540802  44.6506691  15.4733019  30.5876007
  42.6676407  16.3157444  31.0385227  41.9126472  16.0303841  30.3059521
  42.5999069  15.4587164  32.2932281  43.5875092  15.6074495  32.7298241
  41.5153503  15.9577799  33.2641449  41.7012405  16.9765415  33.6042366
  40.5400658  15.7168274  32.8412170  41.6344604  15.3996944  34.1928291
  42.3484421  13.9778996  31.8375549  41.4636955  13.8522558  31.2134247
  43.2409554  13.6701584  31.2927437  42.3278351  13.0557060  33.0012817
  43.3151741  13.0658388  33.4629745  41.5824852  13.3113623  33.7544060
  42.3761902  12.0662899  32.5465050  42.3735390  17.8464928  31.2082214
  41.3653488  18.3147812  30.8258133  43.3153877  18.5818138  31.8001938
  44.2197571  18.1665573  31.9727573  43.1610794  19.9586391  32.2241402
  42.2734299  20.1215801  32.8353958  44.2835121  20.4906120  33.1101799
  45.2003708  20.4866467  32.5207329  44.1346283  21.5442810  33.3462334
  44.5784073  19.7478104  34.4402275  44.9703293  18.7572136  34.2095146
  45.5755615  20.5561581  35.2422867  46.0980873  19.8549156  35.8929176
  46.2584915  21.0668335  34.5633812  45.1062317  21.3172016  35.8656960
  43.3930779  19.6239891  35.3979683  42.6491661  18.9612980  34.9557762
  43.7642365  19.1958027  36.3290939  43.0624046  20.6386471  35.6198502
  43.0958633  20.8164425  30.9163818  42.3388443  21.7520866  30.7298546
  43.8518028  20.4844341  29.8079357  44.5891953  19.8026428  29.9152603
  43.8553200  21.2075768  28.5855751  44.0167122  22.2818699  28.6747112
  45.0513573  20.6897926  27.7774220  45.9507828  20.8828163  28.3621292
  45.0205269  19.6071186  27.6550789  45.2326965  21.2716999  26.3854904
  46.2107658  20.9313087  26.0454636  44.4507599  20.9370995  25.7037849
  45.2468567  22.7737179  26.4369678  45.8491936  23.4287071  27.3132153
  44.5267754  23.3269634  25.4368401  43.9488335  22.8208027  24.7811813
  44.6347694  24.3178215  25.2736206  42.5808601  21.0654240  27.8188725
  41.9007034  22.0305195  27.5931625  41.9950142  19.8741817  27.5965481
  42.5547867  19.0654049  27.8259754  40.5650635  19.6436481  27.1946774
  40.5479279  20.0700874  26.1917038  40.1022148  18.1359005  27.2978764
  40.2222977  17.7645569  28.3156090  39.0269432  18.2037334  27.1326466
  40.9124756  17.1976395  26.3347244  41.9717255  17.1337986  26.5837345
  40.5423851  16.1890888  26.5190125  40.7706070  17.4838676  24.9046268
  39.7356567  17.3601265  24.5857811  41.2251358  18.4473495  24.6739521
  41.5458679  16.5109787  24.0341911  42.5383987  16.5085144  24.4847260
  41.1982651  15.4855127  24.1594620  41.6105881  16.9108906  22.6320724
  40.6927795  17.0451946  22.2324657  42.0756073  17.8000660  22.5170517
  42.1089897  16.2544136  22.0483475  39.5756607  20.4339218  28.0916138
  38.6840630  21.1464005  27.5746727  39.6716614  20.3252201  29.3978577
  40.3900490  19.7070923  29.7470512  38.7640457  21.0184441  30.3529968
  37.7281990  20.6800671  30.3280506  39.2136307  20.7789574  31.8430958
  40.2151718  21.1672840  32.0280762  38.0706482  21.2701664  32.7609100
  37.1014709  20.9216614  32.4040565  38.1860771  20.8559837  33.7625237
  38.1254425  22.3559685  32.8392754  39.2562752  19.4551830  32.1642838
  40.0352669  19.0652275  31.7609119  38.6664810  22.5419159  30.1236610
  37.6247520  23.1318226  29.8966770  39.8585091  23.2262096  29.9902172
  40.7359009  22.7568188  30.1632843  40.1046181  24.5918350  29.5101242
  39.6276398  25.3047562  30.1826859  41.6845207  24.8091469  29.5484447
  42.1363029  24.4625511  30.4778881  42.0385132  24.1290989  28.7736397
  42.0745506  26.2230053  29.1420097  41.7281914  26.2740860  28.1097660
  41.5504913  27.0117016  29.6818542  43.5297508  26.5050583  29.2946835
  43.7634163  26.2219181  30.3209991  44.0273781  25.7748032  28.6565666
  44.1327362  27.8725929  28.9882679  43.6249046  28.1469135  28.0636272
  43.8644257  28.5334988  29.8124733  45.5974808  27.8574142  28.7743797
  45.9864197  27.0945282  28.2388153  45.8323135  28.7000637  28.2695065
  46.1070061  27.6966190  29.6314831  39.5824127  24.8636112  28.1099892
  38.7435112  25.7648449  28.0078793  39.7866364  24.0431290  27.1234474
  40.3536453  23.2190590  27.2631264  39.1689911  24.2830830  25.8117714
  39.3567581  25.3076229  25.4905872  39.7909813  23.4147625  24.7757969
  39.5535965  22.4119701  25.1309776  39.2307167  23.5168400  23.8463936
  41.2694283  23.7139301  24.5238972  41.4315987  24.7390327  24.1907787
  41.8994942  23.4087849  25.3593616  41.6886787  22.8908119  23.4000092
  41.9340668  21.7021446  23.5822887  41.5132713  23.3899670  22.2066555
  41.4598656  22.8279247  21.3691845  41.2452049  24.3495579  22.0410290
  37.6237679  24.0719681  25.8708591  36.8726349  24.8548069  25.2585907
  37.0982933  23.1960468  26.7290649  37.6882553  22.7060852  27.3863182
  35.6615105  22.9987087  26.9736805  35.0692101  22.9025192  26.0637207
  35.4427338  21.6583099  27.7438507  35.6997299  20.8457031  27.0643463
  36.1435280  21.6223583  28.5779343  33.9950294  21.4919834  28.2738113
  33.6721497  22.3653431  28.8404617  33.1127586  21.3750572  27.0942078
  33.4163589  20.5840321  26.4084930  32.1604919  21.0438557  27.5084534
  32.9603920  22.3159332  26.5654030  33.9588013  20.2736187  29.1829281
  34.6285591  20.3619633  30.0383339  32.9292297  20.1957645  29.5322418
  34.0265388  19.3962975  28.5396347  35.0762405  24.2164192  27.6445866
  34.0911751  24.7890034  27.1412392  35.6648560  24.7754860  28.7219009
  36.4476852  24.2393074  29.0680161  35.2158470  26.0130177  29.3619499
  34.1536102  25.9173851  29.5869064  36.0800362  26.1706886  30.6525307
  37.1261101  26.2676754  30.3619709  35.9543304  27.2198544  30.9200134
  35.7700539  25.2100735  31.8344173  35.5331650  24.2535534  31.3685303
  36.8718185  25.1457291  32.8237457  36.9231110  26.1291561  33.2910118
  36.6667252  24.4231052  33.6135864  37.8744888  25.0067577  32.4194603
  34.5151367  25.5368519  32.6038780  33.6987724  25.3869438  31.8973579
  34.4563560  25.0042305  33.5530701  34.5683517  26.5944595  32.8622131
  35.2529755  27.2682056  28.4505157  34.2919121  28.0395355  28.3452187
  36.3710823  27.4244423  27.7410507  37.0296326  26.6677399  27.8585720
  36.6146965  28.4046631  26.7003479  36.3996010  29.3239326  27.2451248
  38.0184975  28.2591572  26.0944099  38.1493683  27.2363071  25.7412109
  37.9435730  28.9140930  25.2263393  39.1486626  28.7562294  27.0671978
  38.7496758  29.4429779  27.8137150  39.7375908  27.9979191  27.5831814
  40.1262741  29.6469402  26.2214432  41.3187332  29.2613983  26.0437489
  39.7967529  30.7263203  25.7357082  35.5459366  28.4695549  25.5922813
  35.1288300  29.4914913  25.0077190  35.0365677  27.2463551  25.2270412
  35.4620399  26.4117317  25.6044998  33.9926529  27.0658779  24.2036095
  34.0859070  27.8755875  23.4798832  34.1012115  25.7107334  23.5434361
  35.1166344  25.3919296  23.3081074  33.8976212  25.0340519  24.3733482
  33.2574844  25.4993324  22.2989368  33.2400208  24.4341679  22.0682468
  32.2536087  25.9018860  22.4341660  33.9221001  26.2257099  21.1187553
  33.9362602  27.2559204  21.4745140  34.9590416  25.9086304  21.0077591
  33.3003883  25.9448719  19.7839603  33.3542252  24.8814869  19.5506897
  32.3129082  26.4024925  19.7242012  33.9497490  26.6158199  18.5704460
  34.0386925  27.6139069  18.6969833  34.9196587  26.3510876  18.4740467
  33.4763145  26.4621277  17.6916161  32.5654793  27.2692699  24.7869549
  31.7095909  27.6809235  24.0244980  32.3406448  27.1566372  26.0946789
  33.1579971  26.8874416  26.6234264  31.1425323  27.5178432  26.7715034
  30.2599239  27.2074223  26.2122688  31.1501083  26.7298012  28.1074619
  32.0636635  26.8488045  28.6900043  29.9288921  27.1908836  29.0522118
  30.0343456  26.6924648  30.0158348  29.9580231  28.2510071  29.3039837
  28.9307690  26.9196320  28.7083015  30.9310322  25.2103634  27.8473606
  29.9608421  25.0015392  27.3965549  31.6317711  24.9041595  27.0706367
  31.1867218  24.2628765  29.0563927  32.1322021  24.5710163  29.5027370
  30.3791580  24.4028721  29.7749615  31.2210541  23.2063580  28.7905197
  31.1517181  29.0664501  26.9276810  30.1420460  29.6522274  26.7652416
  32.3306541  29.7469139  27.0983353  33.0673447  29.2311974  27.5581417
  32.4467163  31.1665936  27.0019531  31.6821404  31.5066814  27.7004280
  33.8069763  31.6986179  27.4492912  34.5514832  31.1262932  26.8958893
  34.0720139  33.1852570  27.1337471  34.9327049  33.5851440  27.6698399
  34.1844368  33.3283424  26.0590439  33.1994591  33.7302399  27.4939594
  34.0109978  31.4314384  28.9232674  33.4694633  32.1508446  29.5375137
  33.6459274  30.4475536  29.2178783  35.4767036  31.4111996  29.2589626
  36.0789337  30.6970024  28.6974106  36.0360336  32.3381310  29.1322937
  35.6500893  31.0409203  30.2693748  32.1318970  31.5442982  25.5581894
  31.3860435  32.4562912  25.4174538  32.6101532  30.8687916  24.4775677
  33.3673744  30.2233925  24.6512775  32.3405647  31.3321667  23.0955658
  32.6737633  32.3673363  23.0213966  33.1215858  30.4651337  22.1328869
  34.1558228  30.4757099  22.4769020  32.8079796  29.4339828  22.2956161
  33.2586632  30.8907299  20.7000313  32.2988091  31.1188316  20.2366219
  33.9396782  31.7388878  20.6296902  33.9324837  29.7667828  19.9419308
  35.0930328  29.5483532  20.3140087  33.4282570  29.1658669  18.9357834
  30.8388672  31.2351494  22.7182407  30.2330322  32.2140846  22.3301678
  30.1957092  30.0607758  22.9196301  30.8095493  29.2838554  23.1188698
  28.7274990  29.8934059  22.6473007  28.4361172  30.3219128  21.6883545
  28.3470802  28.4042206  22.5741482  28.6081333  27.7559795  23.4106503
  27.2723713  28.2237587  22.5509777  28.9589500  27.6638489  21.3674126
  30.0181808  27.5864487  21.6126423  28.6197071  26.6281853  21.3470001
  28.6649628  28.2385693  19.9562798  27.4998741  28.6393375  19.6163101
  29.6289711  28.2450047  19.1988335  27.7296638  30.4749107  23.6720028
  26.5841255  30.6648407  23.2511005  28.0697689  30.7620411  24.9519062
  29.0528545  30.6662712  25.1627922  27.1279449  31.4211349  25.8409195
  26.1523914  31.4959660  25.3605080  26.9239082  30.5517254  27.0509567
  27.8769970  30.2021275  27.4478245  26.4579010  31.0854416  27.8792629
  26.1414165  29.3248959  26.7552090  24.9362984  29.2447586  26.5315266
  26.8333530  28.1683235  26.8462715  26.3611698  27.2809677  26.7475395
  27.8317757  28.2867069  26.9423981  27.5243645  32.8309937  26.3133450
  26.7069778  33.5332375  26.8778400  28.7178707  33.2802505  25.9141579
  29.3004036  32.5931282  25.4574051  29.1640415  34.6604958  26.2394543
  30.1955624  34.7775993  25.9072647  28.3489246  35.7096863  25.4325523
  27.3637428  35.7190971  25.8988457  28.7020664  36.7369919  25.5221806
  28.1853333  35.3724594  23.9323692  29.1911716  35.4975510  22.9785900
  30.1563416  35.6916313  23.2041512  28.7488613  35.0926170  21.7625656
  29.4048824  35.0154839  20.9081135  27.4801903  34.8861809  21.9153614
  26.8803730  34.6313934  21.1437378  27.0466099  35.0025864  23.2657814
  26.0437794  34.9625473  23.6647034  29.3483200  34.9425354  27.7770138
  28.9949818  36.0331573  28.2309170  29.8118229  33.9263344  28.5456810
  30.0120525  33.0167389  28.1549892  29.9304695  34.0533218  30.0032406
  29.0183563  34.4822769  30.4181423  30.0632191  32.6030807  30.5783825
  31.0811844  32.2191582  30.5115833  29.8456707  32.5308685  32.1079559
  29.8039322  31.5142097  32.4988060  30.7590923  33.0139885  32.4548759
  29.0333557  33.1858330  32.4230232  29.1761017  31.6440868  29.9941235
  28.2860432  31.8484898  30.2901211  31.1130753  34.9281502  30.4309082
  32.1286812  34.9134445  29.8129520  30.9226208  35.7053604  31.5011292
  29.9875565  35.7308846  31.8820515  31.9332047  36.3517113  32.3126640
  32.9196663  36.2318077  31.8647575  31.6211128  37.8373108  32.1878586
  31.6726990  38.1753273  31.1528778  30.5834198  38.0310059  32.4594803
  32.5743027  38.6867294  32.9948158  32.3299408  38.5262489  34.0448799
  33.5744934  38.3595352  32.7108078  32.3438148  40.2401924  32.7729874
  32.3110924  40.4270706  31.6996193  31.4663200  40.6186790  33.2972488
  33.5463524  41.0131569  33.3100624  34.4763260  40.6515388  32.8713341
  33.4079056  42.0644951  33.0578308  33.6499519  40.9281769  34.7516289
  33.8931313  40.0095329  35.0937691  34.4034233  41.5188637  35.0732956
  32.8256760  41.2837334  35.2144966  31.8363552  35.7629509  33.7653236
  30.6997108  35.5011978  34.2131233  32.9256554  35.4740715  34.4730949
  34.2700310  35.7953262  34.0760078  34.4547462  36.6655731  33.4462051
  34.6247826  35.0138550  33.4040298  35.2193718  35.7191544  35.2776451
  35.2373772  36.5677147  35.9615517  36.2284088  35.4298515  34.9839706
  34.4303513  34.6076736  36.0495148  34.6554260  34.6363258  37.1156387
  34.9169426  33.6626205  35.8082542  32.9736176  34.6130524  35.7159500
  32.6097031  33.6200714  35.4520226  32.0330734  35.2108307  36.8443413
  31.4643211  34.4524498  37.6224976  31.8438702  36.5326996  36.9577980
  32.4216766  37.1429710  36.3976135  31.0410271  37.1071663  38.0210190
  31.3615284  36.7281799  38.9914589  31.1927071  38.6111031  38.0012856
  31.0883141  38.9632912  36.9750481  30.4229946  39.1540375  38.5498085
  32.4965401  39.0879707  38.6369247  32.3035927  40.1096420  38.9641266
  32.7104988  38.5125961  39.5376282  33.6888618  38.9924545  37.6332016
  33.5115738  38.8549805  36.4189110  34.8388977  39.2791634  38.0941086
  29.6095829  36.6845665  37.8636055  28.7975540  36.9139671  38.7831802
  29.0711975  36.2546272  36.7264824  29.6797142  36.1671257  35.9251366
  27.7049770  35.7404823  36.5992317  26.8549023  36.2307205  37.0737190
  27.4361858  35.7291985  35.0459061  28.2540016  35.1984901  34.5584335
  26.5428734  35.1730118  34.7617416  27.1388111  37.1794434  34.4680481
  26.9593067  38.1568604  35.2187538  27.0349216  37.2131729  33.1790657
  27.5898342  34.3266525  37.1383705  26.4968643  33.8000069  37.2012901
  28.6394196  33.6328468  37.4893379  29.5320568  34.1052055  37.5027390
  28.6860180  32.2061577  37.8831100  27.8761425  31.7212200  37.3381004
  29.9735851  31.5849724  37.4313393  30.8809280  31.8707962  37.9634399
  29.8374977  30.0886593  37.5780716  28.9991055  29.6895828  37.0071602
  30.7360573  29.5827179  37.2249260  29.5744362  29.8188553  38.6008682
  30.3429527  31.9383106  35.9509926  29.6695671  31.3515396  35.3262138
  30.3119888  33.0130997  35.7721901  31.3221207  31.5007725  35.7563324
  28.4909344  32.0298958  39.4254646  29.3756676  32.3647003  40.2294159
  27.3324375  31.3745327  39.6964493  26.8445911  30.9998779  38.8953629
  26.7198544  31.2088451  41.0485077  26.7210884  32.2095642  41.4805450
  25.3376465  30.6369743  40.9746399  25.3647842  29.7124901  40.3978424
  24.7345829  30.3276978  42.3369331  24.5331936  31.2144814  42.9378967
  23.8397961  29.7278118  42.1708145  25.4482918  29.8068600  42.9752541
  24.3057919  31.5716991  40.2762146  24.4627609  31.3408222  39.2225723
  23.2709999  31.4540939  40.5979004  24.6664505  32.5919762  40.4068642
  27.7146797  30.2099552  41.7709579  28.3119774  30.5921040  42.7773514
  27.8934021  29.0213242  41.1599579  27.3297291  28.9563103  40.3244057
  28.7669716  27.9452763  41.5355949  29.6914444  28.4339886  41.8431816
  28.2987213  27.1535912  42.7930374  28.9855957  26.3513660  43.0627403
  28.2472591  27.8874683  43.5973282  26.8592129  26.6365337  42.5959511
  26.6000671  26.3456783  43.6139641  26.1872883  27.4484882  42.3178329
  26.7358913  25.4021320  41.7246780  27.4229393  24.4192581  41.8703880
  25.7268524  25.3526955  40.9053497  25.7314091  24.6807995  40.1512718
  25.0528584  26.1048508  40.8957443  29.0989151  27.0242290  40.3453255
  28.3756714  27.1565704  39.3217850  30.1152439  26.1658745  40.3775597
  30.6935883  26.1009750  41.2030334  30.3281002  25.0630817  39.3483849
  29.4083500  24.9679966  38.7712212  31.5522785  25.5421066  38.5153694
  31.2488003  26.3955860  37.9090919  32.3663254  25.9112263  39.1392136
  32.0990715  24.4619827  37.5870285  32.4446869  23.6759472  38.2584496
  31.3590260  24.0706291  36.8889771  33.6580734  24.9880905  36.8355980
  33.3960762  26.7177563  36.2472343  34.3450394  27.0679741  35.8411484
  32.5828667  26.9130611  35.5481987  33.2636948  27.3107014  37.1522217
  30.6254311  23.7229538  39.9525528  31.1632423  23.4973640  41.0677834
  30.2599316  22.6749706  39.2045784  29.6773796  22.8518448  38.3986931
  30.5537701  21.2569962  39.4090652  31.3029747  21.1039295  40.1858292
  29.3088551  20.3847656  39.7415771  28.7069397  20.2880898  38.8380013
  29.6939983  19.4217587  40.0768166  28.4118156  20.8516006  40.8818512
  27.9586391  21.8384399  40.7875633  27.2037926  19.9512825  40.9142380
  27.3884964  18.9500122  41.3033905  26.3936520  20.3662052  41.5139160
  26.7279110  19.8005161  39.9452667  29.0321293  20.8951778  42.3302307
  29.8337021  21.6307220  42.3977356  28.2812481  21.1977291  43.0601273
  29.4974060  19.9532089  42.6205940  31.2507515  20.6506004  38.2119026
  30.9669418  21.0560837  37.0954933  32.2015305  19.7339516  38.4501419
  32.3839531  19.3441467  39.3638535  33.0323257  19.0690804  37.4243050
  32.5748711  19.2636566  36.4542656  34.4777603  19.6306267  37.4235611
  34.9368591  19.6045666  38.4118233  35.0135078  18.9999657  36.7140961
  34.5008469  21.0675583  36.8166885  33.6276436  21.6358547  37.1370850
  35.7392998  21.8205223  37.2463875  36.6161041  21.2597008  36.9226723
  35.7692070  22.8473625  36.8819656  35.8742752  21.8692150  38.3269043
  34.4936028  21.0415096  35.3053246  34.1799049  21.9901676  34.8697433
  35.4191017  20.7182369  34.8288269  33.6408272  20.4327946  35.0047531
  33.0242577  17.5570507  37.6912270  32.9618721  17.1846180  38.8418541
  33.1475296  16.6846256  36.6335144  33.1396713  16.9872017  35.6699371
  33.1923866  15.2375326  36.7982597  33.7376213  14.9794416  37.7061195
  31.8171120  14.5863876  36.7754250  32.0174217  13.5674515  37.1067047
  31.2085915  14.9749260  37.5920296  31.0964680  14.5377350  35.5934219
  30.6176872  13.7125692  35.4863205  34.0596657  14.6594677  35.6594696
  34.4080696  15.2765493  34.6550674  34.5298843  13.4115915  35.8676414
  34.2754822  12.8224907  36.6476021  35.1317635  12.6065569  34.7088356
  34.6508598  13.0093660  33.8174477  36.6591492  12.9009695  34.7150841
  37.1366196  12.6158915  35.6525574  37.1962318  12.3116980  33.9718475
  36.8239174  13.9325924  34.4041214  34.8484039  11.1362333  34.9809151
  34.6699028  10.6888704  36.1178207  34.8743820  10.3116713  33.8747215
  35.0527458  10.7486649  32.9817924  34.5072136   8.8755770  33.8742371
  33.6080780   8.8384809  34.4892845  34.1730309   8.3292370  32.4824524
  33.8036346   7.3106103  32.6010017  32.9014816   8.9569731  31.8907547
  32.7589111   8.5808172  30.8777027  31.9793606   8.6956425  32.4098892
  33.0828056  10.0284653  31.8063297  35.1443634   8.4736824  31.5796165
  35.6064339   7.6386433  31.6835480  35.4374504   7.9950581  34.6910706
  36.6105499   8.4266243  34.8161201  35.0353432   6.8035464  35.2458801
  33.7069473   6.1403604  35.1249542  33.8065186   5.3859129  34.3445740
  32.9281845   6.8878903  34.9738655  33.5521927   5.3750782  36.4134140
  32.8292923   4.5604482  36.3698997  33.2085381   5.9697218  37.2598190
  34.9302521   4.9376392  36.6327171  35.0885963   4.0796366  35.9793739
  34.9970703   4.7428951  37.7030945  35.8590813   6.0923152  36.1725311
  36.0790176   6.6713963  37.0694122  37.2199097   5.5486250  35.5880814
  38.1595345   5.2555552  36.2680740  37.2415504   5.4053135  34.2298012
  36.4386940   5.7912250  33.7537842  38.4106598   5.0019202  33.4698906
  38.8594856   4.1283965  33.9427681  37.8555641   4.4806185  32.1458626
  38.7133064   4.0287156  31.6476994  37.1569672   3.6898060  32.4191284
  37.0367355   5.4644666  31.2882671  37.3316841   5.6517105  30.1016560
  36.0254211   5.9945855  31.7861652  39.4490967   6.1958089  33.3873138
  40.5773239   6.0242004  32.8499565  39.0529213   7.3408942  33.8787193
  38.0888710   7.5839972  34.0565147  40.0250740   8.4206667  34.1677094
  40.9341698   8.2633705  33.5872688  39.4808731   9.7681131  33.6085739
  38.5215530   9.9317865  34.0995064  40.1544304  10.6034670  33.7999001
  39.2170525   9.7311115  32.0700150  38.5288353   8.9113789  31.8638630
  38.7312012  11.1116781  31.6443596  37.7287865  11.3364124  32.0087242
  39.4120255  11.9142904  31.9279003  38.5316925  11.1448278  30.5732861
  40.4813690   9.4392872  31.2520638  41.2055206  10.2192144  31.4874592
  40.9266663   8.4484453  31.3417339  40.2917595   9.6414633  30.1978951
  40.3074570   8.4901962  35.6624947  39.4465981   8.1720791  36.3783302
  41.4815903   8.9961205  36.0881424  42.1587296   9.2354546  35.3780022
  41.9817276   8.9231176  37.4643822  41.1822319   9.1945057  38.1537704
  42.4324455   7.4989028  37.7884178  41.6688118   6.7660065  37.5279846
  43.2989655   7.1971450  37.2000389  42.7142868   7.1464963  39.1685524
  41.8792076   7.2561269  40.2898254  41.0136261   7.7723408  40.3560944
  42.5694504   6.8702598  41.3764420  42.2389412   6.9807358  42.3986740
  43.8113136   6.4887033  40.9806442  44.5488472   6.0580282  41.5197754
  43.8673820   6.5401602  39.6156807  44.6997261   6.2532573  38.9901428
  43.1416245   9.9307947  37.6825829  43.4643898  10.1660480  38.8876419
  43.7517128  10.5422802  36.6527748  43.4402962  10.3280334  35.7161751
  44.9954834  11.2531605  36.8016586  45.7633781  10.5697575  37.1641502
  45.5471535  11.7520094  35.4490662  46.5015984  12.2488375  35.6231346
  45.6324921  10.8839960  34.7953300  44.8780937  12.5087490  35.0394135
  44.9450417  12.4420900  37.7034798  45.8734665  12.5450191  38.4751396
  43.8638649  13.2579575  37.5950432  43.1588058  13.0372639  36.9063568
  43.8391991  14.6248960  38.1508369  44.3420639  14.5919876  39.1173477
  44.6953392  15.5642529  37.2162361  45.6249084  15.0508013  36.9705315
  43.8564301  15.7704439  35.9431190  43.6638451  14.8107815  35.4634743
  42.9204254  16.2687130  36.1955643  44.3392754  16.3626652  35.1657906
  45.0339813  16.9411583  37.8442230  44.1358528  17.5019169  38.1031151
  45.5870361  16.8848228  38.7818031  45.5034447  17.5944462  37.1087532
  42.3783379  15.1178665  38.4483757  41.4817276  14.7355070  37.7348251
  42.2086792  15.9986181  39.4605560  43.0177689  16.2468815  40.0117760
  40.9726677  16.8192577  39.6360474  40.1341820  16.1246128  39.6862068
  41.0396576  17.4728355  41.0259895  42.0109138  17.9671669  41.0459328
  40.2216530  18.1910801  40.9703712  40.7710152  16.6788635  42.3158836
  39.4981956  16.1855335  42.6448631  38.6440201  16.5175648  42.0734291
  39.2693787  15.5349312  43.8634949  38.2715263  15.1570501  44.0305443
  40.3016701  15.3398619  44.7149849  40.0954514  14.8951073  45.6773071
  41.6015091  15.7328186  44.3989525  42.4292107  15.5316811  45.0629234
  41.8523064  16.3963928  43.1861343  42.8590508  16.7437172  43.0065918
  40.9087791  17.8420944  38.4492645  41.6986656  18.8036861  38.4207687
  39.8768959  17.8347340  37.5756416  38.7675972  16.9202423  37.5758476
  38.4406967  16.7708168  38.6048813  38.9764481  15.9558840  37.1127129
  37.6731110  17.5098629  36.7712479  37.1876717  18.2033672  37.4579086
  37.0205078  16.7880764  36.2800941  38.5618591  18.3015919  35.7683411
  37.9553070  19.0270386  35.2261963  38.8908730  17.5922966  35.0088997
  39.7046738  18.8535252  36.4935417  40.6212234  18.8670101  35.9037437
  39.5487938  20.3042488  37.0296135  39.9565277  21.2560234  36.3658295
  39.1566811  20.5005016  38.2953453  38.9985962  19.6505489  38.8175430
  39.0288506  21.8673706  38.8446121  38.2665520  22.4816303  38.3653564
  38.4155045  21.6501694  40.2030983  39.1970024  21.2016926  40.8164787
  38.1757851  22.6695366  40.5056343  37.6241455  20.9008579  40.2226715
  40.3608208  22.7398853  38.8470802  40.3414879  23.9974136  38.8121681
  41.5984993  22.1285706  38.8034782  41.5880470  21.1186657  38.7943268
  42.9227982  22.8260670  38.5657425  43.0890083  23.6801071  39.2223167
  44.0603333  21.8115063  38.6153488  43.7648201  20.9285946  38.0485725
  45.0014877  22.2297287  38.2583847  44.1865807  21.2229023  39.9575272
  44.3927422  22.0377750  40.6514893  43.2532272  20.7732010  40.2962303
  45.3339996  20.0753498  40.0797844  44.9067841  19.2009201  39.5889091
  46.2152824  20.4260693  39.5427170  45.8216667  19.7175350  41.4629021
  46.6370697  19.0057220  41.3343086  46.3040848  20.5492458  41.9763527
  44.6902733  19.1700878  42.2242584  43.9166946  19.8193760  42.2341499
  44.5159416  18.2438736  41.8611641  45.0518990  19.1070633  43.1651917
  42.9158211  23.5271702  37.1910286  43.5641556  24.5470657  36.9860916
  42.1990623  23.0884418  36.1776123  41.6783333  22.2509537  36.3956909
  41.8697853  23.7770786  34.9233894  42.8547554  23.9274540  34.4814339
  41.0934639  22.9209709  33.9954948  41.2680206  23.2156277  32.9606934
  41.6365356  21.9832840  34.1134491  40.0537415  22.7540131  34.2769318
  41.1650467  25.1570663  35.0477524  41.2217979  25.9151421  34.0595856
  40.4598427  25.3144779  36.1941299  40.3992004  24.6836090  36.9805298
  39.6224937  26.4421463  36.3312569  39.1699867  26.7552147  35.3903389
  38.4328079  26.1457882  37.3256645  38.8425255  25.8417511  38.2888870
  37.5604820  27.4314232  37.5245552  36.7867584  27.2019634  38.2572250
  38.2338486  28.2245617  37.8495369  37.1302795  27.8676529  36.6230431
  37.5551567  24.9334812  36.8963966  36.8644943  24.7313938  37.7150841
  37.1083488  25.1289387  35.9215813  38.1998672  24.0576649  36.8229523
  40.4090462  27.6587734  36.8260078  40.2752953  28.7470684  36.2384872
  41.4252853  27.5560551  37.6942940  41.4989967  26.7027531  38.2295914
  42.2517395  28.7361069  37.9615211  41.6183395  29.6131077  37.8281708
  42.7576714  28.7961712  39.3907433  43.4758110  29.6124039  39.4691200
  41.8940315  29.0085754  40.0209084  43.5175323  27.4571419  39.7475090
  42.9544563  26.5872173  39.4094505  44.4878197  27.4246864  39.2519379
  43.7510567  27.2360840  41.1967659  44.5745049  27.8931637  41.4765472
  42.8922577  27.5625839  41.7832565  44.0985947  25.8888645  41.5618553
  45.0488548  25.8178558  41.8966103  43.2978745  24.8211803  41.7653465
  42.0789070  24.7259655  41.3138542  41.4756317  23.9281864  41.4542542
  41.6488991  25.5906696  41.0180855  43.7283478  23.7392120  42.3403969
  43.1103325  22.9404182  42.3312988  44.6922188  23.7228470  42.6417198
  43.2334824  29.0151043  36.8526917  43.9590912  29.9953957  36.8115120
  43.2475510  28.2301826  35.7780914  42.5736046  27.4784794  35.7492180
  44.0063286  28.5227394  34.5541496  44.9510269  28.9383106  34.9047928
  44.3285751  27.2378654  33.8378334  44.7475166  26.5892735  34.6072006
  43.3442116  26.8632030  33.5572014  45.1286011  27.2752819  32.4847412
  45.4210167  26.2698936  32.1817818  44.4387207  27.6339588  31.7208500
  46.3873558  28.1222878  32.5867195  46.9631310  28.2229843  33.7005653
  46.8528252  28.5960178  31.5327168  43.3156624  29.5329876  33.5843735
  43.9927063  30.2870483  32.9774590  41.9888840  29.6083946  33.4945564
  41.3919907  28.9706421  34.0016022  41.1609879  30.6362038  32.7088890
  41.5096664  30.6902447  31.6775761  39.6477280  30.2653351  32.5414124
  39.3293228  29.8542538  33.4993935  39.0659447  31.1254444  32.2099724
  39.4955177  29.3388710  31.2787476  40.0827179  29.7518864  30.4585571
  39.8141098  27.9695492  31.6930141  39.4687843  27.3464394  30.8680344
  40.8666458  27.7550964  31.8781757  39.2924461  27.6984100  32.6108665
  37.9377747  29.3637581  30.9383125  37.7115173  28.5289860  30.2749424
  37.2243042  29.4982815  31.7513084  37.7987556  30.2256413  30.2856808
  41.3064041  32.1021118  33.2865181  41.5441132  32.3067665  34.4626236
  41.1527557  33.0933876  32.4172440  41.0821457  32.9054108  31.4274044
  41.3192177  34.5763626  32.7125549  42.2456245  34.7462692  33.2611923
  41.2905846  35.3535728  31.3787079  42.1713333  35.1253433  30.7784595
  40.4486885  34.9635429  30.8067036  41.2416077  36.7645798  31.4390106
  42.0082664  37.1641998  31.8563156  40.2020264  34.9984894  33.5900497
  39.0348282  35.2477417  33.1442146  40.3930511  35.0351944  34.9188385
  41.2020454  34.5965118  35.3349953  39.5081635  35.7027702  35.8443451
  40.2035980  36.2060509  36.5160446  38.8803596  36.4551010  35.3668900
  38.5494461  34.6940804  36.6489143  37.7466240  35.0948944  37.4743195
  38.6539612  33.3939667  36.3104668  39.2228813  33.1967163  35.4995880
  37.8132324  32.2848816  36.7939491  36.8026772  32.6040001  37.0489807
  37.7050591  31.2629147  35.6463165  38.7117653  31.0764828  35.2722969
  37.2618217  30.3484650  36.0405540  36.8637657  31.5820274  34.4871292
  37.0743217  32.5556984  33.5807991  38.0036201  33.1050224  33.5483780
  35.9710655  32.7199898  32.7135086  36.0108566  33.3445129  31.9207363
  34.9485550  31.8878479  33.1134186  33.5826836  31.6809254  32.6980247
  33.1863403  32.2949448  31.9028511  32.7525520  30.6558113  33.2582397
  31.7915745  30.3958797  32.8394814  33.3836975  29.8413506  34.3139610
  32.7790985  29.0391102  34.7105331  34.6422424  30.1720982  34.7890701
  35.0310287  29.5166492  35.5543365  35.4877892  31.1635742  34.2045708
  38.3112717  31.5934448  38.1079941  37.6550980  30.6858654  38.5914650
  39.3116341  32.1141701  38.8519821  39.7584724  32.9498253  38.5025330
  39.9326706  31.5417118  40.0088882  39.9416924  30.4708557  39.8056793
  41.3969383  31.9569626  39.9494553  41.9304657  31.2796707  40.6163368
  41.8656387  31.8834076  38.9681244  41.7604065  33.4198189  40.3781319
  41.3156891  33.6914711  41.3354874  42.8241539  33.5423775  40.5819092
  41.5537262  34.5655975  39.3888741  40.8374863  34.3857841  38.4293518
  42.1504784  35.7285347  39.5809097  41.9074478  36.4744339  38.9447708
  42.6821632  35.8956680  40.4232178  39.1864662  31.7575626  41.3142700
  39.4312134  31.0344830  42.3364601  38.3259201  32.7628975  41.3928871
  38.2107735  33.3621368  40.5880508  37.3623505  32.9034615  42.5256538
  37.8489265  32.5406494  43.4310303  37.0296936  34.4683342  42.8018913
  36.2688904  34.6524315  42.0433502  36.5418282  34.5782776  43.7703972
  38.2111206  35.4093056  42.6718636  39.2599297  35.2977867  43.6194725
  39.1390724  34.5586853  44.3976212  40.3749390  36.1510353  43.5966225
  41.1387978  36.0899200  44.3576698  40.4457664  37.1083984  42.5251007
  41.4163017  38.0464172  42.5343208  41.3250771  38.7670937  41.9067039
  39.4856224  37.1022453  41.4805717  39.6621742  37.7301102  40.6197433
  38.3424149  36.2246628  41.5604591  37.5615997  36.2901878  40.8171997
  36.0324898  32.0636063  42.3994446  35.2662544  32.1128578  43.3637962
  35.8156242  31.4071350  41.3290443  36.3824196  31.5686092  40.5088158
  34.5497742  30.6228027  41.2185440  33.7238808  31.2774811  41.4967575
  34.3275032  30.1629810  39.7329254  35.1051826  29.4498844  39.4594269
  32.9956131  29.4042778  39.6140137  32.2114944  30.0144882  40.0622406
  32.8198586  29.1600704  38.5663643  33.1569061  28.4600639  40.1341553
  34.3020897  31.3140755  38.7342987  35.2535248  31.8436050  38.6845970
  34.0659294  31.0293522  37.7089920  33.5590210  32.0940437  38.9004288
  34.5082016  29.5049191  42.1914864  35.5475769  28.8161125  42.1812973
  33.4753876  29.2446041  42.9606552  32.3878059  30.1454887  43.3062439
  31.5211792  29.9954643  42.6623878  32.7503929  31.1730309  43.3343163
  32.0054474  29.7011337  44.7079086  31.0449219  30.1412926  44.9757767
  32.8066406  30.0629768  45.3523178  32.0845299  28.1741104  44.6283340
  31.2428188  27.7354660  44.0924110  32.3005142  27.6910839  45.5812950
  33.3879433  28.0080700  43.7735558  34.2871132  28.0346947  44.3890877
  33.3483505  26.7706909  42.9264641  32.5970459  26.6477261  41.9508820
  34.0731239  25.6912136  43.2967224  34.7798882  25.8495483  44.0006523
  34.1076508  24.4944363  42.5378075  33.1743431  24.2916107  42.0125465
  35.0761261  24.6731377  41.3526993  34.7310219  25.4917240  40.7210884
  36.5429573  24.9765968  41.6879005  36.6599846  25.8916817  42.2684364
  36.9737549  24.1809101  42.2956810  37.0503387  25.0745716  40.7281799
  34.8373222  23.5460453  40.3483658  33.8011780  23.4360943  40.0283318
  35.3638115  23.8010921  39.4286575  35.1269722  22.5742245  40.7480736
  34.4184189  23.2626362  43.4203415  35.1626778  23.2959270  44.4332390
  33.9099998  22.1004410  43.0048256  33.3293114  22.0203648  42.1823349
  34.2648201  20.7570724  43.5542221  35.3076859  20.7303104  43.8701591
  33.4415054  20.6720390  44.8010101  33.2786674  21.6402836  45.2744026
  32.0566483  20.0285015  44.8766441  32.1501160  18.9541931  44.7178268
  31.6650429  20.2022400  45.8789215  31.4058323  20.5018311  44.1414604
  34.2608604  20.0180454  45.6773300  34.2232971  19.0634022  45.5832634
  34.0405769  19.6683559  42.4987564  33.2438812  19.8599358  41.5681915
  34.7096405  18.5398121  42.6437836  35.2535172  18.4003735  43.4833412
  34.7609329  17.4278908  41.6225052  34.3621597  17.7648354  40.6656570
  36.2273712  17.0003223  41.4240875  36.4513168  16.5365410  42.3847389
  36.3208275  16.1740246  40.7193871  37.2760048  18.4022465  40.9372673
  37.2659569  19.1276398  42.0591393  33.8988686  16.2759342  42.0968628
  34.3474388  15.2941160  42.7576027  32.6609154  16.1630154  41.6627083
  32.3966713  16.8880672  41.0111122  31.8083572  15.0135975  41.9903030
  31.9790649  14.9088287  43.0617447  30.3925018  15.4748211  41.6842537
  29.7241058  14.7193117  42.0972328  30.2396679  16.4268322  42.1926003
  30.0421696  15.6298380  40.1724892  30.9337215  16.1038456  39.7619324
  29.9065666  14.7020292  39.6167183  28.6324024  16.7270012  39.8277245
  28.9427071  16.9703178  38.0084801  27.9282017  17.1944447  37.6788673
  29.5903702  17.8426018  37.9204102  29.3888817  16.0509377  37.6293068
  32.1914406  13.7272806  41.1852036  32.6913071  13.7262373  40.0328941
  31.7923164  12.5781813  41.7001839  31.5066147  12.5368614  42.6680527
  31.9596519  11.2693176  40.9893951  32.8561401  11.2382298  40.3701706
  32.0085831  10.1090088  42.0169144  32.9429359  10.2041979  42.5701027
  31.1389542  10.1587782  42.6721764  32.0774384   8.6639194  41.4742889
  31.9602051   7.9708743  42.3073807  31.2607288   8.4792500  40.7764435
  33.4168777   8.2996998  40.8499908  34.4534264   8.7387838  41.3072052
  33.5097389   7.5620513  39.7816696  32.7049141   7.0618258  39.4321938
  34.4442749   7.2680497  39.5360947  30.7246799  11.0874329  39.9899406
  29.5958977  10.8543558  40.3914757  31.1201019  10.8312101  38.7343254
  32.1166077  10.8758698  38.5759239  30.3775635  10.3399639  37.6396446
  29.5141830  11.0033865  37.5891075  31.2958107  10.5369711  36.4554443
  31.6310406  11.5715799  36.3825874  32.2056351   9.9945021  36.7124367
  30.6612167  10.0925989  35.1055984  31.5901413  10.0076408  34.5416946
  30.3204918   9.0620937  35.0052757  29.7615337  11.1246529  34.3945770
  29.5593777  12.2895498  34.8804741  29.2179565  10.7939186  33.3165665
  29.9715405   8.8719912  37.8229904  30.8444614   8.1041727  38.0976868
  28.7112007   8.4969482  37.6636620  28.0351048   9.1523447  37.2983551
  28.2124310   7.1398921  37.8696136  28.7453995   6.8132138  38.7625427
  26.6981125   6.9448967  38.2720604  26.4650612   5.9960818  38.7553177
  26.4243755   7.7530198  38.9503708  25.7728119   7.2673197  37.0548592
  26.0571232   8.2370415  36.6463165  25.8197517   6.5317464  36.2518425
  24.0690155   7.4929714  37.5653648  23.6143055   5.7174668  37.8616638
  23.8850346   5.4465771  38.8821716  22.5636597   5.4770031  37.6991158
  24.1761684   5.1198521  37.1438446  28.6347599   6.1814666  36.7834320
  28.4483395   6.4028220  35.5639343  29.0505238   5.0112844  37.1798058
  29.0543137   4.8135457  38.1702576  29.5936832   4.0161047  36.2810135
  30.1836224   4.6081700  35.5813484  30.3599834   2.9440057  37.0855331
  31.1457005   3.4336274  37.6608772  29.6523094   2.3604991  37.6744499
  31.1519127   2.0096102  36.0900078  31.2114716   2.3500569  34.9026489
  31.7698612   1.0567865  36.5459061  28.4419937   3.2989359  35.5934219
  27.4569054   2.9710488  36.2936401  28.4706955   3.2304702  34.2253456
  29.2807045   3.4039738  33.6475182  27.3380489   2.5890970  33.5887184
  26.8236504   2.0192904  34.3625526  26.3502464   3.6261392  32.9183769
  26.9530621   4.5023980  32.6798706  25.6035519   3.2124205  31.6963501
  26.2292271   2.9053574  30.8582954  24.7874374   2.5253627  31.9199772
  25.1111450   4.1079893  31.3173981  25.3032951   4.1052141  34.0010643
  25.6085892   4.7918220  34.7906609  24.6134300   4.7594399  33.4679832
  24.6368904   3.2896523  34.2819099  27.9101830   1.6590699  32.5112724
  28.8789291   1.9455413  31.8247719  27.2798042   0.4890547  32.4392090
  26.5973740   0.2172566  33.1324043  27.5336571  -0.5433110  31.3744698
  28.5734024  -0.8221087  31.5456505  26.7023563  -1.7575470  31.6750374
  26.9409771  -2.0420954  32.6998291  25.1302586  -1.6262327  31.3988342
  24.8708019  -0.6551359  31.8204403  24.8756771  -1.7544513  30.3467674
  24.6385288  -2.2933183  32.1068649  27.2060108  -2.7876456  30.8419247
  26.6939201  -3.5645792  31.0780125  27.3060455  -0.0124911  29.9048595
  26.2195644   0.5147568  29.5761318  28.3495579  -0.0910877  29.0886078
  29.1729412  -0.5727532  29.4204769  28.3694363   0.4101621  27.7630062
  29.3424664   0.1774801  27.3303738  27.5356464   0.1495373  27.1111107
  28.1839676   1.9832680  27.8515339  27.7566738   2.6333435  26.8790703
  28.6439781   2.5660217  28.9383907  28.8410397   1.9880009  29.7428532
  28.6478767   4.0164738  29.1199017  27.6975994   4.4653201  28.8307457
  28.9502621   4.2988849  30.1283188  29.8076801   4.6113610  28.1998158
  30.7996407   3.9648249  27.8250523  29.7300320   5.9014225  27.9032612
  28.8355179   6.3164763  28.1216068  30.7277317   6.5590768  27.0929165
  30.8531628   5.7593226  26.3630047  30.1866741   7.9066129  26.5717545
  29.1693516   7.6723013  26.2583027  30.2218094   8.4658737  27.5066853
  31.0011330   8.5245762  25.4640369  31.6813202   7.8856020  24.9008675
  30.1218643   9.0971117  24.4138203  30.6536903   9.3865089  23.5074520
  29.4828339   8.2700615  24.1044216  29.5885506   9.9879942  24.7454948
  31.8935528   9.6310825  25.9010029  32.6372185   9.1651983  26.5475407
  32.4210396  10.0315046  25.0352535  31.3612995  10.5023232  26.2827625
  32.0981903   6.6677136  27.7362995  32.2432861   6.9898362  28.9145145
  33.1561089   6.4050903  27.0028477  32.9506645   5.9511561  26.1243038
  34.5801811   6.3094192  27.4249763  34.6042480   6.1676741  28.5054531
  35.2947388   5.1359634  26.6607933  34.9817848   5.1330652  25.6166859
  36.3450890   5.3392105  26.4520836  35.1231041   3.6755631  27.1590710
  34.0802612   3.4061232  26.9918003  35.7841682   3.0535297  26.5556068
  35.4358978   3.3512702  28.6306953  36.5215530   3.4172316  28.7021351
  35.0202942   4.0646262  29.3423786  35.0096130   1.9694853  28.9626579
  34.6842842   2.0473819  30.0000591  34.2867279   1.5782919  28.2467632
  36.1821480   0.9834592  28.8892517  36.4024849   0.6823158  27.9507065
  37.0062714   1.3377278  29.3533821  35.9283600   0.1219656  29.3513336
  35.4535599   7.5981884  27.3324604  35.2995110   8.3785801  26.3669338
  36.3535042   7.7716217  28.3038559  36.4097252   7.0099287  28.9647369
  37.3575897   8.9141960  28.5019493  37.7474480   8.6284075  29.4789066
  38.5844154   8.7604933  27.5968685  38.2189407   8.6318741  26.5780525
  39.1305618   9.6862116  27.7781773  39.4264717   7.5212030  27.9468918
  39.8214340   7.6627755  28.9529057  38.8193436   6.6176405  28.0022774
  40.6135788   7.3680782  26.9734650  40.3470802   7.5967398  25.9415760
  41.3239975   8.1412573  27.2660542  41.2373238   5.9737272  27.1506939
  41.7328415   5.9792600  28.1215382  40.3679314   5.3196630  27.0839310
  42.1639709   5.5732703  26.0333214  42.8276291   6.3198943  25.8842812
  42.6069756   4.7394662  26.3919582  41.6507111   5.5252185  25.1647854
  36.7100143  10.2709408  28.7335835  37.3330917  11.2520103  28.3749180
  35.5417404  10.4071512  29.3087959  35.0784073   9.6265545  29.7516155
  34.7415314  11.6983042  29.2598934  35.0352249  12.3316832  28.4228287
  33.2385139  11.3994093  29.1573601  33.0646515  10.6221333  28.4132385
  33.0337982  11.0388889  30.1654358  32.2089920  12.8115082  28.7896156
  31.6739750  12.8084993  30.0138073  35.0860748  12.6084738  30.4802761
  35.1623917  12.0729456  31.6121521  35.0391006  13.9155712  30.2808666
  35.1055107  14.2431355  29.3277721  34.9783401  14.9212875  31.3576870
  35.0387154  14.4060440  32.3163223  36.1674957  15.8889971  31.2048702
  36.0563087  16.2649212  30.1878071  36.2402802  17.0716438  32.2356339
  36.2766457  16.7728252  33.2832451  37.0247231  17.7573414  31.9153767
  35.3568153  17.6720276  32.0185318  37.5399628  15.1012554  31.1811581
  37.8581810  14.9548759  32.2133446  37.4151955  14.1118793  30.7410812
  38.5758629  15.7700777  30.2646370  39.4968262  15.1900043  30.3233471
  38.2636681  15.7444658  29.2206173  38.5883789  16.8183861  30.5629692
  33.7105675  15.7371330  31.2248402  33.4370499  16.0226517  30.0682869
  32.9099884  16.0207901  32.2850151  33.1397820  15.6455421  33.1941261
  31.7211132  16.8973198  32.1440697  31.7774391  17.2028370  31.0992794
  30.4618969  16.0280514  32.1924286  30.3667526  15.5417986  33.1633110
  29.6167030  16.6597977  31.9192238  30.3865089  14.9628477  31.1030579
  30.7734680  15.4151468  30.1899357  31.0584068  14.1257048  31.2923908
  28.9843063  14.5250320  30.7311916  28.2490292  15.3294964  30.7137184
  29.0798569  14.2281141  29.6867733  28.5005112  13.4312048  31.5123272
  29.1682281  12.6993093  31.7087517  27.3817978  13.4303112  32.1581078
  26.3993416  14.2465611  31.8967991  25.5489922  14.2608204  32.4416008
  26.4283733  14.7330036  31.0121346  27.1197338  12.6213388  33.0889473
  26.1607609  12.4829178  33.3741074  27.8340950  11.9146137  33.1905670
  31.6696510  18.1525993  33.0316086  32.3803253  18.2652035  33.9891701
  30.8940086  19.1555786  32.6186333  30.2917900  18.9594078  31.8318996
  30.6635075  20.3350163  33.4420547  31.1683273  20.2704506  34.4059486
  31.3529987  21.6079884  32.8670120  32.3932304  21.2857628  32.8202591
  30.9143238  22.1576405  31.5728588  29.9731197  22.7049522  31.6246986
  31.7628479  22.7599163  31.2482414  30.7464638  21.3391495  30.8728638
  31.2497387  22.8598080  33.8289528  31.7403469  22.6852703  34.7865257
  31.7543106  23.7267208  33.4023743  30.2195702  23.1957035  33.9473991
  29.1865005  20.5020580  33.8165321  28.2284622  20.1267071  33.0991936
  28.8205948  21.1928043  34.9247284  29.4711914  21.5863686  35.5895081
  27.4391022  21.5985622  35.2426491  26.9003849  21.9181442  34.3505936
  26.7395344  20.4250584  35.9983482  26.4355488  19.6542206  35.2901802
  27.5169239  20.0427494  36.6598663  25.4604683  20.7074566  36.7766762
  25.3171444  19.8185711  37.3910370  25.6581059  21.5275917  37.4669075
  23.9098186  21.0430584  36.0059967  24.0718479  22.8228035  35.7469826
  24.3964825  23.3307705  36.6551056  24.7672939  22.9729519  34.9212036
  23.1148281  23.2368317  35.4295044  27.5828152  22.8151340  36.2225952
  28.1565971  22.7354698  37.3319473  27.1673203  23.9882355  35.7097092
  26.8449059  24.0970554  34.7587585  27.1622181  25.2350254  36.4981079
  27.1202908  25.0709877  37.5748787  28.3909721  26.0784340  36.1273575
  28.6500130  26.7237511  36.9667397  29.2536488  25.4144211  36.0728188
  28.4686203  26.7926426  34.7316780  28.2159042  26.0448494  33.9799843
  27.6642818  27.5281811  34.7428055  30.0117130  27.5567760  34.3364334
  29.7792664  27.8974819  32.6659584  30.6424656  28.5349579  32.4745903
  29.8481827  26.9581871  32.1172523  28.8726254  28.4805965  32.5044708
  25.9010811  26.0263348  36.2764664  25.2567558  25.8679581  35.2471924
  25.6395168  26.9148102  37.1988182  26.1904831  26.9398518  38.0449333
  24.4682026  27.7489758  37.1980896  23.9026260  27.5371609  36.2906990
  23.4382133  27.5642529  38.4605522  22.6842022  28.3512135  38.4766769
  22.6680641  26.2228642  38.3438454  22.0907364  26.2421780  37.4194946
  23.3865891  25.4087734  38.2485619  21.9503441  26.0313683  39.1415367
  24.1705456  27.5379887  39.6544151  23.5952244  27.1822014  40.3356056
  24.9950008  29.1939068  37.0656929  25.9600201  29.6266060  37.7349167
  24.3017559  30.0135574  36.1976662  23.5258274  29.5827351  35.7155571
  24.7867031  31.3093548  35.7831764  25.4452343  31.7474003  36.5332108
  25.6070366  31.1575966  34.4647827  24.9183235  30.9118919  33.6564484
  26.2050152  32.4896355  34.0745926  26.8245049  32.8521614  34.8948936
  26.6849747  32.4173431  33.0986252  25.4404335  33.2590942  33.9676056
  26.7517719  30.1537247  34.2695923  26.3511505  29.1564713  34.4515152
  27.3835087  30.1959953  33.3823357  27.4618340  30.2208729  35.0938492
  23.6091461  32.1846085  35.4426155  22.6696796  31.7034950  34.7945518
  23.6159039  33.4411278  35.8507309  24.3811092  33.6454964  36.4774666
  22.6683388  34.4866219  35.4206810  21.6720867  34.0905647  35.6174736
  22.7534828  35.8708878  36.2044563  21.9216213  36.5285950  35.9524155
  22.6090336  35.6341438  37.2585907  24.0489407  36.6490326  36.0614891
  24.8411751  36.1491203  36.6187630  24.3330746  36.8604965  35.0306358
  23.8551464  38.0193214  36.7202492  22.8719921  38.2631721  37.4178429
  24.6902180  38.9910469  36.3674965  24.8159027  39.8315811  36.9132195
  25.5256157  38.6657562  35.9023094  22.7008419  34.7507591  33.9884834
  23.6806469  35.0693092  33.3514023  21.5084438  34.5920219  33.3701859
  20.6594582  34.3760185  33.8728447  21.3673534  34.8607025  31.9277287
  21.8751965  35.8096809  31.7555656  21.9788589  33.8423424  31.0273724
  23.0644798  33.7796822  31.1022072  21.5176201  32.3773766  31.2226696
  21.6397610  32.0966377  32.2687912  20.4565010  32.2736206  30.9960442
  22.1466198  31.7050819  30.6391640  21.8245831  34.1571655  29.6768646
  22.6194057  34.0526237  29.1487293  19.9346008  35.0280609  31.6214638
  19.0378590  34.2947350  32.1010742  19.6063290  36.0935936  30.8968906
  20.3638229  36.7123260  30.6449585  18.2250252  36.4191360  30.4609470
  17.5414963  36.1170235  31.2544327  18.1326046  37.9330940  30.3165607
  17.1013966  38.0695038  29.9908199  18.4326820  38.3460426  31.2796421
  19.1689167  38.3993607  29.2653580  19.5862255  39.5853806  29.2921047
  19.4597244  37.6444511  28.2963295  17.8242779  35.5294228  29.2419014
  16.6923676  35.6952744  28.7919655  18.7807465  34.6202927  28.8383312
  19.6548634  34.6737976  29.3414783  18.5563831  33.6507454  27.7927856
  18.0666199  34.1872101  26.9801140  19.8800983  33.1645393  27.1136608
  20.5228291  32.7152252  27.8707027  19.6704597  32.0955238  26.0778923
  20.5869389  31.7846909  25.5763474  19.2331505  31.2067699  26.5328388
  19.0277996  32.4811401  25.2864380  20.5865002  34.3774376  26.4913883
  20.8585644  35.1161995  27.2452545  21.4908409  34.0567551  25.9742470
  19.9464760  34.9840355  25.8506756  17.6286182  32.5662460  28.3487339
  17.9536018  31.8244457  29.2790775  16.4604702  32.3034897  27.7202435
  15.9545174  32.9431839  26.4906921  16.6281509  32.8979874  25.6349621
  15.7305174  33.9940147  26.6742096  14.6754389  32.2806473  26.1012135
  15.0413494  31.6111431  25.3227692  14.0034704  33.0471420  25.7151489
  14.1784000  31.5270691  27.3373432  13.6951084  30.5721874  27.1306286
  13.6061449  32.2769165  27.8835640  15.4873686  31.3232975  28.1325970
  15.2594776  31.5235310  29.1795311  16.0676613  29.8967438  27.9142857
  16.9620533  29.6977596  27.0670738  15.5772009  28.9397335  28.7428589
  14.8913031  29.3006840  29.3904381  16.1903515  27.6504631  28.9512348
  17.0447578  27.7683296  29.6177177  15.1692200  26.8193836  29.7944336
  15.0616627  27.3214092  30.7559452  14.1960487  26.9537334  29.3222179
  15.4191647  25.3025951  30.1371632  15.4261379  24.8416405  29.1494484
  16.3715706  25.2932644  30.6671963  14.3038092  24.7193184  31.0161495
  13.2439842  24.2524872  30.6491108  14.5110254  24.8148365  32.3127823
  15.3431883  25.3224831  32.5771866  13.7713270  24.6603870  32.9829254
  16.5944099  26.9433746  27.7002907  17.7126503  26.5367107  27.5993099
  15.6550455  26.7014198  26.7634144  14.7262592  27.0229721  26.9959259
  15.8504887  26.0711136  25.4323196  16.3084984  25.0954685  25.5949631
  14.5396338  25.7405376  24.7791595  14.8344297  25.0363770  24.0011158
  13.9051666  25.1409340  25.4318676  13.6390200  26.9011364  24.3390160
  12.7724667  26.5659981  23.5469456  13.7441082  28.0708790  24.7627869
  16.8280602  26.8150368  24.5093174  17.4725609  26.1045799  23.7482796
  17.0080662  28.1264973  24.6549606  16.4138908  28.6098480  25.3133125
  18.0476303  28.9125557  23.8798256  18.0391121  28.4291935  22.9028950
  17.4479408  30.3458767  23.6916618  17.2790070  30.7341290  24.6960621
  18.1243916  30.8915997  23.0338535  16.0890903  30.3976288  22.9884949
  15.2974310  30.1065807  23.6789074  15.9158573  31.4509983  22.7682476
  15.9843998  29.5238266  21.7963276  16.7225304  29.6759090  20.8365612
  15.0216436  28.6065788  21.6848907  14.2641611  28.6570644  22.3510532
  14.9475136  28.3217583  20.7187214  19.4723511  28.8816910  24.4991341
  20.3765068  29.2339153  23.8018227  19.7147808  28.4312458  25.7227116
  18.9657345  27.9786739  26.2269039  21.0735874  28.0400715  26.1738853
  21.7224045  28.9128666  26.2471447  20.9436760  27.5525265  27.6226540
  20.3582973  26.6330967  27.6138058  22.2006912  27.0732193  28.3373337
  21.8464088  26.7536526  29.3173656  22.5845146  26.1436272  27.9170494
  22.9941654  27.8205528  28.3396416  20.1334267  28.5028877  28.5568237
  19.1130562  28.6453800  28.2009525  20.0529213  28.1095314  29.5701790
  20.8772335  29.8401165  28.7112846  21.6699467  29.8114986  29.4588718
  21.4352760  30.2505856  27.8697357  20.0724888  30.5186558  28.9942665
  21.7536964  26.8569813  25.4535160  21.1429214  25.8319588  25.1620216
  23.0842609  26.9376755  25.3082886  23.4678974  27.8362598  25.5641575
  23.9124527  25.9489918  24.5209427  23.2012806  25.1864033  24.2034645
  24.6985989  26.6647453  23.3802948  25.3631916  27.4147224  23.8091927
  25.3132858  25.8193226  23.0712318  23.8108444  27.2246532  22.3044224
  23.1567078  26.4436703  21.9167709  23.1349812  27.9875736  22.6907654
  24.5345383  27.8114605  21.1294727  25.2674694  28.5456524  21.4639530
  25.0966816  26.9571648  20.7522831  23.5482159  28.3288021  20.0970802
  22.6624546  28.6875420  20.4239349  23.7059307  28.3211651  18.7979202
  24.8890591  28.1350384  18.1831264  25.0228844  28.2615967  17.1900597
  25.6292973  27.9502945  18.8449554  22.7598057  28.6188469  18.0044842
  21.8537350  28.8181038  18.4037743  23.0015945  28.7249928  17.0296154
  24.8944168  25.1343307  25.3009434  25.7151680  25.7351208  25.9940891
  24.8173332  23.7855377  25.3091278  24.1668205  23.3628082  24.6624184
  25.5784359  22.8648701  26.1509018  26.1812859  23.3565693  26.9143848
  24.6444168  21.9527283  26.8589039  24.1757984  21.4311333  26.0243759
  25.1310215  21.1767464  27.4498081  23.5353107  22.5354557  27.7699757
  23.5530663  22.8906250  29.0766354  22.2905254  23.3266697  29.3735714
  21.9685097  23.7088337  30.3309917  21.5451336  23.3966484  28.2534618
  20.5967236  23.7321701  28.1637726  22.2539330  22.7432404  27.2690983
  21.8244534  22.4195061  26.3325405  26.5700703  22.1839867  25.1416264
  26.1988907  21.7153835  24.0673008  27.8354797  22.4440231  25.4099751
  28.0368023  22.9983044  26.2299404  28.9335079  22.2768307  24.4543781
  28.5851955  22.3404198  23.4234867  30.0600605  23.2638741  24.6964340
  30.5765285  23.1591263  25.6505775  31.2791500  23.0763912  23.7387657
  32.1258736  23.7189064  23.9802933  31.7102680  22.0795250  23.8309307
  30.9098320  23.2127438  22.7223415  29.5406017  24.7287712  24.5932293
  28.9152336  24.7208977  23.7005081  28.8373375  24.9358826  25.3998451
  30.3515930  25.4566975  24.5705070  29.5408459  20.8361187  24.5030804
  30.0451355  20.3753033  25.5738831  29.3372765  20.1250114  23.3593788
  28.8001118  20.5251904  22.6034565  29.7319069  18.7096958  23.2290268
  30.1538830  18.2504578  24.1229725  28.5359459  17.8386822  22.8835278
  28.2012196  18.1417389  21.8914509  29.0521469  16.8791676  22.8524284
  27.3635445  17.7352619  23.8121624  27.2556057  16.6426907  24.7407112
  28.0217991  15.8869390  24.8312397  26.2503204  16.6660423  25.7315960
  26.2276363  15.8923864  26.4848213  25.2675896  17.7154179  25.6476326
  24.4136524  17.7278576  26.6775475  24.3828239  16.8833733  27.1330662
  25.3119049  18.7694130  24.7213783  24.5766754  19.5600319  24.6937943
  26.4311886  18.7729397  23.7799854  26.4767704  19.5525417  23.0339642
  30.8378296  18.6058331  22.1880970  30.6422100  19.1056900  21.0654221
  32.0043793  18.1433067  22.5442619  32.0651588  17.7281857  23.4629993
  33.2241592  18.0631943  21.7469025  32.9955826  18.2939739  20.7064266
  34.1883621  19.0680103  22.3317928  34.5906982  18.6734695  23.2648335
  35.0336914  19.1537018  21.6490154  33.6631508  20.5368786  22.2728214
  32.5875282  20.6094780  22.4336529  34.3675728  21.3716030  23.3067570
  34.2264023  20.9694614  24.3099766  35.4478645  21.3544197  23.1626358
  33.9703293  22.3843632  23.2388210  34.0069237  21.2782936  20.9580002
  33.6774597  22.3170681  20.9358063  35.0756264  21.2233124  20.7507439
  33.5492401  20.7570171  20.1172295  33.8944435  16.7416115  21.6339188
  33.5119972  15.9221678  22.4090061  34.8989029  16.4905357  20.8229713
  35.1166191  17.2156639  20.1544743  35.6947098  15.2914391  20.7776699
  36.3361664  15.4078617  19.9041252  36.6312027  15.1263084  22.0593739
  35.9572334  14.7481995  22.8280754  37.4009094  14.3660784  21.9263172
  37.3694420  16.4082890  22.5558071  36.6760750  17.2491264  22.5373878
  37.7155876  16.2983456  23.5835209  38.4768600  16.7994194  21.5809536
  38.7734261  15.9881573  20.6816406  39.0621529  17.9174881  21.7475662
  34.7515602  14.0741453  20.5386600  33.7533379  14.1530371  19.8362827
  35.0931320  12.9086256  21.1054096  35.8837013  12.8687735  21.7327137
  34.2278824  11.6443920  20.9755287  33.9715500  11.6611109  19.9162312
  35.0314903  10.4181623  21.4802685  35.8468475  10.6864710  22.1520596
  34.2787094   9.8304396  22.0056286  35.5583038   9.6406517  20.3089905
  36.0056915   8.7717972  20.7917290  34.7548943   9.3330507  19.6396503
  36.6516151  10.3300066  19.4593525  36.8715744   9.6358681  18.6482487
  36.1667824  11.1999369  19.0163383  37.9333496  10.5194521  20.3159580
  37.7543030  11.2495327  21.1052799  38.2623901   9.5723019  20.7434349
  39.0561562  11.0409021  19.4546795  39.4282608  10.4379349  18.7349091
  38.8316193  11.9513683  19.0795269  39.8997383  11.2013960  19.9863873
  32.8317947  11.8456640  21.7520103  31.8734989  11.2814827  21.3310699
  32.7814865  12.7242632  22.7299156  33.6222191  13.1968193  23.0298405
  31.5445919  13.0998659  23.4398823  31.0604515  12.2696915  23.9541969
  31.9076767  14.0999804  24.6090813  30.9618683  14.3970814  25.0621567
  32.5814400  13.6125231  25.3137302  32.1510048  15.1054745  24.2657547
  30.4399014  13.6829844  22.5359631  29.3987827  13.9650555  23.1163921
  30.5411434  13.8948841  21.2560978  31.4297619  13.7927675  20.7870235
  29.4544716  14.5686426  20.5419655  29.1818371  15.4527025  21.1183414
  29.9603825  14.8868675  19.1693077  29.1381741  15.1645174  18.5097733
  30.9134979  16.0416775  19.4210339  31.1991310  16.4873199  18.4681911
  30.4553719  16.8467979  19.9954948  31.8053360  15.7690029  19.9852810
  30.7322807  13.7233181  18.4345150  30.7940521  13.9025164  17.3611221
  31.7588120  13.5860367  18.7743473  30.1751289  12.7878857  18.4859161
  28.1531372  13.7057772  20.3107014  27.1282349  14.2647114  19.9254074
  28.2876873  12.3822088  20.5259418  29.1951675  11.9851112  20.7231560
  27.1217213  11.4496727  20.4363632  26.6363297  11.5783072  19.4689178
  27.6213684   9.9987555  20.4871826  26.8064785   9.2820473  20.3852844
  28.4843712   9.7969112  19.2394962  28.5530701   8.7400990  18.9815578
  27.9891663  10.3045521  18.4117432  29.4834118  10.1766701  19.4535027
  28.3902321   9.7046547  21.7923660  27.7159920   9.8484077  22.6366558
  28.7162018   8.6743650  21.6497211  29.2055378  10.4192657  21.9051476
  26.0339775  11.6802473  21.4816227  24.8974819  11.2200155  21.2252712
  26.3139896  12.3886919  22.5563049  27.3052959  12.5771923  22.5129242
  25.4594650  12.7619076  23.7250099  24.8148022  11.9246063  23.9922848
  26.3710632  13.2396603  24.9225788  27.0255413  14.0541000  24.6120205
  25.7727394  13.5427036  25.7818108  27.3102169  12.0880203  25.3636990
  28.0042763  12.0572891  24.5237961  28.2659740  12.4958220  26.4554348
  27.7392426  12.9864788  27.2739143  28.7703457  11.6591635  26.9388733
  28.9304218  13.2573414  26.0471420  26.6521702  10.7110567  25.6747818
  25.8445015  10.4501438  24.9908924  27.4220772   9.9419689  25.7368240
  26.2676163  10.7557850  26.6937103  24.5665855  14.0225086  23.4480686
  23.6896267  14.2678518  24.2271404  24.7512321  14.7878466  22.3976669
  25.3278942  14.3707743  21.6810017  23.9806004  15.9964542  22.0456944
  24.2372761  16.8099766  22.7242203  24.3623848  16.4637299  20.6189137
  24.5143738  15.6408367  19.9204540  23.5910091  17.1160259  20.2095356
  25.5475121  17.4280128  20.5153008  25.3166008  18.2896595  21.1416759
  26.4319839  16.9102364  20.8864059  25.9037418  17.8058720  19.0720901
  26.8200550  18.3778343  19.2181511  26.1908474  16.9910717  18.4074306
  24.8363304  18.6736965  18.5051994  23.8754768  18.3853226  18.3881531
  24.9407063  19.8325748  17.8999386  25.9772949  20.3728657  17.3379765
  26.8340015  19.8400173  17.3852863  25.8808327  21.2409191  16.8307514
  23.9061184  20.5751839  17.7714252  23.1243362  20.2172298  18.3013191
  23.9789429  21.4650574  17.2992783  22.4203892  15.7617693  21.9965973
  22.0185699  14.7117968  21.4640408  21.5959797  16.7376919  22.4416428
  22.0362701  17.9702568  23.1104183  22.4437370  18.6967850  22.4074059
  22.7111320  17.6438847  23.9017143  20.7765255  18.5714016  23.6929016
  20.3360271  19.2862129  22.9978428  21.0572586  18.9284191  24.6837730
  19.8713493  17.4183865  23.8225403  18.8231544  17.7162609  23.8481808
  20.1464691  16.8490868  24.7104130  20.1344795  16.5340481  22.6320000
  20.0391178  15.4807301  22.8956776  19.3045254  16.9444275  21.3385792
  18.4039497  16.2137012  20.9461346  19.5537910  18.1312122  20.7684212
  20.3417168  18.6135483  21.1766167  19.0330925  18.6089363  19.5026321
  19.2736092  19.6698017  19.4332218  19.7667236  18.1011047  18.2561283
  19.4860725  17.0515099  18.1684380  19.3714104  18.6670132  17.4125786
  21.2832222  18.3842106  18.4043369  21.6045418  19.4734440  18.9053993
  22.1123295  17.5888309  17.8979111  17.4661713  18.4528027  19.4803505
  16.9409389  17.7184067  18.6611099  16.8026066  19.0732880  20.4051571
  17.3245621  19.7608719  20.9294567  15.4077215  18.8797379  20.8925667
  15.1470079  17.8280582  21.0112991  15.1140471  19.3901558  22.3165607
  15.1426773  20.4797783  22.3143845  14.1108465  19.0301170  22.5447330
  16.1001606  18.7957687  23.3171711  17.0949802  18.9502048  22.8993378
  16.1427765  19.6417656  24.5894070  16.9084682  19.1784477  25.2116127
  16.3845234  20.6736851  24.3348484  15.1569853  19.6079865  25.0532761
  15.8792973  17.3066597  23.4789257  16.4526539  16.8867130  24.3053684
  16.1173820  16.7616997  22.5654488  14.8344202  17.0167160  23.5896339
  14.4658184  19.4770679  19.8782940  14.7645693  20.4271145  19.2211437
  13.3242340  18.8368168  19.7921448  13.2001143  18.0415096  20.4022121
  12.1917076  19.3350315  19.0676842  12.4130478  20.3470554  18.7286930
  11.9946489  18.3621635  17.8590927  12.7743359  18.4519501  17.1027012
  11.9922686  17.3208752  18.1812973  10.7402754  18.7270164  17.2237759
  10.7860985  18.5307598  16.2851677  10.9771709  19.4107933  19.8880539
  10.7119780  18.6010151  20.8225784  10.1863127  20.4620628  19.5904942
  10.4657354  21.0272484  18.8014526   8.8446016  20.6010227  20.1059933
   8.7787132  20.3519173  21.1651001   8.4454412  22.1437988  20.0363865
   8.5191469  22.4986687  19.0084095   7.3814335  22.2587490  20.2432060
   9.1973743  23.0220127  20.9456196  10.2632036  22.9730053  20.7226715
   8.8136692  24.4944630  20.6111603   8.9983788  24.5944614  19.5415878
   9.3113346  25.3140106  21.1295910   7.7570024  24.6554260  20.8248348
   8.9860554  22.7198353  22.4199409   9.1980581  23.5894184  23.0420189
   7.9831791  22.3631516  22.6547089   9.6698198  21.9042988  22.6554737
   7.8023787  19.7567902  19.3962669   7.0186110  19.0627823  20.0625324
   7.9588609  19.4910851  18.1232185   8.6960888  19.9781036  17.6339264
   7.2853165  18.3634663  17.4181309   6.1966319  18.4163532  17.4098530
   7.8117085  18.3934383  15.9570398   8.7726221  17.8938732  15.8337927
   6.8557796  17.8807831  14.9348135   6.0772586  18.5455627  14.5605574
   7.4250360  17.6547718  14.0331669   6.4760833  16.9347801  15.3208303
   8.0370274  19.7126350  15.4860916   8.2698441  19.6606770  14.5562010
   7.5627637  16.9777870  17.8894844   6.7599540  16.0297279  17.6548767
   8.6266403  16.7360649  18.6826954   9.1269035  17.5968819  18.8524876
   9.0381384  15.5012341  19.3224792   8.3350191  14.7564850  18.9495487
  10.4328804  15.0644531  18.7876549  11.2269487  15.6484776  19.2529202
  10.5245590  14.0122557  19.0570526  10.6267519  15.0532608  17.2944050
   9.6667614  14.7258778  16.8952332  10.8875141  16.0450401  16.9249744
  11.8127613  14.0746412  17.0384865  12.6783867  14.5139856  17.5342388
  11.5005856  13.1014595  17.4173813  12.2185898  14.0256872  15.6371374
  11.2884541  13.7147312  15.1614752  12.4707479  15.0368233  15.3175755
  13.3563604  13.0512075  15.2839546  13.1663609  12.1092291  15.5948820
  13.5259352  13.0422983  14.2883301  14.2534981  13.2011766  15.7229919
   8.9280310  15.4300308  20.8367157   9.3997269  14.4529390  21.4125710
   8.2664251  16.4017429  21.5086918   7.8523278  17.1713009  21.0023270
   8.0945482  16.3388844  22.9013100   8.9136295  15.9414282  23.5006714
   7.7124362  17.7812748  23.1972141   8.6442213  18.3075943  22.9901714
   6.8737292  18.1839809  22.6293259   7.2860737  18.1703796  24.6278725
   7.8188634  17.5825806  25.6360760   6.3843908  19.0959320  24.8537369
   5.9751096  19.5473480  24.0482464   6.1029034  19.2006836  25.8180466
   6.9752922  15.3003235  23.0504169   6.1086774  14.9647388  22.2088299
   6.8582778  14.7770205  24.2854500   7.7090707  14.8320684  24.8269520
   5.8779640  13.7496500  24.8279343   5.7357111  13.0320244  24.0199261
   6.4687872  12.9152546  25.9380016   7.5132418  12.8111286  25.6440983
   6.5047188  13.5765114  27.3110180   6.9149938  12.8241873  27.9846458
   7.1817846  14.4245300  27.2083263   5.4832397  13.7700138  27.6385021
   5.8730507  11.6239147  25.9900475   6.5315385  11.1279163  26.4819603
   4.4356694  14.3230782  25.0998859   4.2683983  15.5241404  25.0167828
   3.4868162  13.4731359  25.5444527   3.6882460  12.4952660  25.6970863
   2.0829208  13.7810316  25.7977676   2.0674381  14.8385706  26.0613403
   1.3343960  13.5767269  24.5475254   1.6601398  14.1838083  23.7028694
   1.4035914  12.5114317  24.3273754  -0.2011927  13.8408985  24.8020229
  -0.7638824  13.4310513  23.9632664  -0.4452446  13.3718615  25.7551975
  -0.5107269  15.3601351  24.8370342  -0.0548785  16.1002579  25.6965523
  -1.3731551  15.7334528  23.9797306   1.5534761  13.0177593  27.0394707
   1.5661467  11.7960796  27.0417519   1.1655120  13.6792850  28.1291161
   0.9824465  14.6480217  27.9097137   0.5206791  13.2853136  29.3606529
   0.0718697  12.2937403  29.3019028   1.6120340  13.3226509  30.5100937
   2.0343180  14.3253126  30.5767841   1.2299820  13.0305586  31.4882641
   2.7895453  12.3915234  30.2994461   3.1700902  12.5437031  29.2894325
   3.8363769  12.6534538  31.4320526   4.3188796  13.6231489  31.3096619
   3.4532604  12.5631466  32.4485016   4.6397929  11.9266825  31.3119354
   2.5525444  10.9459600  30.3881340   2.2388237  10.5714226  31.3625107
   1.6473874  10.7663479  29.8080177   3.3366072  10.2479076  30.0947609
  -0.5106310  14.3418846  29.7022343  -0.2753445  15.5557365  29.5051956
  -1.5660435  13.8794231  30.1546059  17.8130398  39.7839012  44.3054390
  17.8497791  39.9556084  43.3108177  17.2765999  38.9441338  44.4701462
  17.2682133  40.4994087  44.7651291  19.1074944  39.6572380  44.9229279
  19.6376095  40.5496941  44.5903625  19.0774403  39.7159042  46.4598427
  18.4683571  40.5172882  46.8780479  18.6686306  38.7623253  46.7940025
  20.4845924  39.8169518  47.0372696  20.9574509  38.8524933  46.8519974
  21.1445999  40.5628853  46.5944710  20.4567986  40.0439720  48.8485031
  20.0616379  41.8078232  49.1782990  19.8276634  41.9438705  50.2341614
  20.8458881  42.4909935  48.8522186  19.1706944  42.0935631  48.6191216
  19.7905979  38.4351006  44.3481026  19.1037502  37.5468864  43.7387962
  21.0854053  38.5001259  44.1156654  21.5392914  39.3616638  44.3837013
  21.7960377  37.4826660  43.3851967  21.2503719  37.2773628  42.4642220
  23.1269016  38.2159042  42.8550644  22.8955402  38.9075546  42.0450020
  23.4868240  38.7511139  43.7337608  24.2234535  37.2571335  42.2727699
  25.0974483  37.8294334  41.9617958  24.5582924  36.5187874  43.0013542
  23.7770615  36.3017845  40.8023682  25.3227005  35.4342346  40.4116402
  25.8235588  34.7982635  41.1415634  25.2216816  34.7643890  39.5577087
  26.1381283  36.1249886  40.1970749  22.1006565  36.3169594  44.3203621
  21.9386501  36.4885597  45.5166817  22.3702869  35.1050949  43.7913628
  22.3497963  35.0023766  42.7868080  22.7940521  33.9108429  44.6346512
  22.8634720  34.3323135  45.6374702  21.7936497  32.6908989  44.6342354
  22.1448135  31.8595524  45.2455025  20.4024544  33.1502380  45.2155113
  19.5530014  32.5163155  44.9612083  20.4013615  33.3149529  46.2929955
  20.3513069  34.1922264  44.8997002  21.5190735  32.1235771  43.2990990
  20.8901939  32.9029884  42.8688316  22.4866753  31.9728069  42.8204384
  20.6273804  30.8403473  43.0504532  20.4465313  30.7587242  41.9786644
  21.1169968  29.9235287  43.3788147  19.7329903  30.9489021  43.6639519
  24.2243710  33.4382172  44.2445335  24.5915279  33.5996513  43.0619316
  25.0006924  32.9807739  45.2559052  24.6942215  32.9626808  46.2181129
  26.4875984  32.6878014  45.1358719  26.7573853  32.4511414  44.1066437
  27.2941093  33.9457207  45.5648575  27.0117073  34.1529694  46.5970383
  28.3365593  33.6343765  45.6316872  27.1999035  35.1263123  44.5403786
  27.1391277  34.5539131  43.6147614  26.2157898  35.5583000  44.7220650
  28.3683224  36.1646690  44.6981239  28.3584919  36.6183281  45.6891823
  29.3246269  35.6423607  44.6701317  28.3251247  37.1991196  43.6666641
  27.9675217  38.0762253  44.0172462  28.3435116  37.0305862  42.3473663
  28.7058239  35.8684807  41.8781776  28.9770107  35.1434822  42.5269737
  28.9581661  35.8073959  40.9021187  27.9137821  37.9229622  41.5343056
  28.1251755  37.8513031  40.5492744  27.4718170  38.7757378  41.8466187
  26.8826046  31.4951439  46.0251312  26.0390453  30.9973831  46.8130989
  27.9965706  30.8439598  45.7235069  28.4741859  31.2290783  44.9212189
  28.5331917  29.6818466  46.4297752  27.7177010  29.1610336  46.9316025
  29.0230598  29.0835266  45.6615639  29.5980148  30.0049305  47.4670296
  30.3192253  31.0277443  47.3070297  29.7555370  29.0189190  48.3563004
  28.9383640  28.4588795  48.5529861  30.8528557  29.0655651  49.3776627
  31.6387234  29.7356796  49.0291557  30.2102757  29.6279106  50.6657753
  29.6370258  28.7444649  50.9468651  31.3859692  29.9527016  51.6436958
  32.0379677  30.7964668  51.4177399  30.8713417  30.1255302  52.5888901
  32.0004005  29.0666695  51.8034172  29.3293133  30.8855762  50.6618805
  29.9911175  31.7235947  50.8806000  28.6866684  30.9981232  49.7886963
  28.2270393  30.9004784  51.7097359  27.5277004  30.0964622  51.4804192
  28.6316509  30.8036594  52.7172165  27.8216438  31.9098988  51.6402740
  31.4466400  27.6457138  49.3959236  30.6320629  26.7023487  49.4130592
  32.7966881  27.4479771  49.3528290  33.3309097  28.3022308  49.2824173
  33.4790459  26.2036304  49.5310936  32.7830963  25.3648872  49.5472565
  34.4944077  26.0702095  48.4094162  35.0284996  26.9790497  48.1321907
  35.2751122  25.3786049  48.7260895  33.9004593  25.4498081  47.0468178
  33.1326103  26.1129894  46.6484413  34.6663399  25.4899483  46.2722702
  33.3632622  24.0031834  47.1756439  32.2879181  24.0319786  47.3514481
  33.3448105  23.6606541  46.1410255  33.9753380  23.0368023  48.0639763
  33.5693779  22.9484539  48.9845695  35.1854362  22.4353466  47.9533119
  35.9285698  22.4451828  46.9221992  36.8321228  21.9949512  46.8908768
  35.5708618  22.8735428  46.0803871  35.6106300  21.8083668  48.9623642
  36.5494995  21.4835949  48.7803154  35.3121681  22.0192642  49.9039307
  34.2082748  26.0989780  50.8280792  34.6555557  27.1429901  51.3885422
  34.2723045  24.8580647  51.3569527  33.8027878  24.0631695  50.9473228
  35.1187668  24.5107403  52.5166664  36.0619011  25.0569439  52.5005379
  34.6022034  24.8213615  53.4248390  35.4589920  23.0738316  52.5395508
  34.8604660  22.2756977  51.7445641  36.3334961  22.7004128  53.4342651
  36.7243843  23.3806324  54.0703583  36.7509117  21.3567162  53.7435684
  35.8668442  20.7406273  53.5793686  37.8060493  20.9246235  52.7437134
  37.5803032  21.3456116  51.7639618  38.7472687  21.4456596  52.9190178
  37.9732971  19.8505421  52.6632347  37.3263321  21.0888500  55.1567879
  37.9548721  21.9993515  55.7541733  37.2367821  19.8097839  55.5574837
  36.7808189  19.2265034  54.8704758  37.6982079  19.2955971  56.8072853
  38.6836433  19.7154732  57.0090675  36.7579918  19.5035038  57.9180603
  36.2972412  20.4899235  57.8652420  35.6427727  18.4636459  57.9911308
  34.9565620  18.7889194  58.7730637  35.1955681  18.3059235  57.0096893
  36.1080437  17.4998627  58.1978798  37.4942589  19.4625187  59.1301880
  36.8899269  19.5297050  59.8730659  38.1049004  17.8432846  56.6049881
  37.9032440  17.2599850  55.5542564  38.7362251  17.2946568  57.6170273
  38.8365517  17.8642082  58.4450684  39.1813545  15.9308100  57.7403412
  38.5736732  15.2446194  57.1504517  40.6804466  15.6529894  57.4027023
  40.8989258  14.6518478  57.7742958  40.9241905  15.6186047  55.8734779
  42.0008507  15.5008459  55.7508354  40.4508972  14.7595892  55.3978882
  40.6907616  16.5829506  55.4222031  41.5648422  16.6636391  57.9580612
  41.8597488  16.2259045  58.7599449  38.9913940  15.2785063  59.1374054
  39.3116722  15.7545471  60.1566658  38.6513748  13.9879789  58.9997368
  38.5842857  13.6252146  58.0595207  38.5594177  13.1000481  60.2047386
  38.6442299  13.7708530  61.0596848  37.3369942  12.2555313  60.3536606
  37.3994980  11.7178373  61.2997513  36.1029472  13.1788845  60.5615883
  35.9707375  13.7966280  59.6733284  35.1972046  12.6178961  60.7918472
  36.3672447  13.7683420  61.4395370  37.0214882  11.3431940  59.1870956
  37.0702744  11.9149837  58.2603951  37.6727066  10.4700747  59.1461411
  36.0162659  10.9306002  59.2730904  39.8319206  12.2543974  60.2464409
  40.3244019  11.7941818  59.1831207  40.3665314  11.9459524  61.4434471
  39.9690285  12.3626194  62.2731934  41.4522972  10.9848204  61.6724472
  42.1475487  11.0692024  60.8372154  42.2929306  11.3531036  62.9189911
  41.5969772  11.5165396  63.7418137  42.9359818  10.5215244  63.2071953
  43.1958237  12.6032181  62.7716560  42.5936890  13.5107632  62.8151894
  43.9591408  12.5574083  63.5484123  44.0484962  12.6031408  61.5049934
  44.6232109  11.5045137  61.1910515  43.9181557  13.6492367  60.8212280
  41.0769081   9.5493212  61.8382874  41.9228363   8.6645222  61.7517548
  39.7966614   9.1337824  61.8544807  39.1314735   9.8539104  62.0974617
  39.1598778   7.7947350  61.9125099  39.7084923   7.0656343  61.3162422
  39.0998688   7.2592821  63.4226036  38.4936676   7.9190493  64.0433502
  38.5503540   6.3185410  63.3888206  40.4443626   7.1413674  64.0739899
  40.9682007   6.3810248  63.4947090  40.9285736   8.1177797  64.0578690
  40.3249817   6.6196308  65.5253677  39.8542938   5.6364965  65.5249710
  41.2957115   6.5148892  66.0099487  39.6410942   7.6205430  66.3466263
  39.8390427   8.5958614  66.1743698  38.6533089   7.4897051  67.2444534
  38.2243958   6.2787681  67.6054535  38.6569557   5.4639363  67.1943054
  37.3741875   6.1812778  68.1418686  37.9833679   8.4909859  67.7464142
  38.2919426   9.4387798  67.5834122  37.1636505   8.2979631  68.3040009
  37.7357597   7.8448105  61.3580170  37.0370293   8.8325109  61.5366364
  37.2986984   6.7578287  60.6525879  37.9450340   6.0374756  60.3637238
  35.9695663   6.4655867  60.2245331  35.5099792   7.3922219  59.8806801
  35.9316940   5.3890386  59.1861229  36.6270752   5.6967869  58.4052010
  36.3356438   4.5414500  59.7397652  34.5755997   4.9569960  58.5623016
  33.6718254   5.8443398  58.4535942  34.2935791   3.7361169  58.2606087
  35.1103401   5.9383698  61.4475784  34.8754578   4.7356739  61.6759605
  34.4769630   6.8504457  62.0807457  34.6838722   7.7919168  61.7792130
  33.5579147   6.6555152  63.2193336  33.0531158   5.6985769  63.0868607
  34.3847275   6.4328771  64.5007782  34.9776726   5.5497508  64.2628632
  35.2914963   7.6651554  64.9504623  35.6084900   7.5787144  65.9897614
  36.1054497   7.5977068  64.2286377  34.7817993   8.5824146  64.6556015
  33.5655899   5.9092464  65.5457764  34.1972961   5.4586291  66.1110153
  32.6764793   7.8643999  63.4174004  32.9233971   8.9913311  62.9878616
  31.4134903   7.6757541  63.8740273  31.0344944   6.7569947  64.0538712
  30.3915730   8.7516079  63.9532814  30.3980446   9.2289867  62.9734001
  28.9637356   8.1045065  64.3406067  28.5542316   7.5561519  63.4922447
  29.1744289   7.2969670  65.0417404  27.8486233   9.0854769  64.8254318
  28.1602745   9.5727081  65.7493210  27.6356964   9.8941536  64.1262817
  26.5633469   8.3011875  64.9799194  25.4382954   8.6805820  64.5413513
  26.6241703   7.3178363  65.6784515  30.7955456   9.9067144  64.8375244
  30.5347214  11.0637617  64.5193024  31.4293079   9.6459351  65.9327393
  31.3923721   8.7084723  66.3067703  31.8592701  10.6371727  66.9000931
  30.9790211  11.2397804  67.1239853  32.3778725   9.9165020  68.2255020
  32.6974945  10.6013308  69.0109634  31.4622288   9.4207354  68.5478592
  33.5514565   8.9043074  67.9540939  33.1949158   8.0601759  67.3638229
  34.2532806   9.4600945  67.3322906  34.3666306   8.3761454  69.0942001
  35.6095886   8.2499552  68.9911118  33.6003761   7.9577217  70.0650864
  32.9584961  11.6173296  66.3852844  33.3593102  12.6565304  67.0197983
  33.5346870  11.2628632  65.1969910  33.1519852  10.4354477  64.7622223
  34.3876114  12.2023087  64.4438400  34.7802048  13.0340090  65.0288544
  35.6385803  11.4618998  64.0105743  35.5077095  10.7235956  63.2194443
  36.2280884  12.2695360  63.5766296  36.3873558  10.7771702  65.2045135
  35.6910439  10.2616529  65.8659439  37.0503731  10.0213175  64.7835693
  37.2388268  11.7736626  66.0683517  37.7289543  11.2750998  67.0767593
  37.4153061  12.9710760  65.6768723  33.6292839  12.7318954  63.2134552
  33.7579308  13.9243698  62.9086456  32.8076744  11.9653816  62.4692116
  32.7566071  10.9746628  62.6588631  32.2281952  12.3478861  61.2284203
  33.0053215  12.7421560  60.5736389  31.8184204  11.1307688  60.4659920
  31.2466011  10.4998055  61.1464386  30.9057007  11.3887730  59.2808189
  30.4953899  10.5629435  58.6996574  29.9740314  11.8666058  59.5837517
  31.4114819  11.9702635  58.5100021  33.0867119  10.3377447  59.9937897
  33.6161308  10.8275566  59.1765404  33.8172150  10.3344679  60.8027725
  32.8785362   8.8403234  59.5495720  33.6360512   8.4244518  58.8852539
  32.5671921   8.0628939  60.2472610  32.1116028   8.9102602  58.7781944
  31.1535625  13.4348669  61.4929924  31.1399727  14.4650745  60.7940140
  30.3437977  13.2240429  62.5324249  30.4912395  12.4446621  63.1576653
  29.2878990  14.2024488  62.9717216  28.7021847  14.5699310  62.1291084
  28.3456821  13.3494902  63.8227310  28.0420380  12.5567427  63.1390266
  28.8553944  12.8781385  64.6630402  27.1945724  14.2151489  64.3772202
  26.8074017  15.0827703  63.8429604  26.0095482  13.2318230  64.5129547
  26.2576694  12.3969164  65.1683044  25.1810284  13.7703781  64.9729767
  25.6273346  12.9574747  63.5297241  27.5177765  14.7371874  65.8225784
  28.2946491  15.5004959  65.8665161  26.6621265  15.3338861  66.1386795
  27.5856133  13.9028025  66.5206528  29.9731159  15.4428253  63.5388794
  29.7531719  16.5390053  63.0361176  30.8859787  15.2195444  64.4827805
  30.6876564  14.3716440  64.9944839  31.5676651  16.4398937  65.0336838
  30.8823586  17.1829643  65.4414825  32.5071754  16.0317173  66.2435303
  32.0693474  15.3447714  66.9677582  33.3499527  15.5004978  65.8012238
  33.1392670  17.2539234  66.9743347  33.5006027  17.9862175  66.2523346
  32.4530525  17.8065147  67.6160965  34.3715820  16.8041191  67.7461624
  35.2434578  16.1103630  67.3353119  34.4216156  17.0498905  69.0576172
  33.7195930  17.4770679  69.6448059  35.2941589  16.7173595  69.4425812
  32.3514023  17.2057037  63.9599266  32.2219200  18.3862743  63.8453026
  33.2033348  16.6180935  63.0662079  33.2285118  15.6126032  62.9742584
  34.0265923  17.4973698  62.1893082  34.4144020  18.3375626  62.7653160
  35.2405281  16.6228905  61.7584839  35.0325890  15.5543251  61.7034340
  35.4597664  16.9705124  60.7489319  36.4957199  16.9092007  62.6001091
  37.2676430  16.6097927  61.8911705  36.6245117  17.9749241  62.7891846
  36.4966927  16.0172577  63.9060936  35.6917038  16.3073215  64.5813370
  36.4426003  14.9456139  63.7143784  37.7903137  16.2752132  64.6247940
  38.6234589  15.8501110  64.0651016  37.8793831  17.3611603  64.6545258
  37.7097549  15.6553259  65.9959030  38.4834862  15.8445749  66.6168976
  36.8695068  15.9886827  66.4464111  37.6958656  14.6520367  65.8805008
  33.1630020  18.1609669  61.0660973  33.4730453  19.3126469  60.8471184
  32.0510788  17.5305271  60.6303940  31.7772598  16.6369457  61.0133247
  31.0768814  18.2077522  59.7629318  31.6371403  18.4848976  58.8699570
  29.9807529  17.3017254  59.1675339  29.2761745  17.1369457  59.9827118
  29.1908684  17.9592304  58.0395126  29.7811165  17.8383751  57.1311646
  28.2591171  17.3981190  57.9681358  28.9783707  19.0124149  58.2231903
  30.4630680  16.1398144  58.6960106  30.6420097  15.5642128  59.4431801
  30.4453030  19.4427166  60.5181236  30.3739948  20.5891552  60.0750999
  30.0367851  19.2197762  61.8110008  30.2064648  18.2997551  62.1916199
  29.4834003  20.2927036  62.6565170  28.5818462  20.6907673  62.1908493
  29.0238094  19.6562328  63.9927216  28.5628834  18.6890411  63.7922783
  29.9042339  19.4494400  64.6011505  28.0920162  20.5021229  64.8506622
  28.6149445  21.4320374  65.0740738  27.2219353  20.6212673  64.2050095
  27.6576900  19.9227371  66.2435913  27.2514172  18.9141064  66.1680374
  28.5069275  19.6863194  66.8846893  26.7171669  20.8882217  66.8917389
  26.1649494  21.4768543  66.1591644  25.9713154  20.3348427  67.4623413
  27.4948483  21.7900715  67.8271484  28.2322807  21.3268948  68.3387680
  27.8378429  22.6128101  67.3522186  26.9976578  22.3172894  68.5306702
  30.4628029  21.4700508  62.9258766  30.0708008  22.6494694  62.8799057
  31.7592220  21.1286221  63.0102081  31.9251862  20.1347866  63.0798264
  32.8605118  22.1611729  63.1540947  32.6967316  22.8954620  63.9428291
  34.1105690  21.4464550  63.6006241  34.3862495  20.6217804  62.9433479
  34.9547806  22.1304016  63.5133133  34.1069565  21.0151424  65.0482330
  34.1722755  21.9234982  65.6471710  33.1443443  20.5529385  65.2669907
  35.2914238  20.0560703  65.4448013  36.0697708  19.5056381  64.7120209
  35.4982452  19.8749046  66.7390594  36.2650261  19.2687187  66.9934006
  34.8937035  20.3325176  67.4063110  33.2425385  22.8820896  61.8717766
  33.7201614  24.0280476  61.9417572  32.8892288  22.3946590  60.6530266
  32.3144569  21.5722046  60.7683754  32.9758148  23.0459290  59.3452759
  33.8357925  23.7156601  59.3427811  33.1521606  21.8750439  58.3689651
  33.9909286  21.2489510  58.6732483  32.1931114  21.3583775  58.4061203
  33.3424988  22.4239941  56.9243546  32.4686165  22.9074955  56.4877167
  34.5496788  23.3000984  56.7995071  34.5550308  24.2594910  57.3168411
  35.4368057  22.8203850  57.2130089  34.6872101  23.5520496  55.7479820
  33.4531555  21.1440086  56.0896721  34.3024521  20.6526070  56.5643425
  32.5109406  20.5988159  56.1453171  33.7443352  21.4393463  55.0816574
  31.7845039  23.9362793  59.0313530  31.9061985  25.0135956  58.5119934
  30.5412865  23.4376888  59.3137970  30.7115135  22.5492058  59.7629280
  29.2287331  24.1212597  59.2680702  29.0446091  24.3209095  58.2124481
  28.1173229  23.2342491  59.7577896  28.4455242  22.7028942  60.6511230
  27.2850189  23.8469486  60.1041565  27.5667095  22.2751465  58.7030830
  28.3712902  21.7684097  58.1701965  26.8090076  21.1094761  59.2953110
  26.5083046  20.4032135  58.5214500  27.3936653  20.6219330  60.0754280
  25.8567028  21.3770313  59.7531662  26.6697121  22.9532185  57.7379761
  27.2747765  23.5849895  57.0876999  26.1610584  22.1523094  57.2013969
  25.9823627  23.5900230  58.2948761  29.2443523  25.3274841  60.0704918
  29.0650578  26.3458195  59.5426140  29.5135536  25.2510242  61.3369484
  29.7241077  24.3252697  61.6815453  29.5635910  26.3759346  62.3125877
  28.5377750  26.7083569  62.4716492  30.1221390  25.8332653  63.6484909
  30.8415375  25.0379524  63.4534416  30.5714035  26.6512661  64.2116470
  28.8931599  25.1293545  64.3578644  28.1662788  25.9221344  64.5346222
  28.3434563  24.4159355  63.7438927  29.2837505  24.4729633  65.6824188
  30.4935131  24.4735317  66.0759430  28.3372154  24.0094376  66.3660202
  30.4880104  27.4756565  61.8264351  30.1659470  28.6308441  61.8607826
  31.6771774  27.0306263  61.3531609  31.8412075  26.0403423  61.4651070
  32.6992455  27.9947624  60.8951149  32.7410011  28.8096428  61.6178398
  34.0636520  27.3134689  60.7861252  34.1038055  26.7378368  61.7108612
  33.9651489  26.6059628  59.9628181  35.2944221  28.2689552  60.5040894
  36.1473732  27.5949726  60.5835953  35.2462769  28.7684860  59.5364876
  35.5108452  29.3339520  61.5926018  34.6714096  30.0117493  61.4375725
  35.4580307  28.9227180  62.6006660  36.8652382  29.9613667  61.4450073
  37.6039200  29.1601505  61.4674492  36.7095184  30.4124165  60.4650040
  37.1519470  31.0511360  62.3575706  38.1477127  31.2175179  62.3871040
  36.5996323  31.8755398  62.1694031  36.9814415  30.8142490  63.3244820
  32.1599541  28.6429272  59.6454620  32.1433334  29.8648796  59.5882034
  31.7697849  27.8267803  58.5934181  31.8878651  26.8331852  58.7309990
  31.3880405  28.4558907  57.2925415  32.0815964  29.2704391  57.0837364
  31.3749714  27.4959946  56.1265144  31.9771938  26.6071949  56.3148308
  30.0756035  26.7103863  55.9296036  30.2272282  25.8866978  55.2320061
  29.7265778  26.3377056  56.8926163  29.3698959  27.3701153  55.4247894
  31.8864574  28.1830330  54.8459282  31.0407066  28.5777512  54.2828979
  32.4938087  29.0513992  55.1012039  32.7884445  27.2521973  53.9618683
  32.1511841  26.6790962  53.2884026  33.4764633  27.8831177  53.3991356
  33.3379059  26.5641518  54.6043587  30.1358128  29.3670540  57.3288460
  30.1671028  30.4173832  56.6176033  29.1889248  29.0620117  58.2109032
  29.2536087  28.2447872  58.8008728  28.0562706  29.9327679  58.6315346
  27.5511818  30.2819061  57.7309303  27.0079212  29.1528702  59.2890549
  27.4254074  28.7270947  60.2014809  25.8344517  29.9882755  59.8730583
  25.4556656  29.4888611  60.7648087  26.1554394  30.9570484  60.2558746
  24.9745712  29.9716740  59.2034111  26.4650211  27.9975243  58.4870377
  25.8532104  28.2796783  57.6301956  27.2325554  27.3962555  57.9997330
  25.6036701  26.8676071  59.1880875  26.1387272  26.2159977  59.8789024
  24.7454453  27.3139381  59.6904221  25.2686329  26.1813602  58.4103241
  28.5439606  31.1646137  59.2751732  28.1437664  32.2387772  58.8533287
  29.3940411  31.0878811  60.3052101  29.6931992  30.1517239  60.5380440
  29.9476814  32.1754608  61.1502190  29.1655273  32.6960602  61.7027664
  30.7893791  31.6256008  62.3153725  30.2349377  30.8592911  62.8570938
  31.6292534  31.0885029  61.8746452  31.4120083  32.6245041  63.3460426
  31.7205257  32.0430374  64.2148438  32.2956429  33.0768356  62.8958397
  30.4559059  33.7388000  63.8340149  29.2239761  33.5691414  64.0270538
  30.8635426  34.8831558  64.1262283  30.7000809  33.2396545  60.3370934
  30.3869133  34.4179230  60.4030876  31.6913319  32.7542458  59.5394249
  31.7316303  31.7473850  59.4707870  32.5271454  33.6825790  58.7514191
  32.9484596  34.4415703  59.4106026  33.7486610  32.9515381  58.1487007
  33.3591232  32.1496086  57.5215874  34.2156715  33.6491737  57.4534988
  34.7849045  32.4887123  59.1545410  34.3693504  32.0483131  60.0608864
  35.4076920  31.7665882  58.6265564  35.7342224  33.5637093  59.6436157
  35.4297180  34.7926483  59.5259590  36.8424110  33.2520599  60.2306976
  31.8622570  34.3153152  57.4879990  32.2344666  35.3733673  56.9865990
  30.7286072  33.6416779  57.0501251  30.5269489  32.7287178  57.4321442
  29.8041439  34.2280502  55.9858360  30.2403755  35.0574112  55.4290924
  29.3884487  33.2065048  54.9296722  29.0249443  32.3291779  55.4647102
  28.5901146  33.6241684  54.3162231  30.6712017  32.8832054  54.1429253
  31.2755280  33.6699638  53.4079933  31.2856331  31.7840614  54.4936790
  32.2375488  31.6789551  54.1728821  30.9520702  31.2806091  55.3032303
  28.5771084  34.9807243  56.6215858  27.8276405  35.5857239  55.8751984
  28.3933067  34.9473495  57.9638481  29.0615215  34.3386078  58.4144249
  27.2758884  35.4540825  58.8240433  27.4034004  35.1069756  59.8494034
  27.3853855  36.9962158  58.9630089  27.0474739  37.4405479  58.0268021
  26.6626568  37.1280060  59.7682381  28.7506027  37.5806732  59.2085648
  29.6202087  37.2211304  60.2460327  29.3248367  36.6113510  60.9950485
  30.7310467  37.9717865  60.0587425  31.5682278  37.9420204  60.7403870
  30.6349983  38.7505836  58.9386597  31.3296413  39.3294258  58.4886475
  29.3972149  38.4988556  58.3498726  28.9891090  38.9667397  57.4661713
  25.8364067  35.0013237  58.5839539  24.9101410  35.7954521  58.6750946
  25.6767540  33.7845688  57.9979706  26.4654560  33.1544724  57.9659653
  24.4268074  33.3599281  57.3690948  24.1032543  34.1317711  56.6707611
  24.7150593  32.0508614  56.5958023  25.0494137  31.3875065  57.3934631
  23.5192013  31.5194778  55.8039970  23.9150505  30.7687511  55.1200218
  22.7288189  31.1423645  56.4529839  23.1989079  32.3027039  55.1169205
  25.7825108  32.2370148  55.6730614  25.5453281  32.8577156  54.9801865
  23.2338810  33.0509377  58.3041115  23.3530674  32.3716278  59.3403397
  22.1143684  33.5814667  57.9513588  22.1619587  33.9055252  56.9959450
  20.7760563  33.3006172  58.4005280  20.8499279  32.8680496  59.3982887
  19.8271923  34.5174446  58.4890442  19.8711147  35.1306267  57.5889435
  18.8676720  34.0804901  58.7656212  20.1486053  35.5169601  59.6153717
  20.1838093  35.0138245  60.5816612  21.1280060  35.9147873  59.3496399
  19.0479107  36.6043854  59.7345924  18.9683838  36.9682541  58.7102013
  18.0398064  36.2302170  59.9129829  19.4393616  37.7951317  60.6810799
  19.5889759  37.5727119  61.7376060  20.3315067  38.2206192  60.2215843
  18.3824425  38.7911034  60.7304382  17.5131569  38.3439140  60.9843407
  18.5320702  39.5253372  61.4076500  18.3095131  39.2199898  59.8189354
  20.0947075  32.2778435  57.4696236  20.3111858  32.5232086  56.2866516
  19.4025536  31.2068100  57.9588127  18.9315586  30.8993435  59.3053360
  18.2727127  31.7323856  59.5504150  19.7429142  30.8495369  60.0315056
  18.0798988  29.6014671  59.2094841  17.1023197  29.8443470  58.7930107
  17.9523525  29.0499439  60.1409645  18.7447186  28.8203335  58.0065384
  18.0506134  28.1115704  57.5549011  19.6369934  28.3558750  58.4263306
  19.1884155  30.0118465  57.1008835  20.0792503  29.6264458  56.6049194
  18.0811672  30.2784100  56.0273819  18.1574669  29.6618137  54.9577141
  17.1773262  31.2040691  56.2447815  17.1331387  31.7448540  57.0966644
  16.1753941  31.5958042  55.2370377  15.7045631  30.7623882  54.7156601
  15.1502047  32.4017563  56.0192108  14.6748610  31.8235893  56.8115959
  15.7028065  33.1757393  56.5518227  14.0994177  33.1205978  55.1452484
  14.6270857  33.9633026  54.6985817  13.7426224  32.5296898  54.3016701
  12.8957214  33.5930862  55.9799995  11.7416945  33.4261169  55.6106682
  13.1565027  34.3401566  56.9091644  16.8002415  32.2137222  53.9235344
  16.2307320  32.0469093  52.8497162  18.0487309  32.6811447  53.9637337
  18.5193653  32.6824532  54.8573799  18.8288631  33.1625137  52.8542290
  18.1976814  33.6201439  52.0924644  19.7789440  34.3122597  53.4157715
  20.4074459  33.9367790  54.2232971  20.4313583  34.4847260  52.5597839
  19.0225391  35.5713272  53.7646866  19.5853596  36.6037674  54.2261734
  17.7690639  35.6424675  53.5099525  19.5761070  32.0697441  52.0933762
  20.3041458  32.3601265  51.1222534  19.3612862  30.7979298  52.5192108
  18.9518547  30.5961761  53.4201889  19.9821301  29.6394215  51.8575706
  20.9123688  29.9158363  51.3612289  20.3817997  28.5219669  52.8873329
  19.5652256  28.3384075  53.5856247  21.0737133  27.2341003  52.3204803
  20.3485870  26.5846634  51.8300514  21.9077015  27.5302601  51.6842003
  21.4941082  26.6738815  53.1556549  21.4308395  29.1448936  53.8666000
  22.3932819  29.4039097  53.4253235  21.0110855  30.0387554  54.3280334
  21.5634747  28.3618317  54.6131363  19.1473503  29.0159264  50.7519341
  18.0069714  28.5954113  51.0268898  19.7357483  28.8731403  49.5607033
  20.6542034  29.2647552  49.4084625  19.2377548  28.1522465  48.3888855
  18.1777573  28.3878326  48.2939491  20.0759029  28.5500736  47.1647682
  21.1209145  28.2804470  47.3175850  19.5870228  27.6551189  45.9383011
  18.5211487  27.8522472  45.8235779  20.2173748  27.9863358  45.1130409
  19.7861710  26.5869560  46.0247116  19.9327526  30.0389843  46.8652344
  20.5785313  30.4339905  46.0809898  18.8986549  30.3014889  46.6419945
  20.0826168  30.6620922  47.7469254  19.3010883  26.6047783  48.6005783
  18.2736015  25.9215527  48.3514442  20.4771175  26.0501881  49.0549316
  21.2914963  26.6432133  49.1271133  20.7229767  24.6027355  49.3727455
  19.9711857  24.2890167  50.0969620  20.5158424  23.6958294  48.1094093
  20.6314049  22.6503448  48.3952599  19.4646988  23.7984695  47.8398476
  21.4235821  23.9560757  46.8310661  21.7292519  25.0008411  46.8870392
  22.2604465  23.2623196  46.9114532  20.7782879  23.6816254  45.4440956
  19.5483780  23.6549778  45.2824135  21.6075058  23.6784019  44.4286766
  22.6144390  23.7188530  44.4961319  21.2278805  23.4404602  43.5234795
  22.0782452  24.2955151  49.9455719  23.0365067  25.0827217  49.6726379
  22.1928120  23.2828636  50.7342873  21.3841171  22.7243500  50.9670372
  23.4307537  22.8107777  51.3461533  24.2752819  23.4953423  51.2671280
  23.0867748  22.5836830  52.8276405  22.7509155  23.5557423  53.1887436
  22.2293243  21.9171085  52.9202156  24.2662315  21.9767742  53.6947021
  24.0725956  21.8549538  54.7604256  24.4099503  20.9841881  53.2678337
  25.8874569  22.8002567  53.6250801  25.4575691  24.3797188  54.3190804
  26.3679314  24.9477272  54.5106812  24.8026829  24.8938370  53.6155891
  24.8919067  24.2489147  55.2415848  23.8642845  21.5004044  50.7133942
  23.0277576  20.6375256  50.4795799  25.1522846  21.3985996  50.3780708
  25.7744598  22.1704922  50.5708847  25.6836166  20.2647419  49.7178917
  24.8598480  19.5512505  49.7388458  26.0497818  20.6040821  48.1973763
  25.0932083  20.7081699  47.6852913  26.7133255  21.4657192  48.2708092
  26.8489895  19.5505486  47.3694038  27.6937141  19.1218414  47.9086151
  26.1069221  18.1963577  47.0196953  26.6412201  17.6100063  46.2721519
  25.9718037  17.6229591  47.9367828  25.1478004  18.5279827  46.6219292
  27.4513817  20.0890179  46.1287270  28.0136566  19.3251762  45.5916214
  26.7428322  20.4984093  45.4086876  28.2106915  20.8005733  46.4531326
  26.9069614  19.8025627  50.5858116  27.8163738  20.6000957  50.7195396
  26.9055557  18.5070133  50.8245163  26.1807384  17.8552628  50.5600166
  28.0995274  17.8148842  51.3347511  28.9095631  18.5160961  51.5353699
  27.8110199  17.2374096  52.6997681  26.9410973  16.5937729  52.5691185
  28.5647469  16.5175629  53.0188637  27.4347229  18.2750092  53.8234100
  26.6090832  18.8967228  53.4771423  26.8303986  17.6241531  55.0633736
  27.5115852  16.8727436  55.4627075  26.7073917  18.4220867  55.7956772
  25.8907948  17.1498909  54.7799606  28.6196251  19.0684509  54.1925774
  28.9852524  19.7015285  53.3841019  28.2402668  19.7918911  54.9142570
  29.3815994  18.3918552  54.5795059  28.6758080  16.7807903  50.3494797
  27.9926796  16.2354107  49.5194550  30.0350018  16.5256977  50.4023628
  30.5275822  16.9940357  51.1494408  30.7081795  15.5392275  49.6785698
  30.0440693  14.7181005  49.4087257  31.2119617  16.1700630  48.3796654
  30.4184761  16.8363609  48.0412445  32.0586929  16.8204823  48.5989838
  31.5798302  15.2323360  47.3656654  32.2667694  15.5262213  46.7628746
  31.8488636  14.8366537  50.4154549  32.3833237  15.3834181  51.3695984
  32.1671867  13.5667534  50.1629868  31.7346401  13.1602821  49.3458061
  32.9531517  12.6367989  50.9983368  33.6646347  13.2276506  51.5752144
  32.0799713  11.7674465  51.8418465  31.4622498  12.2830467  52.5771599
  31.3429127  11.3745470  51.1415062  32.7617188  11.0991936  52.3679276
  33.8267479  11.7302790  50.0285721  33.4295273  11.3254805  48.9650612
  34.9488983  11.3277941  50.5643044  35.1793785  11.7578917  51.4486122
  35.9404907  10.3901272  49.9870300  35.8322487  10.6328163  48.9299202
  37.3673477  10.5654554  50.4964638  37.9959412   9.6842613  50.3681412
  37.9121971  11.7748289  49.8578224  38.8232422  12.0854206  50.3693199
  38.1849632  11.5789785  48.8208351  37.1682663  12.5497284  49.6729088
  37.2930565  10.6981268  51.9111137  37.4850998   9.8235960  52.2574043
  35.5689507   8.9177628  50.2430000  34.7848854   8.7066889  51.1143875
  36.0529289   7.9653349  49.3859863  36.7155113   8.2838125  48.1208191
  37.7724800   8.3038454  48.3863640  36.4806900   9.2753582  47.7337761
  36.4737358   7.1438484  47.1443329  37.4131088   6.9642234  46.6214409
  35.6875458   7.4006696  46.4343681  36.1017838   5.9084387  47.9949989
  37.0171852   5.3384576  48.1539230  35.3129997   5.3356266  47.5073395
  35.5644836   6.5768485  49.3307152  34.4752502   6.5361671  49.3357697
  35.9600258   5.7700028  50.5347404  35.5977783   4.6249576  50.6927299
  36.7193413   6.2527046  51.5108032  37.0873604   7.1902847  51.4359436
  37.2555199   5.4801264  52.6744804  37.3203468   4.4228544  52.4174347
  38.6458588   5.9932818  53.0240440  38.8957138   5.6087246  54.0128784
  39.3670654   5.6154480  52.2993355  38.8546257   7.5179925  53.0007324
  39.9644852   8.0580912  53.0135040  37.8002014   8.2647686  52.8859978
  36.4038353   5.6698966  53.9756317  36.2936134   4.6868100  54.7651863
  35.7636299   6.7827129  54.1889725  35.8450699   7.4942317  53.4767876
  34.7655716   6.9917498  55.2307129  35.1245422   6.5103707  56.1403923
  34.4937515   8.4715748  55.4597778  33.9605789   8.9138384  54.6182137
  33.7980270   8.4358101  56.2981071  35.7418251   9.3349800  55.7970123
  36.4688873   9.2268705  54.9921532  35.2924004  10.8724842  55.8873787
  34.7625999  11.1143532  54.9660149  34.6337662  10.9745073  56.7498741
  36.1656532  11.5194149  55.9711113  36.4240303   8.9165640  57.1080132
  37.3223076   9.5167332  57.2529221  35.7295837   9.0531406  57.9369850
  36.6210785   7.8466516  57.0404587  33.4621773   6.3287311  54.8153000
  33.0742416   6.4296613  53.6516724  32.7617912   5.6647587  55.7928810
  33.1549530   5.6792355  56.7231026  31.5816669   4.8404427  55.6010551
  31.0625038   5.2262516  54.7237167  32.1071320   3.4175179  55.2846451
  32.5958557   3.0708942  56.1951942  31.2201290   2.7859263  55.2353592
  32.8994102   3.2019341  54.0102005  32.4350319   3.4451227  52.7032890
  31.5196362   3.8270335  52.5127831  33.3906517   3.0623116  51.8859215
  33.4525795   3.3355043  50.8428841  34.4496040   2.7618191  52.6215134
  35.3635864   2.6369548  52.2102432  34.1910400   2.7832642  53.9510612
  34.9163246   2.5689900  54.7220688  30.6404800   4.8055391  56.7503166
  29.5066204   4.3751550  56.5460739  31.1495209   4.9923248  57.9802132
  32.1484451   5.0847683  58.0972633  30.4186382   4.7145648  59.2281456
  30.1512413   3.6607428  59.1503029  31.4261436   5.0503507  60.3700180
  31.7439423   6.0890946  60.2799988  30.8096352   4.8861251  61.2537880
  32.3129578   4.4373412  60.2091560  29.1609039   5.5329013  59.4869347
  28.3013325   5.0452232  60.2084770  29.0955868   6.7844672  58.9748878
  29.8276119   7.0499115  58.3316307  27.8577194   7.6431980  59.0240631
  27.0303211   6.9965720  58.7318497  27.5452576   8.3051500  60.4012718
  27.6266861   7.4499440  61.0721626  28.7224941   9.1696997  60.9343109
  28.3571854   9.5597973  61.8842926  29.6801376   8.6586332  61.0334511
  28.7928524  10.0300894  60.2688179  26.2279968   9.0099001  60.5943642
  25.9255867   9.2426100  61.6153908  26.2826710   9.9494543  60.0444984
  25.4710655   8.3188553  60.2233849  27.9744835   8.6646996  57.8551788
  29.0372696   9.0586472  57.3915939  26.8125305   9.0686140  57.4040222
  25.9318771   8.6890230  57.7209778  26.7611237  10.2220278  56.5327797
  27.5396175  10.0480366  55.7899590  25.3505478  10.5117760  56.0157433
  24.7169380  10.7061214  56.8811188  25.3516197  11.4137449  55.4037399
  24.8594513   9.3846731  55.1423798  23.8650551   8.4973421  55.6296883
  23.5211697   8.6906471  56.6350632  23.4469166   7.4182410  54.8577843
  22.6178131   6.7894902  55.1470184  23.9326172   7.3045139  53.4492645
  23.6690788   6.5095587  52.7673569  24.8495827   8.2207403  52.9355659
  25.2851276   8.1214075  51.9522858  25.3387432   9.2387304  53.8155861
  25.9952545  10.0293293  53.4833908  27.3339062  11.4144688  57.2672997
  26.9601974  11.6689997  58.4229355  27.9849300  12.3540115  56.5602493
  28.6244621  12.2554121  55.2630730  27.8518448  12.0275793  54.5287323
  29.4327869  11.5255928  55.3086243  29.0860786  13.6125517  54.9072151
  28.2851238  14.1815319  54.4351654  29.9879379  13.6229639  54.2951355
  29.3058910  14.2891836  56.2358856  29.0649090  15.3489180  56.1522751
  30.3422050  14.1790323  56.5552979  28.2872620  13.6321030  57.1863403
  28.8365822  13.5694704  58.1257172  27.0474243  14.5371237  57.4064217
  26.9500389  15.2904367  58.4202499  26.0615044  14.2276077  56.5470009
  26.2905979  13.5924234  55.7958908  24.8270702  15.0161743  56.5654373
  25.1639519  16.0471458  56.4571915  23.9067822  14.4735813  55.4425621
  23.7510281  13.4360161  55.7380409  22.8965244  14.8674698  55.5536118
  24.3046799  14.7850437  54.4767609  24.1016560  14.8830309  57.8796844
  23.2958431  15.7469721  58.2134094  24.3486557  13.9154882  58.7407379
  24.9526367  13.1476450  58.4843750  23.6681194  13.7879734  60.0244942
  22.5995865  13.8743563  59.8273087  24.0796471  12.4761639  60.6821022
  23.9825668  11.7602892  59.8658905  25.1331425  12.5321026  60.9561768
  23.1106739  12.0798721  61.7890663  23.1138325  12.8717527  62.5380783
  22.0595436  12.0297413  61.5049744  23.5428219  10.7573519  62.4189301
  23.3461361   9.9628038  61.6991348  24.6020126  10.7045679  62.6707840
  22.6604977  10.6045752  63.6462059  22.8773956  11.2598429  64.4898148
  21.6399879  10.9167852  63.4244308  22.6687260   9.1624155  63.9724922
  22.3531532   8.5682850  63.2191505  23.6028690   8.9137783  64.2651672
  22.0187263   9.0119829  64.7307587  23.8713799  15.0597525  60.8993912
  22.9812260  15.5203142  61.6194839  24.9811363  15.8013182  60.7055397
  25.5849285  15.5238495  59.9449196  25.3607845  16.9698124  61.4059639
  25.4292068  16.6667442  62.4507484  26.7625141  17.3955116  61.0398216
  27.3941479  16.5577641  61.3353462  26.8781567  17.7053680  60.0012093
  27.1075554  18.1363888  61.7610359  24.3901215  18.1620808  61.1910973
  24.4033070  19.0662460  62.0478973  23.5583305  18.1903591  60.1185722
  23.3094826  17.3969612  59.5452499  22.8652077  19.4862461  59.8849449
  23.5600529  20.3006096  60.0901375  22.5135651  19.7794647  58.4194069
  21.6989841  19.0922985  58.1905785  22.1324253  21.2136135  58.1978302
  21.8406239  21.4623928  57.1775055  21.2365189  21.3913994  58.7926788
  22.9365807  21.8840008  58.5011559  23.7020073  19.4157619  57.4499054
  24.6182709  19.7198544  57.9559593  23.7026119  18.3777084  57.1174240
  23.7029133  20.0544243  56.5666046  21.5980892  19.5767231  60.7775726
  21.2652264  20.7021656  61.2040901  20.9488506  18.4300919  61.0951576
  21.1945915  17.6057739  60.5658073  19.9193478  18.4154797  62.1340141
  19.3421249  19.3268204  61.9778938  18.9820213  17.1860790  62.0620193
  19.4648724  16.2144642  62.1665268  18.2897263  17.2799625  62.8986855
  18.1822605  17.2034645  60.8156776  17.6920776  18.1729851  60.7270699
  18.7657471  17.0468464  59.9084206  17.1283741  16.0581341  60.8611832
  17.6497135  15.1020927  60.8133316  16.6505089  16.1245384  61.8385963
  16.1764240  16.0346012  59.7293892  16.4556389  15.5771799  58.8732872
  15.1310234  16.8038349  59.6940079  14.7327995  17.3634911  60.8057823
  15.0765066  17.1069908  61.7202072  13.8278208  17.7954140  60.6851273
  14.4354973  17.0189819  58.6357346  13.7248144  17.7366104  58.6292381
  14.7477388  16.5423603  57.8018036  20.4845104  18.6467228  63.5566444
  19.6899147  18.8012886  64.5001678  21.8100090  18.5295429  63.7965698
  22.4819946  18.3483086  63.0646629  22.3656807  18.7784233  65.1340256
  21.6510868  18.4971943  65.9075699  23.7378006  18.0572224  65.2251511
  24.4765205  18.3360844  64.4737320  24.2115879  18.2810936  66.1809235
  23.7392941  16.5488853  65.1784592  23.3934803  16.2039719  64.2040100
  24.7778072  16.2197342  65.2137985  22.9054089  15.8826103  66.3035049
  23.3935356  15.8770962  67.4575348  21.8361053  15.3421640  65.9843826
  22.6757240  20.3302097  65.2551727  23.0757141  20.7253227  66.3290710
  22.5180874  21.2034969  64.2169266  22.2639332  20.8086605  63.3227234
  22.4610367  22.6671677  64.3517227  23.3706455  22.9491806  64.8819885
  22.4198627  23.2923298  62.9709015  21.6771297  22.8607178  62.2999687
  22.3548603  24.3717480  63.1077766  23.7413616  23.1421967  62.0824776
  23.9892941  22.1121922  61.8261185  23.4567280  24.0182705  60.8639145
  23.0421104  24.9719982  61.1903954  24.4016228  24.0805473  60.3241005
  22.8123608  23.4992867  60.1543007  25.0515480  23.5065098  62.8085594
  24.9228458  24.4175014  63.3930550  25.1834869  22.7043095  63.5346222
  25.9114265  23.6034222  62.1457481  21.2674923  23.1101551  65.2003708
  20.2146454  22.4764709  65.1458359  21.3264027  24.3152676  65.8497162
  22.1519413  24.8399563  65.5981445  20.1871510  24.9687119  66.5036087
  19.5449562  24.2060986  66.9441910  20.7728062  25.7245197  67.6778641
  21.2224522  25.0997543  68.4496078  21.4757977  26.4297256  67.2344818
  19.7688732  26.3822956  68.4428024  20.1447754  27.1005154  68.9570618
  19.4847527  25.8120499  65.4577408  19.8940315  26.8909550  65.1128235
  18.3668251  25.2320271  64.9596100  18.0554142  24.3262558  65.2800751
  17.3227406  25.8448219  64.1170197  16.3858471  25.4168758  64.4736710
  17.2605648  26.9032440  64.3699570  17.2751675  25.5777016  62.6461754
  16.5980873  26.3476639  62.0194435  18.0160809  24.5618248  62.1162376
  18.4476967  23.9497013  62.7938194  18.2672119  24.2979813  60.6542511
  17.8574619  25.1627502  60.1323509  19.7788410  24.1752071  60.3164787
  20.2992897  23.3618679  60.8221588  19.6555691  23.9582882  59.2554169
  20.4849663  25.5352573  60.2472954  20.4471130  26.5515938  61.1302834
  19.8874474  26.4770241  62.0509415  21.2180176  27.6244049  60.7264824
  21.3936501  28.4650688  61.2580261  21.7512150  27.3960381  59.4850769
  22.4375629  28.2244549  58.5809174  22.7376652  29.2220039  58.8659363
  22.7531624  27.6645393  57.3729591  23.3190784  28.3043251  56.7120399
  22.5006180  26.3359413  57.0442886  22.8831425  25.9002323  56.1331215
  21.6588478  25.5718975  57.9023972  21.2625637  24.5980453  57.6554718
  21.3128719  26.1014309  59.1523094  17.4289722  23.1269932  60.0323982
  17.7751789  22.5966625  58.9565620  16.3877850  22.7470512  60.7091789
  16.3517265  23.0748501  61.6638222  15.4476604  21.7470188  60.2364578
  16.0700073  20.8772697  60.0259285  14.4714069  21.2749481  61.3865547
  13.7717237  22.0878410  61.5808487  13.9233007  20.4080429  61.0175629
  15.0564995  20.7934170  62.7255058  14.3885098  20.1200466  63.2625923
  15.8681431  20.0895939  62.5411949  15.5462418  22.0013561  63.6170235
  15.2946625  23.1718388  63.3978615  16.2050076  21.6444893  64.6967621
  16.4699955  20.7074394  64.9647446  16.5573902  22.4053268  65.2598419
  14.6755743  22.0149136  58.9651680  14.0277500  21.1170044  58.4232941
  14.7657461  23.1813583  58.3685417  15.3430119  23.8920021  58.7949791
  13.9655380  23.4698067  57.1552124  13.3980589  22.6202450  56.7753258
  12.9293633  24.5246620  57.3934174  13.4275866  25.4363155  57.7232056
  12.4438648  24.8500462  56.4733505  11.8585110  24.1180744  58.3893738
  10.9913282  23.0390110  58.0556870  11.0144863  22.4457779  57.1534996
   9.9756536  22.6720200  58.9492378   9.4739561  21.7349358  58.7579994
   9.9133148  23.2882919  60.1832314   9.1445341  22.7576752  61.0988808
   9.4919529  23.0811043  61.9333229  10.8075514  24.3253918  60.5195427
  10.7581015  24.6966209  61.5325356  11.7862930  24.7757740  59.6351280
  12.4861231  25.5789738  59.8126335  14.8959980  23.8465233  55.9395142
  14.4235659  24.1312943  54.8378372  16.2422695  23.8017826  56.1136818
  16.5883598  23.5228310  57.0206032  17.3175182  23.9631805  55.0968933
  17.0604858  24.7347393  54.3711243  18.6585846  24.4474430  55.7305870
  18.9309387  23.6500988  56.4220848  19.7697926  24.5902672  54.6475792
  20.6228466  25.0316391  55.1629410  20.1008968  23.6383038  54.2325592
  19.4920025  25.3240528  53.8909492  18.3735561  25.7748146  56.5034943
  17.8153801  26.4651546  55.8710632  17.8486004  25.5930386  57.4412994
  19.3284225  26.2632408  56.6978416  17.4730606  22.6442413  54.4053001
  17.6471996  21.5849342  55.0508919  17.3076630  22.5477238  53.0905991
  16.8786602  23.4574337  52.0589485  17.4230480  24.4004326  52.0089874
  15.7968140  23.5690956  52.1313477  17.1767960  22.8154469  50.7589912
  18.2147598  22.8549004  50.4285660  16.4999161  23.1756992  49.9842949
  16.8897419  21.3700256  51.0182266  17.4530716  20.7953415  50.2830429
  15.8250256  21.1640053  50.9085236  17.3425331  21.2388153  52.4625473
  16.7556782  20.4707794  52.9663582  18.8478546  20.7854500  52.3609772
  19.7193890  21.6415176  52.0040398  19.2411156  19.4930668  52.6408234
  18.4337444  19.0061741  53.0030212  20.5750370  18.9954185  52.5905266
  21.2571411  19.8130379  52.3574333  20.9676571  18.5040245  53.9740486
  20.1946239  17.7894897  54.2568283  22.2634563  17.6997566  54.1397285
  22.2455654  16.9291916  53.3690071  23.1423855  18.3268738  53.9903717
  22.3185215  17.2423992  55.1276016  20.8301373  19.6310997  54.9810600
  19.8216038  20.0434303  54.9501610  20.9635735  19.0855942  55.9152527
  21.5861359  20.3678074  54.7093430  20.6030674  17.8868351  51.5566521
  19.7474251  16.9599361  51.6529732  21.6735954  17.7825871  50.7097206
  22.2085438  18.6094704  50.4856758  22.0839748  16.4567604  50.0579529
  21.4535046  15.6250057  50.3722649  21.9131050  16.5265923  48.5383987
  22.2638779  15.6518345  47.9908028  20.4624691  16.6034203  48.1399307
  20.3866749  16.8914871  47.0914192  20.0527725  15.5975866  48.2323761
  19.9464054  17.1185265  48.9501419  22.6738377  17.6246490  47.9031792
  22.6448612  17.4607105  46.9577217  23.5577850  16.1000309  50.3773117
  24.3335991  16.9563923  50.8513718  23.9831257  14.8151112  50.1553078
  23.3563652  14.0866814  49.8444061  25.3723927  14.2550659  50.2455215
  25.9753780  15.1601734  50.3182526  25.4790039  13.4303465  51.4987335
  25.1065578  13.9897842  52.3568802  24.8079929  12.5777817  51.3939400
  27.1985931  12.9798889  51.8724289  27.4208469  12.2149544  50.7998734
  25.8013268  13.5360136  48.9588394  25.0318165  12.7454615  48.4135933
  27.1012058  13.5879993  48.5401268  27.6296844  14.3071404  49.0130424
  27.5552750  12.7968302  47.3804588  26.8405609  11.9937077  47.2007828
  27.4480972  13.7546406  46.1821747  27.5252514  13.1694441  45.2658272
  26.4696636  14.2292194  46.1077118  28.5075531  14.7613449  46.0858269
  28.4187927  15.4525661  46.9239426  29.3968620  14.1380129  46.1790237
  28.2808857  15.6714573  44.5026588  29.5419998  16.9796505  44.6928635
  29.4061737  17.7063255  43.8918648  29.4051228  17.4253292  45.6781235
  30.5084610  16.4764442  44.7218323  28.9252930  12.2023506  47.6256714
  29.5972881  12.5939808  48.5558891  29.3717098  11.4148703  46.6303520
  28.6449413  10.9527473  46.1027603  30.7550640  11.0354815  46.5812073
  31.2469578  11.0645275  47.5534706  30.9047318   9.6282301  45.9880524
  30.0065289   9.0856333  46.2828789  30.7443180   9.6654730  44.9105644
  32.2193832   8.9284267  46.4621086  32.4634895   8.1765566  45.7116356
  32.9605179   9.7129030  46.6151237  31.9140701   8.1444292  47.6696434
  31.4476776   7.0074568  47.6528130  32.1124573   8.7088099  48.8066864
  32.4225578   9.6614227  48.9350357  32.1612701   8.0446596  49.5660439
  31.6316566  12.0010328  45.7237053  31.3724194  12.2259169  44.5625877
  32.7789307  12.4268665  46.3230095  32.9694023  12.1325750  47.2702255
  33.8176994  13.0525894  45.5340767  33.3696098  13.6456032  44.7368011
  34.8235664  13.8369255  46.4654427  34.2637367  14.2178698  47.3195953
  35.6545410  13.2543049  46.8631020  35.4752617  15.0399075  45.7882805
  36.4093704  15.2612295  46.3045692  35.8928642  14.7003689  44.8404312
  34.6463928  16.3523636  45.6997948  35.2095680  17.4089260  45.2585411
  33.4750938  16.3481236  46.1715622  34.6547508  12.0741940  44.6748199
  34.9524384  10.8694515  44.9735069  35.0699615  12.6055918  43.4864044
  34.7749481  13.5477495  43.2733192  35.7350845  11.8278522  42.4311180
  35.0697861  10.9780521  42.2784233  35.8825722  12.7237978  41.1593513
  34.9907417  13.3003759  40.9137955  36.6601524  13.4516115  41.3912125
  36.2243423  11.9425936  39.8396301  37.1557961  11.3808661  39.9100151
  35.4224472  11.2045383  39.8582649  36.2677345  12.9551210  38.3182983
  37.9879646  13.4500160  38.4427147  38.4208336  12.9988384  39.3355637
  38.5830460  13.1399832  37.5837288  37.9471321  14.5263004  38.6101761
  37.1195717  11.2243948  42.8581123  37.9772720  11.8877697  43.4047432
  37.2720032   9.9187002  42.7787209  36.4732742   9.3808470  42.4740105
  38.5406265   9.2571182  42.9898186  38.8251801   9.5861578  43.9892464
  38.2446632   7.7481031  42.9310684  37.4033089   7.6141057  43.6109695
  37.7690735   7.4120021  42.0096817  39.4307938   6.8643994  43.2715378
  40.4493103   7.2762794  43.8083611  39.3097496   5.6762991  42.9715805
  39.5981941   9.6715231  41.9771461  39.6204910   9.0966864  40.8483772
  40.4114647  10.6166010  42.4681015  40.1379890  11.0509863  43.3379402
  41.6793823  11.0942869  41.8666878  41.7763252  11.0369940  40.7825203
  41.7600288  12.6605797  42.0915222  41.5724220  12.9446087  43.1270142
  43.1487160  13.2562265  41.6869469  43.5083809  12.8708353  40.7328987
  43.2255898  14.3433428  41.7061424  43.8642349  12.8931284  42.4247169
  40.6834259  13.2703152  41.1523132  39.7034836  12.9277229  41.4846497
  40.7285652  14.3583212  41.1042900  40.7733841  12.8789892  40.1389694
  42.9596558  10.4009924  42.4371605  43.0978394  10.1393986  43.5936394
  43.9629707  10.2375631  41.5739441  43.8871689  10.5658083  40.6217842
  45.2866325   9.7899704  42.0547447  45.1609230   8.8142662  42.5241013
  46.3113251   9.6311779  40.9235535  46.5594406  10.6546164  40.6422806
  47.5528412   8.8298187  41.3952980  48.2546654   8.7199860  40.5685730
  47.9676971   9.2064981  42.3302383  47.2467079   7.8201761  41.6691666
  45.7877731   8.8906612  39.8646889  45.0303688   9.3286924  39.4696388
  45.9047241  10.6340675  43.1131325  46.2385292  11.7988110  42.8699570
  45.9179077  10.1965609  44.3689957  45.2746506   9.4582043  44.6162796
  46.3988762  11.0156479  45.5407143  46.3963852  10.2629900  46.3291321
  47.3555183  11.5009394  45.3472519  45.4553986  12.1307936  45.9971123
  45.8403206  13.2725449  46.3586006  44.1279449  11.9441547  45.9935646
  43.7016487  11.1719646  45.5015297  43.1638451  12.9212179  46.6256599
  43.5352783  13.9292889  46.4414597  42.1439629  12.8948479  46.2419243
  43.0574799  12.7202492  48.1316910  43.2685356  11.5947847  48.6647606
  43.0466194  13.7905474  48.9299660  42.6870766  14.6678581  48.5818939
  43.2931786  13.7208967  50.3386459  44.2945824  13.2942543  50.3958817
  43.3112068  15.1728420  50.9116631  44.0500374  15.7469902  50.3525696
  42.2876740  15.5064230  50.7407722  43.5086403  15.3746986  52.3908882
  42.8148804  14.7363291  52.9379616  44.9463654  15.1073856  52.8680725
  45.3401375  14.2028322  52.4045792  45.7058372  15.8403492  52.5959129
  45.0126801  15.0315914  53.9534111  43.2036743  16.7896538  52.9256058
  43.0672417  16.7392120  54.0058556  44.0316772  17.4704666  52.7280998
  42.3144417  17.2229309  52.4677467  42.3312302  12.7530527  51.0116310
  41.1368713  12.8810911  50.8319778  42.8990860  11.8458376  51.8196793
  43.8936844  11.9315491  51.9730759  42.2165909  10.8226194  52.5536957
  41.5127487  10.3246136  51.8868446  43.1580429   9.8825626  53.0967941
  43.8741188  10.4234905  53.7154465  42.5673866   9.1902905  53.6967812
  43.8536644   9.0154915  52.0150642  42.9527283   8.6911783  51.4942627
  44.3400917   9.7026711  51.3227654  44.6777687   7.7687759  52.1747093
  44.1793175   7.1067352  52.8827667  44.9476624   7.3817520  51.1921196
  46.0326347   8.1905794  52.7618675  46.4481888   8.9583168  52.1091843
  45.8611641   8.6317511  53.7437363  46.9303703   6.9824514  52.8548279
  47.3678360   6.6427002  52.0102539  47.7805367   7.1263146  53.3807755
  46.5219154   6.1738005  53.3013115  41.2514343  11.4256010  53.6597023
  41.5139427  12.5052719  54.0910492  40.1189079  10.7781811  54.0050201
  40.0516357   9.8460770  53.6219292  39.1547852  11.0618944  55.0492516
  38.3113060  10.4016972  54.8473091  39.8385391  10.7034721  56.3914795
  40.6537743  11.3556709  56.7047310  39.0346222  10.9929657  57.0682449
  40.2248001   9.2477884  56.4924393  39.3486862   8.6775846  56.1835899
  41.0945129   8.9936609  55.8865356  40.6278725   8.8796234  57.9401932
  41.5313034   9.3752565  58.2955246  39.8954849   9.1920776  58.6845589
  40.9601364   7.3697228  58.1208687  41.1963730   7.1701579  59.1660805
  40.0856895   6.8106356  57.7879028  42.1171913   6.9093695  57.3440208
  42.4895859   6.0261149  57.6622734  41.9509392   6.9934592  56.3513527
  42.8774185   7.5217891  57.6030540  38.6077995  12.4458380  55.0044518
  38.4114342  13.0905113  56.0321732  38.2860565  12.9125328  53.8292885
  38.2775345  12.3415565  52.9962120  37.9028511  14.3159895  53.6672668
  38.1469345  14.9436502  54.5243340  38.6607399  14.8657455  52.4504318
  39.7308540  14.8075352  52.6493492  38.3863068  14.2829123  51.5711746
  38.2421837  16.5853882  52.2470322  38.4345703  16.9464703  53.5188446
  36.3674583  14.4907904  53.6301460  35.7442818  13.6628799  52.9420815
  35.8186531  15.4664917  54.3539848  36.3932152  16.0331898  54.9612999
  34.4662018  15.9446764  54.1888924  33.9021492  15.2964525  53.5182571
  33.8294868  15.9103651  55.5671654  34.5247383  16.3753643  56.2660980
  32.5371552  16.7615128  55.5896301  32.9883385  17.7489033  55.4916763
  31.8993683  16.6222610  54.7167397  31.9895210  16.6023788  56.5185394
  33.5495567  14.4860497  56.1054382  32.5111313  14.2266912  55.8992653
  34.1821098  13.7773209  55.5709496  33.6411438  14.4421425  57.6550598
  32.6750603  14.8926554  57.8827324  33.5427437  13.4527102  58.1016541
  34.4378281  14.9802589  58.1686974  34.5862312  17.3324070  53.5349922
  35.4456329  18.1469593  53.9882507  33.7598724  17.6372929  52.5883141
  33.0129509  17.0074768  52.3323021  33.7162399  18.8980560  51.8641853
  34.4298782  19.5529270  52.3641510  34.0806465  18.6885395  50.3822823
  33.3694916  17.9694920  49.9756699  33.9769096  19.5646362  49.7421303
  35.4894829  18.1338882  50.0581245  36.2001343  18.9328384  50.2696762
  35.7662735  17.2296753  50.6002350  35.6280594  17.9289875  48.5471115
  35.0057602  17.0905952  48.2341499  35.2505798  18.8559685  48.1154671
  37.0944023  17.7914772  48.2831688  37.5311470  18.7002964  48.2248802
  37.8807716  16.7844028  48.5138321  37.4719620  15.5633154  48.6798210
  36.4910507  15.3308325  48.6175995  38.1102562  14.7993336  48.8501434
  39.1337013  16.8975258  48.3112946  39.6729317  17.7155075  48.0658569
  39.6045570  16.0039921  48.3129883  32.4171219  19.5809822  52.0496559
  31.4211044  18.8224792  52.1850014  32.3044395  20.9133873  52.0162849
  33.1568565  21.4490166  51.9351196  31.0236912  21.6424541  52.0151520
  30.1787853  20.9706287  51.8638725  30.8228951  22.2651653  53.3831329
  30.9067173  21.4913540  54.1462097  31.7973614  23.3876114  53.6902733
  31.7635899  24.1354542  52.8980064  31.4620895  23.8303719  54.6281700
  32.8146477  23.0068703  53.7812309  29.4300117  22.9596920  53.4202690
  29.1237049  23.0149326  54.4648819  29.4489326  23.9416924  52.9475975
  28.6738701  22.2783527  53.0302391  30.8796062  22.5784473  50.8278427
  31.9149532  23.0291023  50.2395096  29.6356869  22.7993069  50.3559227
  28.8637314  22.2053719  50.6231804  29.1985817  23.7771816  49.4421768
  29.8206558  24.6720562  49.4241638  29.2939377  23.2782059  48.0059471
  30.2353554  22.7947445  47.7449875  28.5299664  22.5120029  47.8741112
  28.9097805  24.3863583  47.0068436  27.9271049  24.2249012  46.5636978
  28.8129616  25.2496929  47.6651611  30.1310387  24.9082508  45.9127426
  30.2787514  23.5796490  44.7134476  29.2772579  23.3999748  44.3225060
  30.9229221  23.9237919  43.9043083  30.9105549  22.8135681  45.1629410
  27.8028870  24.2669907  49.8635368  26.7858391  23.6060772  49.7282753
  27.7766285  25.5308247  50.2946968  28.6611633  26.0147209  50.3542252
  26.5144844  26.2367897  50.6708908  25.7283096  25.4848900  50.6024704
  26.6442642  26.6887569  52.1150932  26.8617649  25.7756138  52.6691399
  27.4627762  27.4027100  52.2067909  25.3996601  27.2854214  52.7126389
  25.0605106  28.1653938  52.1660805  24.5859737  26.5618687  52.6627312
  25.5464077  27.8050098  54.4917564  27.0180492  29.0457745  54.4824867
  27.9204903  28.6607590  54.0076523  26.7188663  29.9442902  53.9427986
  27.2865562  29.2940006  55.5093193  26.2184753  27.3444099  49.5946312
  27.1023731  28.0787449  49.3214722  25.0283527  27.2497711  49.0570869
  24.3110161  26.6835442  49.4871063  24.5276585  28.2443142  48.0961418
  25.3967323  28.8448715  47.8275528  23.9047260  27.6700287  46.8332596
  22.9482670  27.1921062  47.0451012  23.6495667  28.7949524  45.8646736
  24.5356941  29.4283924  45.8243408  23.4648380  28.2764111  44.9238815
  22.7633228  29.3237591  46.2154388  24.8225479  26.7612858  46.1893578
  25.0601692  26.0852070  46.8281479  23.5789013  29.1986980  48.7227364
  22.5793247  28.7646732  49.3587723  23.8189507  30.4956455  48.6062469
  24.6382427  30.8255730  48.1163406  23.2468071  31.5994968  49.3550377
  22.3012829  31.1910000  49.7117081  24.0152893  31.9288406  50.6251602
  23.3702106  32.6485405  51.1291504  24.2652149  30.7665672  51.5012817
  23.4723377  30.0301247  51.6320534  25.1317616  30.2056007  51.1512642
  24.5838051  31.2412376  52.4293365  25.3154240  32.7107925  50.2234039
  26.0906582  32.1967278  49.6552086  25.0323906  33.6370544  49.7233734
  25.7589645  33.1406822  51.1215019  22.7979984  32.9014702  48.6366272
  23.4335308  33.3278427  47.6578789  21.6833286  33.5001755  49.0431213
  21.2692413  33.1329346  49.8879662  21.3381405  34.7952843  48.5875969
  21.6360397  35.0410233  47.5682983  19.8657169  34.9858360  48.7543945
  19.3884106  34.1232872  48.2893181  19.6863346  35.0487442  49.8276939
  19.3313408  36.1625633  47.9706764  19.4882565  37.0224419  48.6218948
  19.7638512  36.3723602  46.9924049  17.8261566  36.1004562  47.7352371
  17.4415684  35.7881851  46.6159973  17.0565224  36.6053047  48.7116661
  17.5303173  36.7524033  49.5914268  16.0472279  36.6406517  48.7249069
  22.2011547  35.7918282  49.3852386  22.1485252  35.7819328  50.6094246
  22.9333286  36.6267052  48.6391869  22.8953438  36.6375542  47.6299591
  23.7912922  37.7054176  49.1441040  23.3381157  38.1991806  50.0037117
  25.1447392  37.0568085  49.6075096  24.9235439  36.1578903  50.1829414
  26.2245255  36.7266235  48.5615120  25.7154655  36.1472740  47.7912445
  26.7498341  37.6164017  48.2144585  26.8936329  36.0105057  49.0385551
  25.6632996  38.0818863  50.4605141  25.1382008  37.9345360  51.2505531
  24.1191254  38.8405838  48.2041016  24.2177582  38.6004257  47.0099030
  24.2381821  40.0561905  48.6973190  23.9809647  40.2388077  49.6567955
  24.7961769  41.2501335  47.9587898  24.3750706  41.2142639  46.9540634
  24.1417332  42.4930382  48.6388359  23.1086769  42.3250580  48.9432716
  24.7249069  42.5817413  49.5554314  24.2600021  43.8774338  48.0246201
  24.8026505  44.8775902  48.5549393  23.6784630  43.9938507  46.9188194
  26.3405857  41.2625847  47.8808708  26.8120384  42.1178741  47.0950775
  27.0547047  40.4398079  48.6986008  26.6117020  39.6706810  49.1805687
  28.5227547  40.5512810  48.8524094  28.8142529  41.6013336  48.8751602
  28.9768143  39.8198242  50.1361313  28.9593010  38.7437019  49.9636383
  30.4678764  40.0756493  50.4525642  30.8759403  39.3913269  51.1963959
  31.0477848  39.7373009  49.5938873  30.6222401  41.1178589  50.7319679
  28.2284756  40.2483063  51.4323578  28.5468025  39.5694466  52.2235069
  28.3635578  41.2816048  51.7519684  27.1410980  40.2395363  51.3573036
  29.1141815  39.8025665  47.6111832  28.7316494  38.6737442  47.3032227
  30.0766678  40.4756241  46.9003830  30.6198845  41.8322563  47.0869331
  30.7964249  42.0474892  48.1407852  29.7821369  42.4634857  46.7905731
  31.8288517  42.0083046  46.2180252  32.7582817  41.5644073  46.5747032
  31.9981003  43.0680580  46.0272865  31.4111366  41.1841736  45.0158920
  32.2711906  41.0041618  44.3709106  30.7641106  41.7403374  44.3375549
  30.6894779  39.9731140  45.6430321  29.8845692  39.6276512  44.9942818
  31.5016441  38.7067757  45.8770218  31.9578285  38.3760414  46.9803352
  31.6159382  37.9932556  44.7669334  31.1894512  38.4463234  43.9713593
  32.2978439  36.7406502  44.5541840  31.6467094  35.9914131  45.0044899
  32.1765404  36.4021339  43.0891380  31.1478443  36.1708717  42.8127174
  32.6352234  37.2151222  42.5263176  32.8476753  35.0985680  42.6011047
  33.8995399  35.0328369  42.8792419  32.2938499  34.2997551  43.0943336
  32.8525009  34.9627647  41.0912132  33.7639999  35.3274498  40.4505920
  31.7137318  34.5482903  40.5447922  31.0312881  34.1956940  41.2005768
  31.6756668  34.2434616  39.5826416  33.7553101  36.7024994  45.1440582
  34.1930733  35.7437553  45.8633957  34.5205040  37.7758408  44.9577599
  34.0688438  38.6145325  44.6220398  35.8173485  37.8281937  45.5664482
  36.2117386  36.8306084  45.3730927  36.7754517  38.8182907  44.8387032
  37.6932487  38.8192368  45.4267044  36.9660339  38.4671211  43.8245735
  36.3692245  40.2889404  44.7600060  37.2821312  41.1135941  45.0218658
  35.1786118  40.6409035  44.6718483  35.8390579  38.0888481  47.0737724
  36.8985100  37.7894096  47.6473694  34.9013596  38.7184143  47.6850853
  34.0721016  38.9529648  47.1583824  34.8388863  38.8899765  49.0923195
  35.8791351  38.8297157  49.4122543  34.1503258  40.2541237  49.2669601
  33.1658974  40.3861237  48.8179893  34.1266899  40.4300003  50.3424187
  35.0162659  41.3398972  48.7076683  35.9858360  41.4506111  49.1932297
  35.3367195  41.2036629  47.6747818  34.3675499  42.6844368  48.7378883
  33.2353745  42.9093170  49.2063904  35.0240555  43.6577148  48.0921478
  35.9578667  43.5920410  47.7129631  34.7539711  44.6266556  48.1833038
  34.1214714  37.7324448  49.8458290  34.0407410  37.8004951  51.0827751
  33.7177162  36.6325340  49.2130852  33.7613449  36.6618233  48.2044525
  33.1696243  35.4931068  49.8202591  32.3793144  35.8558235  50.4774857
  32.5581703  34.4771538  48.8530464  33.3063393  34.0872612  48.1628838
  32.0116234  33.2541351  49.6144295  32.8527527  32.6898918  50.0172081
  31.5297318  33.4549828  50.5712700  31.3433170  32.5944138  49.0610466
  31.4057159  35.1149063  48.0225906  31.7026234  36.0256119  47.5024376
  31.2137032  34.3542442  47.2658653  30.1469364  35.4901848  48.7992363
  30.2786255  36.2365761  49.5826035  29.3936005  35.8492851  48.0980721
  29.6182404  34.6253090  49.1999435  34.2257347  34.7815628  50.7660103
  35.3449821  34.4952087  50.3442574  33.8403778  34.5091209  52.0447311
  32.9274673  34.7155609  52.4243088  34.7703438  33.8050537  52.9718475
  35.8055763  33.9458847  52.6611099  34.4881096  34.2495689  54.4240913
  33.4492950  34.5384789  54.5837669  34.7823372  33.4983864  55.1570663
  35.4470139  35.4151573  54.5987778  36.4141045  34.9158096  54.5397377
  35.2955093  36.0596390  53.7328682  35.4057426  36.1676102  55.8933830
  34.4017525  36.5061302  56.1493263  35.7593193  35.5003166  56.6793861
  36.3189926  37.3595428  55.8216629  36.2513885  38.0531387  55.0905991
  37.0332413  37.8044395  56.8323898  37.2816467  37.2053680  57.9532890
  37.9722557  37.4801178  58.6371536  37.0012512  36.2391396  58.0420609
  37.5544014  38.9817543  56.8815384  37.9575653  39.2520523  57.7672653
  37.5086327  39.6021118  56.0858231  34.6969376  32.2649994  52.8647041
  33.8511887  31.6391182  53.5527267  35.6142464  31.7039909  52.0720978
  36.0925484  32.3418694  51.4520683  35.8102341  30.2175026  51.9751396
  34.9357643  29.5999680  52.1802063  36.4713974  29.7736759  50.7095070
  37.4706879  30.1950436  50.6000977  36.5997429  28.6915798  50.7359962
  35.7060089  30.2309113  49.4724045  34.3564072  29.9589577  49.2074776
  33.9982147  30.7435722  48.1642990  33.0001564  30.7573490  47.7518806
  35.0553741  31.4505424  47.7361794  35.0383148  32.0972900  46.9605942
  36.1513939  31.1069450  48.5237236  37.0865402  31.6357803  48.4131088
  36.7362213  29.8577595  53.1839333  37.5068741  30.6997185  53.6903534
  36.5981674  28.5899143  53.5743523  35.8927040  28.0219517  53.1273117
  37.0530243  28.1044788  54.9319992  37.8808823  28.7055054  55.3081932
  35.8269882  28.0795498  55.9283142  35.0165977  27.5886173  55.3894691
  35.9617119  27.3294373  57.2148438  36.7890167  27.6509590  57.8475266
  35.0348549  27.3687153  57.7871094  36.2147026  26.2832394  57.0428734
  35.4517899  29.5647736  56.2818108  36.1518555  30.0090866  56.9893379
  35.3735542  30.1014385  55.3363113  34.5585899  29.7166748  56.8878021
  37.5282478  26.6968231  54.9208641  36.7576218  25.7526569  54.6389313
  38.7768631  26.5505142  55.3086967  39.3779793  27.3621502  55.3113251
  39.3976173  25.2524796  55.3817558  38.6921654  24.4265404  55.2908173
  40.4619255  25.1474934  54.2648125  41.1987839  25.9469528  54.3423386
  41.0993652  24.2898540  54.4798126  39.8519478  25.0939445  52.8846016
  39.1634407  26.1477623  52.2843666  39.0626106  27.1150684  52.7540054
  38.5513191  25.9094048  51.0110664  38.0399284  26.7559547  50.5772095
  38.4488144  24.6671333  50.4124794  37.6839600  24.4459305  49.2358513
  38.0192642  23.6773129  48.7685165  39.1233444  23.5891209  51.0589981
  39.0905304  22.5957603  50.6364403  39.9262924  23.8495407  52.1997070
  40.5971375  23.0902424  52.5736618  40.1186447  25.0079174  56.7078629
  40.5479660  25.9556313  57.3074608  40.1603279  23.7398815  57.2000351
  39.9666100  22.9136028  56.6524620  40.4787560  23.4382172  58.5820427
  41.0930481  24.2081661  59.0488777  39.1649361  23.3053112  59.3721581
  38.7145691  22.4049664  58.9542503  39.4244995  23.0276051  60.3937302
  38.1402664  24.3965683  59.3920822  38.0016060  24.8062210  58.3915520
  36.7753792  23.8916359  59.8427734  36.7896423  23.6029606  60.8937569
  36.0417328  24.6650181  59.6153069  36.3894043  22.9538364  59.4432030
  38.7531738  25.5782223  60.2158318  38.8890495  25.2626743  61.2502708
  39.6795654  25.9807892  59.8061523  37.9838943  26.3489647  60.1682243
  41.2807693  22.1487770  58.5762367  41.3687630  21.4843960  57.5713272
  41.8726616  21.7832737  59.7080765  41.5853958  22.2153778  60.5746002
  42.6473961  20.5345612  59.8664093  43.1679688  20.5550766  60.8238449
  41.6101494  19.3640079  60.0692062  41.1803322  19.2276421  59.0768547
  42.0760841  18.3860855  60.1903458  40.6720428  19.5215702  61.2883492
  39.9307175  20.2569199  60.9756126  40.1718941  18.5564537  61.3689613
  41.3465614  19.9414902  62.5559349  42.3206215  19.2564049  62.8650436
  40.8888359  20.8861179  63.2457771  43.6816368  20.3326435  58.7697716
  44.5966949  21.1598034  58.6466827  43.6586418  19.2828732  57.9385719
  42.8595085  18.6754456  58.0504379  44.6742325  18.9538994  56.9384689
  45.6758919  19.1324902  57.3294716  44.6109428  17.4474010  56.6016808
  43.6107903  17.1093006  56.3306122  45.2875443  17.3234596  55.7561340
  45.1599579  16.6202221  57.7028351  46.1384659  17.0260906  57.9595299
  44.4620705  16.7036381  58.5359612  45.3333206  15.1268768  57.4072189
  45.5005684  14.4976511  58.2814026  44.4011002  14.7405920  56.9950905
  46.5047798  14.8379250  56.4102554  46.1386375  15.2551556  55.4721870
  47.4060364  15.2720308  56.8431396  46.6157303  13.4032555  56.3255157
  45.7665482  12.9708414  55.9908257  47.2787285  13.1238976  55.6166458
  46.9855042  13.0008812  57.1749039  44.3951187  19.7261028  55.6041183
  45.3567619  20.1312637  54.9628410  43.1424065  19.9721375  55.2918816
  42.4097176  19.7110672  55.9361687  42.6784058  20.4875031  54.0604095
  43.1730576  19.9650707  53.2415810  41.1449852  20.3804932  54.0550117
  40.8473663  19.3618679  54.3038597  40.7066498  21.0373898  54.8063126
  40.7632790  20.7681217  53.1104774  43.0600281  21.9714737  53.7892380
  43.0350647  22.3355904  52.6222038  43.5618095  22.6906490  54.7702980
  43.6691208  22.2467918  55.6711731  44.0930710  24.0420647  54.5561790
  43.3974571  24.5736313  53.9068222  44.3380814  24.7604923  55.8934250
  43.4680557  24.7011986  56.5473671  45.5572205  24.0726128  56.5633430
  46.4839249  24.4669437  56.1464233  45.4596367  24.3675079  57.6081467
  45.5309296  22.9892769  56.4458885  44.7437973  26.2031746  55.5686073
  45.5713272  26.2687607  54.8622131  43.8858109  26.7420273  55.1666145
  45.1072311  26.6035709  56.5150185  45.3027687  23.9286385  53.6004562
  45.4364395  24.8255253  52.7743301  46.0701447  22.8706970  53.6999168
  45.8617363  22.1176682  54.3399277  47.3051376  22.7082157  52.9499283
  48.0213203  23.5047722  53.1516190  48.0683022  21.4107933  53.3800354
  47.3535042  20.5917282  53.4594307  49.1870766  21.0277863  52.3456116
  48.6382141  20.6358700  51.4893074  49.7866020  21.9212055  52.1710510
  49.8575859  20.2524910  52.7163391  48.7306671  21.6156807  54.7653732
  48.9761620  20.6280346  55.1557388  49.6939964  22.1152000  54.6625099
  48.1427307  22.0790405  55.5576630  47.0215263  22.7876129  51.3954086
  47.8094826  23.2972775  50.6003685  45.9396248  22.1405163  51.0671501
  45.3486214  21.9201584  51.8559799  45.4154053  22.0675602  49.6807556
  46.2753334  21.8606892  49.0437012  44.2579689  21.0814953  49.5771255
  43.3676071  21.6321964  49.8805847  44.1483231  20.8591785  48.5156860
  44.3770294  19.8255081  50.3357658  44.4930420  20.0651226  51.3927536
  43.0899696  18.9558487  50.1299057  42.8346214  19.0133686  49.0717964
  43.3321838  17.9103413  50.3205528  42.2979469  19.3892918  50.7405815
  45.5883827  19.0174141  49.8409576  46.5206490  19.5817966  49.8624535
  45.6452370  18.1018772  50.4297409  45.3444290  18.6761265  48.8349228
  44.9864235  23.4413795  49.1576538  44.7183609  23.5227242  47.9287758
  44.9337006  24.6036873  49.9138947  45.2112770  24.4818077  50.8773232
  44.5203552  25.8873100  49.4054565  44.4167213  25.8186378  48.3225670
  43.1255913  26.1940422  49.9828568  43.2355614  26.0699348  51.0601692
  42.8206978  27.2341881  49.8678093  41.9232330  25.2605381  49.5746498
  42.1267815  24.2323952  49.8739662  41.0755806  25.6327171  50.1500473
  41.5884895  25.2550087  48.1031265  42.3864441  24.7891636  47.5248909
  40.7486153  24.5770493  47.9511871  41.3075142  26.5652885  47.5296822
  42.1296844  27.0429325  47.1891022  40.1404076  27.1490955  47.4403687
  38.9837036  26.6234398  47.8629646  38.1374512  27.1509933  47.7028389
  38.9214897  25.6435394  48.0996628  40.0754013  28.3079453  46.8659096
  39.1567116  28.7029610  46.7242203  40.9338875  28.7631931  46.5904999
  45.5264091  27.0608730  49.5927238  45.2787170  27.9648380  50.3845253
  46.6091614  27.1160851  48.8089523  47.1504898  25.9780846  48.0658073
  46.3784332  25.5934772  47.3993950  47.4460182  25.1611614  48.7241364
  48.3696327  26.4389362  47.2344513  47.8811493  26.8195572  46.3374481
  49.1293945  25.6602573  47.1672211  48.8553009  27.6045074  48.1746101
  49.3759804  28.4517517  47.7283325  49.5204735  27.1892262  48.9317017
  47.6323357  28.1967602  48.8973656  47.7459908  28.4626808  49.9483032
  47.0969238  29.3855343  48.2774315  47.7247772  30.4552021  48.4013214
  45.9605560  29.3656940  47.5559006  45.4776840  28.5051270  47.3405838
  45.3977928  30.5808983  46.9887390  46.2191620  31.2174816  46.6597786
  44.6265640  30.2804546  45.7376404  44.2597961  31.2665634  45.4527397
  45.1437302  29.8621178  44.8741379  43.4296799  29.3479252  46.0650826
  43.5265274  28.1939716  46.4668312  42.2335510  29.8267784  45.8334770
  44.6827774  31.4818096  48.0062256  44.7604294  32.7242126  48.0112457
  44.1574898  30.7903805  49.0216331  44.5032043  29.8497372  49.1472244
  43.4198761  31.3658543  50.1803398  42.9190216  32.2769279  49.8529396
  42.3573151  30.4131107  50.6277466  42.8940315  29.6021156  51.1200104
  41.8956680  30.9717598  51.4419327  41.2874222  29.8210106  49.6865311
  41.7785072  29.2402649  48.9057159  40.1638412  28.9835186  50.2722855
  40.4906998  27.9463634  50.3469582  39.7807236  29.2823315  51.2480087
  39.3685417  28.7332554  49.5701714  40.4780464  30.8760185  48.9413719
  39.7685738  30.3785458  48.2801132  39.9492378  31.5639439  49.6010857
  41.1564751  31.5611935  48.4330711  44.3978615  31.7594090  51.2230568
  44.1291885  32.7367325  51.9402962  45.5200577  31.0487499  51.3819962
  45.6201363  30.2667046  50.7507362  46.6327896  31.3098984  52.3498764
  46.1556664  31.6508369  53.2686882  47.4757500  30.2050285  52.7192650
  46.8596992  29.4369144  53.1867981  47.9559631  29.7269001  51.8655167
  48.5200882  30.6366119  53.6064224  49.3271217  30.3742752  53.1575546
  47.3881531  32.4903221  51.7606430  47.6688538  32.5204048  50.5300484
  47.7447128  33.4570122  52.6350708  47.6357040  33.1703148  53.5973701
  48.4134789  34.7004852  52.2309914  48.3811760  35.3407402  53.1125450
  49.8749886  34.5289650  51.9431801  49.9628334  33.9848785  51.0027809
  50.2847824  35.5090485  51.6990356  50.9109421  33.9791183  52.9919357
  50.6078186  32.9925728  53.3425713  52.3072586  33.8673973  52.3670197
  52.9577751  33.3936234  53.1021767  52.3564186  33.3221626  51.4244652
  52.7649117  34.8431358  52.2039604  51.0478630  34.8511391  54.2545509
  50.1378975  35.0279388  54.8279610  51.6957855  34.3391724  54.9660187
  51.4908829  35.7886658  53.9185791  47.5920982  35.5657349  51.3108444
  48.1097794  36.2490196  50.3986015  46.1951561  35.5824738  51.4570236
  45.8246384  35.0185165  52.2085342  45.3114738  36.2815437  50.5678291
  45.3196335  35.8320160  49.5748749  43.8074608  36.0202827  50.8898811
  43.6668205  34.9879951  50.5694008  43.2328377  36.3367882  52.2534447
  43.9213715  35.8581619  52.9498215  43.2472763  37.4140053  52.4192734
  42.2150497  35.9504852  52.3079414  43.0105667  36.7030602  49.9170570
  43.0570450  36.1783104  49.1145096  45.6594048  37.7376099  50.3631744
  45.9511070  38.4882889  51.2765770  45.6055222  38.1434975  49.0721779
  45.1359863  37.5084877  48.4425735  45.9408073  39.5368690  48.5595055
  46.8947411  39.8223915  49.0028801  46.1570854  39.5082626  47.0466118
  45.3699837  39.0410347  46.4547768  46.3528557  40.5194664  46.6898994
  47.4328270  38.6939774  46.8190155  48.1635742  39.2879753  47.3679085
  47.4446716  37.7304192  47.3284378  47.8104820  38.3939705  45.3128128
  46.9500961  38.0155525  44.7608719  48.0342484  39.3778763  44.9005470
  48.9975281  37.4411392  45.1743355  48.6689720  36.4401283  45.4538460
  49.3482895  37.2818642  44.1546783  50.0545197  37.6174469  46.1767540
  50.4227600  38.5541954  46.0930862  49.6450653  37.4697990  47.0881538
  50.7891312  36.9462852  46.0035782  44.7801285  40.4923859  48.8786240
  45.0344849  41.6742744  49.1043282  43.5247879  40.0316772  48.9320641
  43.3583145  39.0417709  48.8203926  42.4485588  40.9572716  49.1909294
  42.5154915  41.7681961  48.4656525  41.1339149  40.1595955  48.9446793
  41.2011948  39.3623085  48.2044678  40.8651848  39.6336403  49.8607864
  40.0262337  41.0363083  48.4699020  40.0284081  42.2044868  48.7626648
  39.0760612  40.5023956  47.8805809  39.1062889  39.5809784  47.4680557
  38.3133965  41.1264687  47.6592865  42.3976173  41.5575523  50.6841125
  42.5561714  40.9032784  51.6954613  42.1710663  42.8852386  50.6487923
  42.0944862  43.2717781  49.7188339  41.9236603  43.7129974  51.8251724
  42.4093361  43.1895332  52.6487083  42.4871902  45.1514931  51.6424522
  42.0931549  45.8138466  52.4132500  43.9727821  45.1995850  51.6208839
  44.2556381  46.2501183  51.6877327  44.4435349  44.7523613  52.4963760
  44.4699860  44.7907524  50.7412567  42.0861397  45.6372223  50.3384438
  41.2257271  46.0308723  50.5007248  40.4889297  43.8338089  52.2575569
  40.2364426  44.0190201  53.4538155  39.5335121  43.6083717  51.3477058
  39.8740692  43.3495560  50.4327545  38.1052628  43.9882240  51.4779015
  37.9498672  44.7551384  52.2367096  37.6315422  44.4322052  50.0925446
  37.5824051  43.6465454  49.3386078  36.6007614  44.7531242  50.2428932
  38.4262161  45.5900574  49.5388489  39.3290901  45.2638550  49.0226021
  37.7895966  45.9807320  48.7449989  38.7638817  46.8020554  50.5705490
  39.8312645  46.7615738  51.1893196  37.8974113  47.6569252  50.7451324
  37.3297882  42.7041130  51.9539566  36.1686935  42.8033180  52.2440910
  37.8859444  41.4897194  51.8527756  38.8473778  41.5623055  51.5519714
  37.2654686  40.1521645  52.2094612  36.3000107  40.0257721  51.7195511
  38.2545662  39.0801353  51.6557236  38.1728668  39.1556358  50.5714149
  39.2616272  39.4596634  51.8286324  38.2402687  37.6484795  52.0936928
  38.0958366  37.5452728  53.1691399  37.0960693  36.8038063  51.4195023
  37.0885353  36.8068924  50.3295326  37.1433296  35.8078384  51.8598595
  36.1400452  37.1621094  51.8012505  39.5502205  36.9347954  51.6651726
  39.6495094  36.8396797  50.5838776  40.4039574  37.4889526  52.0552292
  39.7038498  35.9594193  52.1268463  36.9300156  39.9953079  53.6966553
  37.6361504  40.4616814  54.6250229  35.9604683  39.2426300  53.9760017
  10.7475395  36.8700485  45.3666458  11.4040108  36.9366531  46.1313057
  11.1148195  37.4881821  44.6573334   9.8126707  37.0765877  45.6883011
  10.8433933  35.4441910  44.8958740  10.4016314  34.6826553  45.5385323
  10.0395918  35.2408981  43.5500793  10.0276709  34.1666985  43.3655243
   8.9830265  35.4334297  43.7363586  10.5327015  35.9531937  42.2843361
  11.4213991  35.4526711  41.8998833   9.8248749  35.8070183  41.4684219
  10.8301229  37.7481079  42.3026199   9.0918932  38.2499161  42.1392174
   8.4347115  37.7600327  42.8577042   8.9166994  39.3183899  42.2647972
   8.8558559  37.9675293  41.1132278  12.2725153  35.0712242  44.8874588
  13.1208315  35.8447342  44.4263992  12.6570520  33.8707161  45.3343277
  11.8726997  33.3014107  45.6185570  13.9691048  33.4722176  45.7085915
  14.6781139  34.1210518  45.1943741  14.1557808  33.6721611  47.1758041
  14.1905737  34.7328491  47.4244576  13.3701353  33.1280403  47.7000122
  15.5754490  33.1955605  47.5877571  15.7152224  32.1438789  47.3376846
  16.3181381  33.7376022  47.0023460  15.9382000  33.3824692  49.4054451
  17.2672443  32.2272377  49.5216713  18.1374111  32.6676979  49.0349388
  17.5752163  32.0321617  50.5489006  16.9922199  31.2726822  49.0730247
  14.1190882  31.9561806  45.2959595  13.3477182  31.0825672  45.7013435
  15.1969061  31.6364536  44.6130943  15.8815670  32.3635559  44.4625473
  15.4915533  30.3133945  44.1461029  14.6209450  29.8659325  43.6666031
  16.6419697  30.3176479  43.1285744  17.4181118  30.9652481  43.5364037
  17.2772350  28.9435024  42.8539772  17.9187565  28.6463909  43.6836014
  16.4838638  28.1983719  42.7953186  17.9312019  28.8673706  41.9852829
  16.3034077  31.0318470  41.8108215  15.8108139  30.3976955  41.0737343
  15.5220156  31.7791557  41.9488716  17.4633694  31.5995560  41.0918732
  17.1244354  32.2561340  40.2905426  18.0891552  32.1130829  41.8217926
  18.1098652  30.7991104  40.7321129  15.8203220  29.4052715  45.3579178
  16.5751972  29.7429352  46.2955856  15.3829041  28.1283951  45.2793655
  14.8861008  27.8941727  44.4317627  15.5383234  27.0960598  46.3400803
  16.4753857  27.3250542  46.8476028  14.4323320  27.2921429  47.4096184
  13.4516392  27.2662601  46.9345665  14.4546175  26.4624538  48.1161728
  14.4555950  28.6780148  48.0701218  15.4755535  28.8308506  48.4228630
  14.0747995  29.3998394  47.3475838  13.4794044  28.6549587  49.2362099
  12.4819574  28.5507317  48.8091965  13.6515293  27.8405838  49.9399605
  13.3310690  29.9427395  49.8766212  12.6472235  30.5842457  49.5012207
  14.1674709  30.4915600  50.7395859  15.2608671  29.9091358  51.2149010
  15.8497791  30.4638958  51.8194885  15.5562944  28.9775620  50.9599686
  13.7988043  31.6384621  51.2379570  13.0091410  32.0608215  50.7708969
  14.1836166  32.0160904  52.0920143  15.6398211  25.7427597  45.8087769
  15.1721535  25.4745197  44.6806450  16.4019890  24.9241390  46.5362244
  16.8839741  25.2752590  47.3513947  16.6317177  23.5622749  46.2806816
  16.7015514  23.3723030  45.2096367  17.5827751  23.2629833  46.7211609
  15.4458370  22.7275314  46.8882828  15.0241594  23.0293694  48.0387230
  14.9262905  21.7857609  46.1214256  15.3062992  21.7530766  45.1862106
  13.6755342  20.9489079  46.3090363  13.4158115  20.9302559  47.3674774
  12.4387798  21.3194942  45.4155655  12.6045618  21.1847248  44.3467102
  11.3054028  20.3372917  45.7442856  10.5366621  20.2720490  44.9742928
  11.5149364  19.2676640  45.7541161  10.8325558  20.5675926  46.6989975
  11.9514294  22.7695446  45.6062355  11.7570353  23.0082436  46.6518631
  12.7192354  23.5030823  45.3602638  10.7377834  23.0554676  44.8350639
  10.8821821  22.8866692  43.7679405   9.8923826  22.5452003  45.2966080
  10.5074759  24.1047535  45.0196037  14.0998144  19.5188923  46.1801224
  14.9022379  19.1664009  45.3391571  13.6847105  18.6734791  47.0794678
  12.9541740  18.9954777  47.6981239  14.1730947  17.2537613  47.2932892
  14.8958263  17.0536270  46.5022736  14.8103266  16.9966316  48.6595421
  14.1037779  17.2452030  49.4514427  15.0270395  15.9303989  48.7249870
  16.0901546  17.8509045  48.9664574  16.7499180  17.8639679  48.0989037
  15.8259487  18.8926182  49.1484566  16.7932453  17.2419682  50.2561684
  17.5188675  17.9444237  50.6661987  16.0720081  17.0302849  51.0455437
  17.3643894  15.9477901  49.9652786  17.5787201  15.7124586  49.0067482
  17.4755898  14.8869200  50.7714500  17.3436623  14.9437017  52.0830193
  17.3268318  15.8395109  52.5492287  17.4309940  14.0925303  52.6196594
  17.7809010  13.6754370  50.3333549  17.8951454  13.4913368  49.3468704
  17.8938694  13.0021152  51.0776520  13.1530256  16.1665554  47.0140495
  11.9960270  16.2905617  47.3519058  13.6895914  15.0471907  46.5341377
  14.6708021  15.0443573  46.2947273  12.9537144  13.7185860  46.7059288
  12.6599121  13.7439766  47.7552795  11.9978218  13.7419434  46.1826439
  13.7692909  12.4265871  46.4688225  14.9732065  12.4971666  46.1251144
  13.1783676  11.2605877  46.7832222  12.2016335  11.3202744  47.0332794
  13.9411869  10.0761652  46.9688148  14.5732861  10.0896206  46.0809135
  14.6012926  10.1243935  48.3457298  15.3214197   9.3153028  48.4677315
  15.1550570  11.0522051  48.4892921  13.9039488  10.1307907  49.1834526
  13.1081181   8.8237066  46.7933807  11.9803019   8.7563257  47.2984314
  13.6424093   7.7612777  46.1070442  14.5391121   7.8120947  45.6450462
  12.9594479   6.4960413  45.7844086  12.2156181   6.2194734  46.5316238
  12.1231861   6.6254945  44.4812050  11.4656105   7.4815969  44.6321449
  12.9390869   6.8568797  43.2045059  13.4800825   5.9407859  42.9674454
  12.2787132   7.2124209  42.4135590  13.6995878   7.6300240  43.3140335
  11.3508825   5.4416785  44.1757851  10.6810007   5.7439919  43.5581551
  13.9359217   5.3145251  45.6380348  15.1075277   5.5362244  45.8655548
  13.4495745   4.0633979  45.4605522  12.4473648   3.9398210  45.4806442
  14.2562313   2.8275094  45.4141197  15.2428732   3.1522422  45.0836754
  14.1553421   2.1788802  46.8155441  14.4456930   1.1370909  46.6796303
  14.9722576   2.7194064  47.9874840  15.0416164   3.7987335  48.1229095
  14.6923628   2.1038628  48.8423920  15.9963350   2.4534342  47.7255402
  12.7647963   2.1474841  47.1793289  12.3766375   1.3715014  46.7684975
  13.8608713   1.8364093  44.3589630  12.6917868   1.6885351  44.0108070
  14.8650484   1.1385306  43.8115196  15.7731838   1.1794351  44.2516556
  14.6373329   0.0558199  42.8963470  13.6063547  -0.0410286  42.5560493
  15.4376917   0.3254015  41.6394348  15.3197880  -0.6013489  41.0778923
  14.9542294   1.6047127  40.8692360  15.1499233   2.4919348  41.4714279
  15.4694862   1.6242031  39.9089088  13.8876057   1.4587514  40.6986237
  16.9444141   0.3865402  41.7927017  17.1059361   1.1712372  42.5317993
  17.4187813  -0.5300770  42.1432571  17.4138241   0.6443000  40.8433266
  14.8358545  -1.3540685  43.4580078  15.6679058  -1.4113410  44.3285980
  14.0252943  -2.3492556  43.0180435  13.3451557  -2.1572196  42.2964935
  14.2087955  -3.6746402  43.4415474  14.5191908  -3.6661465  44.4863853
  12.7952299  -4.3600178  43.2870102  12.5497255  -4.3194361  42.2257919
  12.8886757  -5.4183645  43.5304680  11.6990356  -3.6646256  44.1516151
  11.6107655  -2.6070580  43.9028931  10.8128862  -4.2588263  43.9285316
  11.9876337  -3.7482014  45.6376305  12.0240269  -4.7899747  46.3181725
  12.3004971  -2.7279975  46.2637939  15.3589048  -4.3937736  42.6984825
  15.8188601  -5.4590745  43.1296082  15.6937027  -3.9345784  41.4832611
  15.2348995  -3.0904362  41.1717720  16.6222153  -4.4685593  40.5457687
  17.2691822  -5.1298532  41.1221619  15.9301481  -5.1476097  39.3946686
  15.1773701  -4.4628959  39.0040359  16.5720768  -5.3480048  38.5368385
  15.2243996  -6.3978076  39.8203049  15.9707918  -7.0786161  40.2295723
  14.4391098  -6.2336860  40.5581932  14.4825315  -7.0284028  38.6072121
  15.1410761  -6.9717093  37.7404900  14.2150459  -8.0671654  38.8009224
  13.2264214  -6.3518300  38.2543030  12.6453352  -6.1488900  39.0550880
  12.7170868  -6.2892594  37.0583115  13.3479853  -6.6140223  36.0198288
  14.2499781  -7.0537319  36.1345673  12.7947664  -6.6523528  35.1756859
  11.4925213  -5.9807687  37.0629349  11.0123034  -5.8435521  37.9408112
  10.9661427  -5.9905906  36.2010002  17.3527527  -3.2904904  39.9474792
  16.8323174  -2.1557295  39.7727280  18.5856552  -3.4854760  39.5550308
  19.0149727  -4.3893886  39.6918793  19.3426380  -2.5820780  38.6590271
  19.1910000  -1.5385622  38.9350357  20.8308201  -2.9539902  38.8903770
  20.9257450  -2.9165044  39.9755898  21.0317478  -3.9983406  38.6515045
  21.9029026  -1.9253110  38.2695236  21.5363312  -0.7729208  37.8252869
  23.0905209  -2.3106856  38.3136673  18.8877487  -2.8402491  37.2302322
  19.4755039  -3.7315390  36.5557594  17.9629078  -2.0227087  36.7298164
  17.5989742  -1.3139666  37.3505707  17.4589863  -2.1363056  35.3701057
  18.3104153  -2.1196432  34.6897469  16.6635952  -3.4005766  35.1321678
  17.3707638  -4.1864557  35.3975067  15.3681316  -3.4539523  36.0301323
  14.6531992  -4.2595744  35.8629646  15.8405962  -3.5377853  37.0088310
  14.8043957  -2.5483267  35.8062057  16.3805923  -3.4725306  33.7495651
  17.2565060  -3.5846467  33.3729935  16.6176167  -0.8407502  35.0543365
  16.1987877  -0.0806447  35.8875160  16.4669762  -0.5929289  33.7584991
  16.9511166  -1.1079019  33.0370331  15.7009020   0.5958433  33.2412300
  16.1862488   1.4693029  33.6766701  15.7860565   0.6861306  31.6800575
  15.0150347   0.0249107  31.2845669  15.4007807   1.6691841  31.4093761
  17.0966396   0.4192663  30.9523716  17.1239491   0.7457510  29.9127750
  17.8591232   0.9773908  31.4957104  17.4403458  -1.1333793  30.9604187
  18.3973579  -1.4934624  31.5697365  16.7088795  -1.9055537  30.3356133
  14.2352123   0.5792847  33.6940002  13.7232227   1.6351835  34.1036758
  13.4965029  -0.5158514  33.6150055  13.9129953  -1.3645638  33.2595901
  12.0097589  -0.5489551  33.8006096  11.4793949   0.1631250  33.1683388
  11.4793539  -1.9458638  33.4383125  11.9767971  -2.3345027  32.5497131
  11.7858658  -2.6651361  34.1977882   9.9603024  -2.1448953  33.2846146
   9.8780222  -3.1098757  32.7844734   9.5742626  -2.1186366  34.3036270
   9.1759863  -1.1095254  32.5207062   8.0259361  -0.7900612  32.9308968
   9.6913643  -0.6729519  31.4739017  11.7714739  -0.2974825  35.3073997
  10.6859646  -0.1816120  35.7808723  12.8473701  -0.2518775  36.0959396
  13.7264986  -0.2812296  35.5995750  12.8771315   0.1739875  37.4720268
  11.8799791   0.1776098  37.9122314  13.8210745  -0.7472978  38.3241577
  14.7404251  -0.9097948  37.7615852  13.9409285  -0.1874725  39.2516975
  13.1956120  -2.1028922  38.7585068  12.7526188  -2.6181164  37.9062157
  14.0804329  -2.6823342  39.0220299  12.1554890  -2.0276937  39.9367371
  12.4404221  -1.3631462  40.9370537  11.1480312  -2.7875638  39.8529091
  13.3502531   1.6228361  37.5795593  12.4890957   2.4699187  37.8039589
  14.6324883   1.9149336  37.3259659  15.2033558   1.1716880  36.9494057
  15.3424091   3.1548331  37.5089912  15.2635918   3.4251351  38.5620003
  16.7893162   3.1003821  37.0523987  16.9179611   2.9598820  35.9791718
  17.4665222   4.5481544  37.1206360  18.4055977   4.5633903  36.5674591
  16.8448601   5.3103819  36.6509056  17.5058231   4.7415648  38.1926270
  17.7011986   2.1297495  37.9159088  17.8496227   2.5481091  38.9114227
  17.1860924   1.1855074  38.0924759  19.0263481   1.7720262  37.2937508
  19.6787777   2.6341748  37.4320869  19.4849186   0.9497287  37.8429680
  18.9729576   1.5615892  36.2255859  14.5816498   4.3097315  36.8078194
  14.2226944   5.2564297  37.3999405  14.4299383   4.1783762  35.5092468
  14.5285625   3.2350626  35.1620712  13.8455496   5.2354846  34.7100258
  14.4099188   6.1497903  34.8934212  13.9445715   4.9125509  33.2608376
  13.4622240   3.9408846  33.1544838  13.4914093   5.6663842  32.6170387
  15.3719788   4.6833763  32.6699257  15.9330969   3.8445983  33.0818672
  15.2002735   4.4709063  31.2328815  14.4503689   3.7169654  30.9934692
  14.8629293   5.3867946  30.7476521  16.1921444   4.1969333  30.8733959
  16.1892891   5.9947386  32.9104462  15.4757614   6.8054042  32.7628059
  16.6105061   6.1295891  33.9066849  17.0355892   6.0119858  32.2237320
  12.3452501   5.4011416  35.0778885  11.9390860   6.5929999  35.2369080
  11.5947914   4.3347931  35.2347717  12.1085043   3.5048153  35.4942780
  10.1734390   4.4062514  35.5443153   9.7014847   5.1044436  34.8530197
   9.5749025   2.9798074  35.3967552  10.1537914   2.3130660  36.0358543
   8.5819387   2.9899099  35.8462257   9.3584547   2.4266582  34.0423317
  10.2348375   2.5756290  33.4115715   9.2869024   1.3504211  34.1995087
   8.0255575   2.8492301  33.3598824   7.5499115   3.9485786  33.4732819
   7.4002843   1.9800725  32.6003647   7.7530026   1.0470437  32.4417686
   6.4993167   2.3255286  32.3020058   9.7991095   4.9244132  36.9958115
   8.9558229   5.7809758  37.2063293  10.6365738   4.6044321  37.9951363
  11.4113169   3.9604795  37.9230347  10.5199203   5.1769900  39.3540115
   9.4496861   5.2598853  39.5433197  11.0998220   4.1883092  40.3684464
  12.0574875   3.8370304  39.9842796  11.2287607   4.6147156  41.3632584
  10.2159414   2.9317224  40.5446243   9.1678801   3.1687334  40.7276344
  10.2566080   2.4473441  39.5690079  10.6976414   1.8892447  41.5382690
  11.6728983   1.6052974  41.1428604  10.7455692   2.2469590  42.5667839
   9.8143587   0.6760628  41.5060577   8.8283634   0.9843017  41.8537712
   9.7220812   0.2896162  40.4910507  10.4448662  -0.4017271  42.2802086
  11.3948984  -0.5614570  41.9768410  10.4629889  -0.2347558  43.2761459
   9.9554262  -1.2794455  42.1794167  11.0851374   6.5904927  39.4473763
  10.5387611   7.3810534  40.1972351  11.9296694   6.9751444  38.5162315
  12.3216324   6.3152089  37.8597603  12.4869242   8.3831682  38.3210487
  12.5811930   8.9846182  39.2251930  13.7045555   8.5913630  37.4080009
  13.4424572   8.3806458  36.3711777  14.2747316   9.9951105  37.3872414
  13.5936193  10.7181492  36.9384537  14.5304661  10.2799702  38.4078102
  15.1467009  10.0008011  36.7332268  14.7827969   7.7998638  37.7078323
  14.5397501   6.8848438  37.8667908  11.3465109   9.1905804  37.6619720
  11.0404396  10.2944212  38.0504684  10.6268244   8.6234579  36.6529312
  11.0660038   7.8508768  36.1729927   9.3643341   9.2346439  36.1264114
   9.6196499  10.2068853  35.7049141   8.7327518   8.3233175  34.9964104
   8.7109680   7.2853789  35.3285370   7.7023401   8.5996351  34.7728004
   9.4331331   8.3469667  33.6324730   9.3092537   9.3470583  33.2170563
  10.5074902   8.1808615  33.7116318   8.9557037   7.2371640  32.6827049
   9.5257587   7.4166718  31.7711582   9.2152262   6.2535152  33.0740967
   7.4805493   7.2157812  32.3005447   6.9442272   7.2249422  33.2494278
   7.2692046   8.1484728  31.7775555   6.9592237   6.0170507  31.5677509
   6.8522782   5.2620544  32.2300568   6.0803232   6.2403359  31.1230297
   7.5382509   5.7306809  30.7913361   8.2985563   9.5151730  37.2362900
   7.6278872  10.5427294  37.2326050   8.0767527   8.5591688  38.1611290
   8.5130577   7.6620002  38.0035591   7.0807443   8.6559706  39.2307396
   6.0919952   8.9366026  38.8678055   6.8599348   7.2357945  39.8325119
   7.8427134   6.8096356  40.0340919   6.3329506   7.3899598  40.7741165
   6.1505823   6.3747039  38.8973045   5.1367188   6.7396040  38.7328796
   6.7377391   6.4244041  37.9803085   6.2245436   4.8687057  39.2055359
   7.2739601   4.2489653  39.3370399   5.0736003   4.2069368  39.4082642
   4.1876340   4.6910901  39.3806229   5.1432571   3.2259688  39.6383705
   7.4320350   9.7716684  40.1904259   6.5115619  10.5356503  40.5967712
   8.6766167   9.7478342  40.6359367   9.2541943   8.9288673  40.5102425
   9.2183599  10.7034435  41.5499115   8.6391926  10.6256847  42.4700279
  10.6249323  10.3250017  41.9342766  10.5991688   9.3864861  42.4880142
  11.2931795  10.0889502  41.1061287  11.3946915  11.2528753  42.8901100
  11.4936438  12.1760073  42.3190193  10.6588507  11.4386969  44.2747917
  10.8087111  10.5816097  44.9313354  10.9454308  12.3977547  44.7062759
   9.5836849  11.5736952  44.1569138  12.8293571  10.8262157  43.3004265
  13.0131340  11.3762321  44.2233620  12.7444601   9.7513809  43.4605026
  13.4133968  11.1274462  42.4308014   9.0606623  12.1247301  41.0749207
   8.6629276  12.9216928  41.8537788   9.3836708  12.3704252  39.8178749
   9.8076944  11.6418314  39.2615891   9.0570517  13.6805201  39.1882133
   9.6029472  14.3662024  39.8362389   9.5650415  13.8058977  37.8130760
   9.0272045  13.1091318  37.1701508   9.2796211  14.7547417  37.3588371
  11.0223360  13.7120228  37.4484711  11.3931684  12.8148041  37.9440346
  11.2939129  13.4332237  35.9835587  11.1814547  12.4031048  35.6454582
  10.6378403  14.0181751  35.3389626  12.3351822  13.7490034  35.9192009
  11.9014349  14.7739067  37.9896469  11.8703852  14.9982405  39.0558586
  12.9664078  14.6608572  37.7867851  11.4470978  15.6158199  37.4672813
   7.5786085  14.0938425  39.1844025   7.2430930  15.1351919  39.7380943
   6.7201819  13.2851315  38.6311684   7.0679426  12.4180651  38.2472954
   5.2781286  13.4305763  38.6500969   5.1504607  14.2210417  37.9105263
   4.5756822  12.2035913  38.0520554   5.0776591  11.8878841  37.1374893
   4.7211752  11.4055853  38.7801476   3.0518904  12.3002148  37.8141212
   2.5936728  13.0216560  38.4906273   2.8311751  12.7693214  36.8553085
   2.3240376  10.9701262  37.8982315   2.8004587   9.8771114  37.5447922
   1.1446130  10.9637899  38.1724586   4.6670551  13.8035946  39.9940338
   4.0207553  14.8658199  40.1415443   4.9038010  13.0348244  41.0807190
   5.3547182  12.1394434  40.9579735   4.5390415  13.3239985  42.4873772
   3.4607503  13.4826279  42.5023575   4.9556379  12.1150789  43.3046951
   6.0349932  12.0640965  43.1615410   4.8185849  12.3678875  44.3560791
   4.0997677  10.8432236  43.0112419   4.1900520  10.3905792  42.0237885
   4.4005160  10.0986710  43.7483292   2.5562577  11.0681705  43.2663574
   2.4172876  11.7466269  44.1080704   2.0878673  11.6921692  42.5052147
   1.9732640   9.6674547  43.5378189   2.0625718   8.9574404  42.7156219
   2.4015238   9.2491484  44.4487038   0.4782097   9.7639837  43.8334312
  -0.0892593  10.1314926  43.0830841   0.1161395   8.8978939  44.2061157
   0.3680243  10.5082636  44.5072289   5.1778450  14.6162949  42.9739914
   4.4342070  15.4812460  43.4946098   6.5041113  14.8268118  42.7443542
   7.1424856  14.1514597  42.3487854   7.0816340  16.2172165  42.9981194
   6.9311056  16.3583736  44.0684090   8.6329079  16.2818756  42.6620903
   8.8504896  15.7264347  41.7498131   9.1737795  17.7346745  42.3618851
   9.9831047  17.7197342  41.6319008   8.3934879  18.3493443  41.9130783
   9.5784054  18.1479034  43.2858009   9.4567289  15.6084137  43.7754288
   9.3217125  16.2668629  44.6335182   9.0976610  14.6029062  43.9948082
  10.9497471  15.5018444  43.6788254  11.4386501  14.8287592  44.3831177
  11.0421896  15.1003790  42.6696777  11.3334360  16.5215836  43.7106552
   6.2637186  17.3516197  42.4183388   5.9806933  18.3109493  43.0721817
   5.8876305  17.2849159  41.0887260   5.9389009  16.4321022  40.5500412
   5.1593308  18.3505726  40.4890480   5.7393961  19.2605610  40.6424866
   5.1759338  18.0647030  38.9588966   4.7420149  17.0754871  38.8130684
   4.2736759  19.1156025  38.3240166   4.6642323  20.1330204  38.3449516
   4.2228193  18.8582268  37.2660599   3.1982369  19.1031132  38.5011482
   6.6231055  17.9825573  38.4235764   6.9108229  19.0121002  38.2105980
   7.2981620  17.5157986  39.1408844   6.7207723  17.1870728  37.0974998
   6.3593168  16.1641216  37.2024841   6.1687865  17.6746197  36.2939377
   7.7365265  16.9987774  36.7498055   3.7564058  18.5481701  41.0401192
   3.3566601  19.7214108  41.3073921   3.0045519  17.4539928  41.3587875
   3.2929280  16.5515900  41.0086327   1.6836425  17.6019478  42.0230370
   0.9915619  18.1581993  41.3908119   1.0308450  16.2340679  42.1828613
   1.0946786  15.7614002  41.2027550   1.6214075  15.5816135  42.8260117
  -0.3689716  16.1450005  42.7618790  -0.6723439  15.1064444  42.8940506
  -0.4270276  16.6078396  43.7470207  -1.3631892  16.8840866  41.7997017
  -2.0111859  16.1443691  41.0187073  -1.5240788  18.1603241  41.8791656
   1.7445850  18.3147297  43.4428062   0.8108314  19.0671463  43.8428230
   2.7774649  18.0093784  44.1670113   3.2390487  17.1545124  43.8908882
   3.0864358  18.6355228  45.4110909   2.1706417  18.6024342  46.0012817
   4.1966395  17.7292290  46.0320244   3.9328883  16.6801529  45.8979454
   5.1173239  17.8566628  45.4626312   4.5395889  18.0795650  47.5002899
   5.4364209  17.5096321  47.7431221   4.7748637  19.1434174  47.5314331
   3.4418066  17.7654057  48.4481354   3.5047500  18.1088028  49.6504211
   2.4735210  17.0754719  48.0030861   3.5293617  20.1071644  45.3432274
   3.1965630  20.8472748  46.2856941   4.2568650  20.5752697  44.2989616
   4.5203605  19.8582153  43.6382751   4.8202553  21.8973408  44.1751480
   4.5194178  22.4844627  45.0428352   6.3628702  21.8568726  44.2884979
   6.8708453  21.4079456  43.4349594   6.7305355  22.8828888  44.3031387
   6.7931347  21.2259388  45.5895691   6.8423190  21.8885689  46.6250610
   6.9946012  19.8774586  45.6795959   7.1350269  19.5542679  46.6261292
   6.4768753  19.2957687  45.0363998   4.2901983  22.7483559  43.0105171
   4.8443089  23.8265152  42.6924515   3.3576703  22.2179661  42.2051659
   3.0670435  21.3191624  42.5626411   2.7620957  22.6124535  40.9228973
   2.2144349  21.7552814  40.5312080   1.6391913  23.5930882  41.2371902
   2.0040731  24.5837440  41.5084190   1.0379659  23.7180805  40.3366318
   0.7756757  23.1737804  42.4069519   0.1914095  21.9517918  42.5449295
   0.1445140  21.2716866  41.7997055  -0.5557027  21.9276009  43.7150192
  -1.1432343  21.0760441  44.0249481  -0.4263101  23.1337605  44.2667923
  -0.9471098  23.4292068  45.0801659   0.3827925  23.9552994  43.4640388
   0.7831696  24.9265327  43.7146492   3.7234983  23.0010242  39.7584457
   3.3238788  23.6619434  38.8050880   5.0353847  22.7013054  39.9158592
   5.2463875  22.0918198  40.6931000   6.1932044  23.2192993  39.1063805
   6.4631505  24.2152081  39.4576530   7.4751401  22.3051205  39.4459190
   7.4590578  21.3476067  38.9253311   8.7049408  23.0571175  38.9947319
   8.7571907  23.1452389  37.9095573   8.7280540  24.0333843  39.4789505
   9.5704536  22.5917606  39.4663582   7.6293998  21.9563255  40.8284111
   7.4729457  22.7635059  41.3239746   5.9381518  23.1260262  37.5508690
   5.1744227  22.2959080  37.0316162   6.6280541  23.9477596  36.7016487
   7.1244369  24.6956692  37.1646156   6.6423817  23.9931450  35.2416496
   6.2754402  23.0325146  34.8801994   5.6770082  25.0252666  34.7201500
   5.5584354  24.6589127  33.7004356   4.6990194  24.8734741  35.1768761
   6.0943470  26.5627022  34.6892586   6.5459576  26.7483215  35.6637802
   6.9391232  26.7103500  34.0164642   4.8577213  27.5139332  34.4520302
   4.3431401  27.3258953  33.5097198   4.0350084  27.4402065  35.1632309
   5.3679304  28.9797745  34.3788528   6.2476001  28.9492149  33.7359314
   4.5817466  29.5659981  33.9030838   5.7630558  29.5499401  35.6137352
   6.4938474  29.0617828  36.1114845   5.8741693  30.5487957  35.5135269
   4.9675636  29.5440693  36.2360382   8.1138315  24.2544136  34.7554665
   8.7387972  25.1651783  35.2379761   8.6522160  23.4647999  33.7630920
   7.9649453  22.4075031  33.0721016   7.1380596  22.8190403  32.4933128
   7.6340003  21.6028461  33.7286873   8.9084578  21.8489895  32.1056290
   8.5818729  21.4317036  31.1530991   9.3068323  20.9286270  32.5326309
   9.9938164  22.8323002  31.9617863   9.7323618  23.5484810  31.1827946
  10.9540892  22.3567181  31.7622871  10.0167685  23.4451275  33.3080750
  10.4062338  22.7256069  34.0282860  10.8591642  24.7260094  33.2243767
  11.9628878  24.8703537  33.8007660  10.3094473  25.8592224  32.7963524
   9.4020853  25.8770180  32.3530960  10.9819746  27.2015820  32.7447052
  11.8696928  26.9693279  32.1563873  10.1996994  28.2349453  31.9585838
   9.2221270  28.3544006  32.4256859  10.6775465  29.2146130  31.9548073
   9.9335470  27.7782478  30.5077515  10.8586664  27.5086155  29.9982834
   9.3373280  26.8711605  30.6068287   9.0996971  28.7529278  29.6327000
   8.5780458  28.3701153  28.5605183   8.8547106  29.8269768  30.1910038
  11.4156399  27.8395157  34.0506821  12.3119211  28.7402534  33.9407120
  10.8639517  27.4779205  35.2230988  10.2252798  26.6956654  35.2396469
  11.3408384  27.9981918  36.5142365  11.9709024  28.8823833  36.4176216
  10.1190910  28.2681847  37.4913979   9.7459440  27.3248997  37.8902397
  10.4907064  28.7216644  38.4102898   9.0094776  29.0438633  36.8691025
   7.8881774  28.7767448  37.2120819   9.2960482  29.8692799  36.0048943
  12.3843260  27.0281296  37.1438828  12.9624853  27.3757324  38.1849251
  12.6325989  25.8671837  36.5680351  12.1824884  25.5683632  35.7146835
  13.6411247  24.8924732  37.0595055  13.6664772  24.7494850  38.1397858
  13.3968687  23.5008106  36.5533791  13.4261074  23.4011135  35.4683418
  14.2357092  22.4223194  37.2313652  14.2053308  22.6696320  38.2924995
  13.8274574  21.4345341  37.0175629  15.2667475  22.5720100  36.9109688
  11.9929609  23.1855240  36.9607277  11.7960367  22.1743736  36.6045036
  11.8673859  23.1316338  38.0421295  11.1924162  23.8365517  36.6094627
  14.9780521  25.3097286  36.5008583  15.2790241  25.3392963  35.3312263
  15.8762140  25.7334385  37.4167404  15.5425301  25.8676834  38.3605270
  17.2476997  26.2774067  37.2621651  17.1928234  26.9264355  36.3881798
  17.6025925  27.1119328  38.5970573  17.4560947  26.5050182  39.4905319
  18.9311676  27.7824936  38.5931244  19.6787205  27.0223103  38.8198166
  19.1142044  28.3583183  37.6859169  19.0807838  28.4722729  39.4237366
  16.6377697  28.2391605  38.7657509  15.5838690  27.9828529  38.6576157
  16.7553196  28.7778549  39.7060127  16.8513393  29.0089970  38.0242386
  18.2949524  25.1998539  37.0426407  19.0722790  25.2534084  36.1459618
  18.2732868  24.0953693  37.8187790  17.4760590  24.0056648  38.4323616
  19.0609360  22.8975334  37.5003319  18.9793625  22.7556038  36.4226913
  20.5237770  23.0551777  37.9226151  21.1760082  22.2350864  37.6223717
  20.9037933  23.9863758  37.5024223  20.7953777  23.2182159  39.4317322
  20.4218674  24.1442604  39.8687973  20.3746929  22.3981438  40.0136299
  22.2502270  23.1608715  39.9051018  22.7255650  23.7764416  40.8703117
  23.1318665  22.4442844  39.2830467  24.0863838  22.4057007  39.6109352
  22.9252224  21.6854343  38.6493721  18.4397011  21.6651478  38.1125259
  17.7692833  21.7931499  39.1152229  18.7218781  20.4820862  37.5801468
  19.1725807  20.5083656  36.6766663  18.3967609  19.1912708  38.2169418
  17.9405098  19.3905659  39.1865883  17.3783150  18.4345875  37.3727112
  16.4933548  19.0662003  37.2951584  17.8261833  18.2217350  36.4020309
  16.9891777  17.1701527  38.0089684  17.8859921  16.5546494  38.0795364
  16.5950336  17.4219952  38.9935112  15.6916599  16.1533775  37.2310410
  14.3622599  17.3785305  37.2043610  13.5593061  16.9500237  36.6045685
  14.0747709  17.4633293  38.2523422  14.7249718  18.2802925  36.7110443
  19.6573181  18.3025913  38.3343925  20.5436420  18.3335915  37.4135628
  19.7059803  17.6320038  39.5175095  18.9428425  17.6920261  40.1763878
  20.9018955  16.7600212  39.8319817  21.4557076  16.5410023  38.9190598
  21.7286053  17.4656963  40.9160423  21.1431713  17.3674011  41.8302116
  22.6062412  16.8263664  41.0114975  22.0903015  18.9500198  40.5881157
  21.1730328  19.4965820  40.3690491  22.7249336  19.5719528  41.7979393
  21.9696674  19.5962849  42.5834808  23.6309700  19.0726910  42.1413536
  23.0193214  20.6102333  41.6449432  23.0885353  19.0445976  39.4546776
  23.4913177  18.0395908  39.3288879  22.6004829  19.1419544  38.4849205
  23.7941875  19.8719597  39.5296555  20.2732277  15.4187689  40.3461838
  19.3087349  15.4207935  41.0834274  20.8370819  14.3208685  39.8811264
  21.5931110  14.3946266  39.2154846  20.2704239  12.9552250  40.2076530
  19.4990711  12.9378166  40.9775963  19.5345669  12.4852953  38.8845329
  20.1865826  12.7430716  38.0499496  19.3543110  11.4124327  38.9521713
  18.1781845  13.0597630  38.6086006  18.2434216  14.1346655  38.7772293
  17.8658009  12.8812437  37.0699081  17.0217857  13.5224438  36.8157578
  18.7256851  13.1869965  36.4739075  17.6405888  11.8203154  36.9612350
  17.0445824  12.4258671  39.4069862  17.0970421  11.3389492  39.3440704
  17.1775665  12.5295191  40.4838676  16.1056023  12.8559017  39.0584183
  21.2364178  11.9272118  40.6350441  22.0308495  11.3231087  39.9326744
  21.2671261  11.7976093  41.9240303  20.5190964  12.2001953  42.4703598
  22.1601486  10.9084444  42.7452774  23.1828041  11.1262178  42.4372978
  21.9555969  11.4051590  44.1346169  22.2547283  12.4382429  44.3117065
  21.0117283  11.1762238  44.6293907  22.8855038  10.7341766  44.9642105
  22.4632397  10.3623400  45.7420502  21.7168980   9.4796925  42.6483231
  20.6349049   9.0573463  42.9502487  22.6884918   8.5973387  42.4295387
  23.6037388   8.9485922  42.1865463  22.5748730   7.0892839  42.6075439
  21.5447693   7.0064354  42.9541283  22.7729778   6.3455882  41.3145676
  23.7408371   6.6347423  40.9050102  22.7785645   5.2570744  41.3711891
  22.0916729   6.7272658  40.5541420  23.5401669   6.5249572  43.6563034
  24.7037888   6.9130106  43.6822014  23.1098080   5.5166416  44.4235802
  22.1419449   5.2301846  44.3876152  23.9912510   4.6327853  45.1838570
  24.6102886   5.2977834  45.7860756  23.2145748   3.7185388  46.1299515
  23.7896290   2.8158617  46.3363190  22.7169437   4.5635848  47.3297653
  22.0677452   5.3466415  46.9380188  22.1117935   3.9440420  47.9916267
  23.5423508   5.0427628  47.8562546  21.9536610   3.2803347  45.5458679
  22.1330566   2.4703650  45.0627899  25.0289059   3.8359654  44.3194809
  24.7429829   3.5487454  43.2155685  26.1568737   3.4352789  44.9206276
  26.6321621   3.7365470  46.2609634  25.8908119   3.5756245  47.0436516
  27.0239944   4.7536774  46.2646103  27.8455257   2.8627629  46.5109177
  27.5223751   1.9264920  46.9659691  28.6065693   3.3631778  47.1096649
  28.4114532   2.6711488  45.1147423  28.9980717   1.7548654  45.1810951
  29.1129532   3.4743547  44.8892097  27.2596703   2.7228656  44.1773949
  27.5303383   3.3751729  43.3471336  27.0095749   1.3478278  43.5990410
  27.8873425   0.6272317  43.1813164  25.7790432   0.8198908  43.8214569
  25.0695972   1.3565714  44.2997437  25.2168884  -0.4303958  43.4107170
  25.9488049  -1.1977845  43.1587029  24.4143295  -1.0171245  44.5116386
  23.7485542  -1.8180302  44.1900940  25.0757256  -1.4230131  45.2770882
  23.4815979   0.0740299  45.2294540  23.0674343   1.0524472  44.5765839
  23.2331448  -0.0111009  46.4688301  24.4163551  -0.4614670  42.1122322
  24.4033260  -1.4947106  41.3880615  23.8300896   0.6110164  41.6819649
  23.8339844   1.4661953  42.2193222  23.1244717   0.7630232  40.3740387
  22.6272221  -0.1926880  40.2083054  22.0686913   1.8532374  40.6057625
  22.6860104   2.7358387  40.7731895  21.4832668   2.0145116  39.7005692
  21.1331100   1.5616987  41.7794647  21.7464809   1.5193583  42.6795120
  20.0445995   2.6241019  41.8993492  20.5062866   3.5765128  42.1598625
  19.4748745   2.6862133  40.9721756  19.3492794   2.2119875  42.6306458
  20.4558640   0.2518562  41.6164665  19.9695988   0.0792951  40.6563263
  21.1380577  -0.5678638  41.8417931  19.7288456   0.0660870  42.4070549
  24.0264874   1.2150912  39.2104149  24.6041298   2.2803626  39.3978119
  24.0473347   0.5205042  38.0977936  23.5024242  -0.3247405  38.0043335
  24.8853741   0.8337117  36.9424706  25.1274033   1.8965040  36.9440117
  26.1742725   0.0154808  37.1523590  25.9088249  -1.0236505  36.9578247
  26.8613720   0.2513944  36.3397446  26.9157677   0.2521138  38.4435692
  27.5109634   1.3910726  38.9132538  27.6128654   2.1669140  38.2746696
  28.1163883   1.1770359  40.0860748  28.8276081   1.8721868  40.5071831
  27.8637028  -0.1142061  40.4117546  28.1100254  -0.5929806  41.2662697
  27.1912746  -0.7170099  39.3775406  26.9913082  -1.7780993  39.3551102
  24.2660923   0.4698741  35.5544815  25.0026684   0.4541316  34.5407028
  22.9981041   0.0711485  35.4708290  22.4583874  -0.0231817  36.3193016
  22.3866920  -0.2026599  34.2767105  22.9838219  -0.9268188  33.7225113
  21.0311794  -0.8963096  34.5888138  20.2850437  -1.0243531  33.8046036
  21.2098751  -1.9386511  34.8528099  20.5104618  -0.4262561  35.4230843
  22.1514225   1.0629671  33.4044762  22.2362499   0.9916188  32.1489906
  21.8539677   2.2792578  33.9261971  21.8491688   2.2460594  34.9356384
  21.4174557   3.4999852  33.2363472  22.1506996   3.7570007  32.4718895
  20.0845585   3.3452260  32.4957314  20.1309547   2.4550562  31.8683987
  18.8778038   3.1732087  33.4287453  18.4454727   4.0193796  33.9627647
  18.0492344   2.7067051  32.8958740  19.2471199   2.4998260  34.2022171
  19.8150444   4.5538497  31.6225529  20.5686092   4.7774363  30.8673954
  18.8202229   4.3913918  31.2077770  19.6343517   5.4075193  32.2757721
  21.3751488   4.7466059  34.1805840  20.8061085   4.6562939  35.2115211
  21.8786869   5.8946958  33.7246475  22.0688248   5.9284225  32.7332802
  21.7933369   7.1826224  34.4464760  22.2006989   7.1945763  35.4574242
  22.7760181   8.1237631  33.7514076  22.5244770   9.1360283  34.0678711
  23.7606525   7.9523783  34.1864014  22.8262520   8.2305584  32.2736626
  23.7693119   7.3525071  31.6035805  24.3800449   6.6700387  32.1759796
  24.0174332   7.5394087  30.2411709  24.7630310   7.0092516  29.6672230
  23.1645336   8.3900146  29.4431725  23.4338493   8.6517658  28.4305744
  22.1250324   9.0949945  30.0877686  21.5658398   9.7708235  29.4577179
  22.0408955   9.1026974  31.4999619  21.3733673   9.7611790  32.0358810
  20.4019909   7.7680311  34.4704018  19.8298454   7.9370174  33.3792534
  19.7927971   8.0883875  35.6182861  20.2318859   7.6885176  36.9108810
  21.1926861   8.0764275  37.2492485  20.3380222   6.6074872  36.8202858
  19.1131172   7.7781138  37.8846817  19.3711357   8.0039787  38.9193344
  18.5621567   6.8376637  37.8748436  18.2772388   8.8473873  37.2659225
  18.6318951   9.8302422  37.5762711  17.2321491   8.8274593  37.5749359
  18.4529953   8.6647234  35.7482185  17.6932430   7.9150357  35.5272141
  18.2377148   9.9105225  34.9078293  17.0927582  10.0429325  34.4697914
  19.2692413  10.7204838  34.5999603  20.1896381  10.3996315  34.8645821
  19.1109486  11.9453707  33.7830429  18.6927853  12.7530193  34.3838272
  20.4768867  12.4211159  33.3428535  21.0858383  11.5938158  32.9783592
  20.4384499  13.2252455  32.6080093  20.9635639  12.9348497  34.1719017
  18.2485676  11.7907343  32.4750099  17.4524994  12.6703815  32.0470276
  18.2428398  10.5827904  31.8744431  18.7122345   9.7930222  32.2940140
  17.4747238  10.2431107  30.7016830  17.6952820  10.9639263  29.9143562
  17.9778881   8.8352013  30.3005104  19.0395012   8.9016972  30.0624866
  17.7972755   8.1240864  31.1066093  17.3036671   8.4683037  28.9694004
  16.2706451   8.1764450  29.1585617  17.3443241   9.2287388  28.1895390
  17.8729763   7.1571965  28.3723545  18.8857670   7.2944613  27.9935207
  18.0276356   6.4221148  29.1621876  16.9677181   6.5624275  27.2831860
  17.2115555   5.5044522  27.1865387  15.9009418   6.6461987  27.4907207
  17.1692276   7.2215452  25.9411526  16.8920097   6.6483541  25.1571236
  16.5665722   8.0316801  25.9169254  18.1343708   7.4238257  25.7227879
  15.9227524  10.2207565  30.8559418  15.1552277  10.5496931  29.9376221
  15.4767056   9.8750486  32.1015625  16.1362152   9.6553211  32.8342743
  14.0374174   9.6572809  32.4984779  13.6193867   8.9350338  31.7972584
  14.0708790   9.1236734  33.9048538  14.2616625   9.9790773  34.5529137
  13.1255369   8.6699667  34.2024765  14.8913622   8.4255114  34.0705986
  13.2745390  11.0129299  32.4537201  12.1206522  11.0432558  32.0917511
  13.9412565  12.1445179  32.6595192  14.9088421  12.1034050  32.9462051
  13.3593225  13.4559650  32.6224861  12.5100975  13.4376650  33.3055573
  14.3701944  14.4676027  33.1990852  14.9902725  14.7648478  32.3533630
  13.7740765  15.7640610  33.6014137  13.0851498  15.6167068  34.4331398
  14.5203199  16.5332088  33.8004646  13.2099657  16.0825462  32.7248001
  15.1763992  13.8667965  34.3621941  15.9920378  13.2791996  33.9408112
  15.5746946  14.5543461  35.1083450  14.5065422  13.3357544  35.0384979
  12.7253838  13.7690229  31.2679443  11.6873131  14.4357147  31.1321068
  13.2456551  13.1635246  30.2216644  13.7860727  12.3291845  30.4003429
  12.7975426  13.3692961  28.8358517  12.4954100  14.3956451  28.6274662
  13.8311911  12.9358425  27.8407803  14.1687908  11.9033232  27.9304008
  13.4616108  13.0852814  26.8262959  15.1020126  13.7871895  27.8863468
  14.8164978  14.8304768  27.7516861  15.5248938  13.7303276  28.8893604
  16.1548538  13.4186783  26.8596745  16.4545879  12.3734064  26.9349499
  15.7361183  13.4344015  25.8534374  17.2786961  14.4620104  27.0295601
  17.2724552  15.0055485  27.8808117  18.3943100  14.4297495  26.3311138
  18.5299397  13.6513624  25.3070602  17.7803345  12.9835892  25.1962700
  19.3908672  13.6249971  24.7796040  19.3451691  15.2492476  26.7373352
  20.3162022  15.2167854  26.4613972  18.9863586  15.8904324  27.4303246
  11.4413671  12.6087589  28.5859280  10.8629761  12.8906355  27.5130882
  10.9270267  11.8253059  29.5358753  11.4033146  11.6728592  30.4133778
   9.6724262  11.1112967  29.4446239   9.5613480  10.9809275  28.3681641
   9.9011526   9.7152634  30.0412025  10.1326962   9.7056313  31.1062813
   9.0897751   9.0075312  29.8712425  11.0739927   8.9620333  29.4626274
  11.9151487   9.5810032  29.1504860  11.5051270   8.3897486  30.2840385
  10.8374376   8.0654516  28.2128925  11.6310024   7.1745620  27.9710255
   9.7897243   8.1402779  27.4991856   8.4588661  11.8120785  30.0562134
   7.3816423  11.2790470  30.1814823   8.5744476  13.1413937  30.2473202
   9.5192661  13.4724979  30.1139526   7.5048251  14.0449839  30.6183681
   6.5632100  13.5313168  30.4244423   7.6503506  14.3507519  32.1428757
   8.5703821  14.9271460  32.2398911   6.8552694  15.0626545  32.3645706
   7.6793084  13.1858168  33.1234207   6.8180289  12.5342731  32.9758110
   9.0693026  12.4501572  33.2783356   9.7973747  13.2562990  33.3685913
   9.0465765  11.7913408  34.1464081   9.3079176  11.8316250  32.4131279
   7.3914862  13.7389450  34.5256462   8.1373520  14.4578657  34.8646736
   6.4629564  14.3098412  34.5288544   7.2387962  12.8907566  35.1930008
   7.5969529  15.3084726  29.7547646   8.6183786  15.6576242  29.1282520
   6.4915195  16.0086956  29.5090847   5.7846899  15.9916658  30.2303352
   6.4319563  17.1438923  28.5610752   6.7348742  16.9107037  27.5403061
   4.9637766  17.5542240  28.3769894   4.3556199  16.7055969  28.0638161
   4.5405154  17.8447781  29.3385143   4.9256454  18.5583763  27.3922501
   4.0351505  18.9157391  27.4224339   7.1297946  18.4074383  29.0864258
   7.0974655  18.8143311  30.2338219   7.8220248  19.0462494  28.1002083
   7.8391299  18.6943417  27.1536522   8.7049417  20.2692528  28.3378334
   9.0566673  20.6101170  27.3640766   8.1570215  21.0361996  28.8852596
   9.9284983  20.0455399  29.1950035  10.8881550  20.8330402  29.1122417
   9.9465561  19.0282383  30.0332489   9.0544825  18.5628777  30.1212482
  11.0079374  18.6848831  30.9182701  11.3359528  19.5828743  31.4418316
  10.3665247  17.6819019  31.9459476   9.7697353  16.9228306  31.4402275
  11.1894493  17.2345295  32.5034065   9.4429855  18.2778225  32.9177399
   8.1192608  18.1536388  32.8686256   7.4763441  17.6782417  32.1426392
   7.6406026  18.8757210  33.9573822   6.6737556  18.9972363  34.2229767
   8.6215601  19.3740368  34.7952881   8.5618477  20.1309986  35.9449921
   7.6534300  20.6043129  36.2872658   9.7502594  20.3243027  36.7335892
   9.7799711  20.9630318  37.6039581  10.9896708  19.8440075  36.1880455
  11.9400311  20.1047306  36.6299019  10.9576178  19.1739712  34.9151306
  11.9012003  18.8577156  34.4955635   9.7848234  18.8882694  34.2273331
  12.2770576  18.1049824  30.2572918  13.2998571  18.0124798  30.9563675
  12.2850895  17.7856350  28.9025669  11.4590769  17.7782516  28.3214054
  13.4836216  17.5247917  28.0773029  13.9784889  16.6875725  28.5695114
  13.1157093  17.1138668  26.6839371  14.0414019  16.9096298  26.1459045
  12.6274805  16.1425190  26.7627945  12.4234924  18.1489067  25.7801552
  11.6538649  18.6524601  26.3651371  13.1532221  18.9106636  25.5057087
  11.7147970  17.5220490  24.5407600  11.2550554  16.3937817  24.5500641
  11.6769361  18.3582649  23.5169106  12.0103283  19.2973061  23.6816978
  11.2367382  18.1358414  22.6355171  14.4201927  18.7063351  28.1012230
  15.6366110  18.4914017  27.9232903  13.9138737  19.9153919  28.2403526
  12.9385805  20.0113468  28.4846973  14.6813488  21.2134628  28.2893562
  15.4942150  21.0731850  27.5768452  13.8531523  22.4053879  27.7692966
  12.9949398  22.6295815  28.4027863  14.3534298  23.3722630  27.8238659
  13.3812866  22.2615299  26.3399410  14.2964306  22.5050812  25.2773457
  15.3136330  22.7767410  25.5179691  13.8845549  22.3272781  23.9618206
  14.6241808  22.3929558  23.1775742  12.5983057  21.8047295  23.6311188
  12.3474445  21.3165359  22.3664227  12.6252117  21.9821854  21.7328968
  11.7291145  21.5206451  24.7249222  10.7706585  21.0366974  24.6084785
  12.1322269  21.7239170  26.0189400  11.5004473  21.2853699  26.7771797
  15.3490553  21.5417347  29.6507835  16.2376957  22.4120140  29.7035465
  15.0051403  20.8790627  30.7506351  14.4275799  20.0506058  30.7370319
  15.6241417  21.2334766  32.0113754  15.5911865  22.3166847  32.1283302
  14.7705126  20.7863789  33.1464081  14.5476255  19.7564774  32.8676147
  15.5189762  20.6888866  34.4617653  14.8298712  20.3852253  35.2498131
  16.3339787  19.9749832  34.3425522  16.0507736  21.6041183  34.7218437
  13.4338465  21.4487648  33.2976799  12.8753700  21.2157383  32.3910904
  12.9284687  21.0264740  34.1662216  13.6059999  22.5129337  33.4589500
  17.0710392  20.6757088  32.0591545  17.2971573  19.4839859  31.8663330
  18.1270390  21.4772377  32.2319946  18.0307636  22.8944607  32.4084854
  17.1704712  23.1798611  33.0139160  18.0876865  23.3347797  31.4130058
  19.2554588  23.2184391  33.2136993  18.9655018  23.1178112  34.2595940
  19.5962276  24.2399635  33.0449791  20.3996925  22.2871227  32.7003250
  21.1275539  22.1046543  33.4909096  20.8529854  22.6471691  31.7767506
  19.5262661  21.0445766  32.3871002  19.8816338  20.5853634  31.4646358
  19.5930939  20.0044308  33.5365562  19.3574371  20.4069328  34.6886292
  20.0726395  18.7972584  33.2244377  20.1335239  18.5434799  32.2487373
  20.1455631  17.6899204  34.1942749  20.1527653  18.1238861  35.1941338
  18.8837204  16.8199005  34.0167160  17.9867668  17.4259300  34.1444130
  18.7753391  16.1336422  32.7016945  18.0135021  15.3544302  32.7247391
  18.3840065  16.7609043  31.9007549  19.6725025  15.6237974  32.3506050
  18.7329826  15.7125635  35.0620041  17.9360352  15.0223999  34.7851601
  19.5798569  15.0263386  35.0618744  18.5873146  16.0909081  36.0738029
  21.5016155  16.8644524  34.0983963  21.9718151  16.5572224  32.9972801
  22.1185722  16.5629635  35.2494507  21.7274227  16.9281960  36.1060181
  23.0521717  15.4491644  35.2517929  22.8188019  14.7884016  34.4169083
  24.4850864  15.9612646  35.0483246  24.5086842  16.8067627  34.3608055
  25.1469193  16.5845699  36.2505760  25.8543415  17.3543530  35.9422035
  24.3318958  17.0665302  36.7905312  25.6810856  15.9136534  36.9233551
  25.4139919  15.0117521  34.5131340  26.1005783  14.7338524  35.1238480
  22.9845886  14.5954428  36.4903221  22.3524761  14.8915186  37.5052605
  23.7219906  13.4930630  36.4889565  24.1404362  13.3533354  35.5803947
  23.9291553  12.5033970  37.5047035  23.2230568  12.7642879  38.2930298
  23.5562019  11.0567503  37.0624695  24.0246868  10.8439484  36.1015625
  23.7786713  10.2736340  37.7872696  21.7386303  11.0081940  36.8461380
  21.5747414  11.3551512  38.1258469  25.3616447  12.5488834  38.1197739
  26.3928280  12.8920746  37.4360771  25.4477425  11.9406834  39.3486328
  24.6060429  11.9213314  39.9065437  26.6244621  11.6644831  40.1225624
  27.2907009  11.2302380  39.3771324  27.1075459  12.9260988  40.7265205
  27.9040565  12.6499395  41.4174652  27.4785118  13.4851427  39.8674774
  26.1338520  13.6938944  41.5603867  25.8298759  13.1057968  42.4263191
  26.6146889  14.5139790  42.0936394  24.5666904  14.3411722  40.7988586
  25.0610104  15.5027618  39.6828346  25.9480667  15.1152620  39.1817627
  24.3510590  15.9281321  38.9735184  25.4460258  16.3445034  40.2584572
  26.3220425  10.5107508  41.1519585  25.1993999  10.1192875  41.2862434
  27.3142929  10.0681143  41.9770470  28.2305889  10.4722977  41.8461380
  27.2582855   9.0408640  42.9227715  26.4888248   8.3408833  42.5971069
  28.5405273   8.2086229  42.9703979  28.9561768   8.0803680  41.9709549
  29.2566319   8.6714420  43.6494331  28.2567997   6.8051319  43.3885765
  27.5252571   6.7335925  44.1934547  27.9465237   6.1749110  42.5551224
  29.5510864   6.2576742  43.9329376  30.3441391   5.8652687  43.1392632
  29.6643333   6.0771890  45.1699638  30.3787975   5.4890285  45.5745811
  28.9407482   6.4385796  45.7748795  26.8682041   9.6079960  44.2806816
  27.4718513  10.5796633  44.7791748  26.0001640   8.8780117  45.0065041
  25.5953064   8.0696335  44.5562592  25.7491207   8.9573689  46.4492302
  25.5686970   9.9689569  46.8128777  24.4293137   8.1949673  46.7023582
  23.7359352   8.4495096  45.9007721  24.7386818   7.1571741  46.5783577
  23.7907658   8.3741484  48.0799408  23.2051392   7.4763384  48.2776337
  24.5726280   8.4941254  48.8298721  22.9086590   9.6479902  48.2593155
  22.9312649  10.3179970  49.2894173  22.1837540   9.9416065  47.2728271
  26.9800911   8.3900862  47.2143173  27.7665062   7.6501608  46.6885185
  27.2372360   8.6650887  48.5359840  26.7058125   9.3428049  49.0636101
  28.3552666   8.2344332  49.3107071  29.2299843   8.2418041  48.6603813
  28.5441475   9.0774612  50.5501328  28.5510273  10.1270390  50.2561302
  27.6620216   9.0134497  51.1872063  29.7460136   8.7454128  51.4084969
  29.7574539   7.6964941  51.7047043  30.6249638   8.9944916  50.8139305
  29.6518440   9.6509724  52.9156265  31.0049610   8.8791609  53.8611069
  31.9156513   8.9040117  53.2626801  31.2024097   9.4289608  54.7813454
  30.8158035   7.8220491  54.0477486  28.1187859   6.8272166  49.7386513
  27.1228428   6.5358343  50.3362007  29.1134682   5.9668798  49.5743942
  29.9104576   6.2405005  49.0175819  29.0187111   4.6579447  50.1657829
  28.0936127   4.1519442  49.8896294  30.1994305   3.8639543  49.6539383
  30.3542595   4.1131625  48.6041641  31.0627785   4.2512851  50.1949615
  29.9542828   2.3022335  49.8346291  28.7935905   1.8226286  49.9925156
  30.9908600   1.5796063  49.6566429  29.1129169   4.7273874  51.7575912
  30.1156464   5.0410023  52.4079704  28.0349979   4.3742385  52.3857651
  27.1986446   4.1223516  51.8786469  27.8267174   4.3966508  53.8767662
  28.8368988   4.3978810  54.2861977  27.1304226   5.6329136  54.2984734
  26.2213860   5.6904378  53.6997643  26.7685299   5.7528129  55.7444916
  27.6455555   6.0530343  56.3178940  25.9977856   6.4937110  55.9569168
  26.3671703   4.8307815  56.1650505  27.9013309   6.9458175  53.9217987
  28.0623512   7.0064921  52.8454666  27.4679871   7.8863621  54.2619286
  28.8799973   6.8875690  54.3981514  27.0216656   3.1513126  54.3513145
  26.1062241   2.6664672  53.6721344  27.5062923   2.5865695  55.4790077
  28.2612267   3.0450301  55.9688988  27.0870895   1.3537151  56.1068535
  27.1764088   0.5452715  55.3812180  27.9117012   1.0096136  57.3181381
  27.6189251   0.0689460  57.7845345  29.3654842   0.9188423  57.0064774
  29.5073204   0.2445935  56.1618690  29.8255215   1.8908200  56.8283577
  29.8037663   0.4558455  57.8905830  27.7903671   2.0972376  58.2659760
  28.4486275   2.0177763  58.9602242  25.6288853   1.3646872  56.5293121
  24.9533672   0.3024038  56.4191666  25.0410271   2.4708443  56.8748665
  25.7074413   3.1434782  57.2263756  23.6572495   2.7782929  57.1379166
  23.0200405   1.9551955  57.4612961  23.6650486   3.5663381  57.8909225
  22.8287106   3.3434381  56.0283813  21.6424637   3.5969646  56.2203560
  23.2968712   3.5372608  54.7991295  24.2299156   3.1654148  54.6930161
  22.5928059   3.9937208  53.5298347  22.1588879   4.9671750  53.7583122
  23.3207283   4.1397061  52.7317581  21.5037060   3.0170555  53.0577698
  21.7932491   1.8420538  53.0306664  20.4020977   3.5786946  52.5581017
  20.2523651   4.5687904  52.6899757  19.3866901   2.8204188  51.8461266
  19.0834255   1.9122444  52.3670387  18.0897732   3.6777840  51.7514458
  17.7722149   3.9650824  52.7537994  18.3556042   4.6747627  51.4000664
  16.8107967   3.1113615  51.0372124  17.0323639   3.1963894  49.9733620
  16.3633270   1.6858579  51.3508339  15.9461622   1.6124651  52.3551712
  15.5363951   1.4116672  50.6957741  17.1636009   0.9781568  51.1344528
  15.6806040   4.1123028  51.3528404  16.0606518   5.0582619  50.9670563
  14.8294725   3.6527407  50.8503685  15.4128370   4.2238083  52.4035416
  20.0160007   2.5019846  50.5210724  20.2797852   3.3769953  49.7023010
  20.1991997   1.2006836  50.2902336  19.7659969   0.6329126  51.0044250
  20.6854019   0.6076950  49.0881310  21.6382198   1.0417088  48.7850304
  20.9778614  -0.8702391  49.4003105  20.1147594  -1.3348894  49.8770218
  21.0246296  -1.3747861  48.4352493  22.2980423  -1.1953746  50.1254501
  23.1103382  -1.0128874  49.4219055  22.4598866  -0.5030200  50.9516182
  22.3530636  -2.6832185  50.5326424  21.3619499  -2.9484878  50.9006500
  22.6185837  -3.2312236  49.6286011  23.3333778  -2.9359801  51.6855049
  24.3080692  -3.0445364  51.2098007  23.3159618  -2.1249943  52.4135895
  23.1339340  -4.2389936  52.3947983  23.6501408  -4.1388807  53.2571259
  22.1386528  -4.3319163  52.5393143  23.4125156  -5.0597024  51.8762131
  19.7938576   0.8219481  47.9299278  18.5898285   0.8632537  48.1140594
  20.3668995   0.8194374  46.6952820  21.3669052   0.7297619  46.5855217
  19.5362911   0.7342243  45.4874001  20.2639008   0.8801468  44.6890259
  18.8376369  -0.6810335  45.3350601  18.2457314  -0.7087886  46.2499237
  18.1208057  -0.7821205  44.5201759  19.8328304  -1.8417380  45.3406029
  20.2650280  -2.0692477  44.3661575  20.6989231  -1.6496814  45.9739342
  19.3245068  -3.1596920  45.9587288  20.1493263  -3.8691466  45.8920059
  18.8431683  -3.0332856  46.9284897  18.2699852  -3.5609317  44.9357567
  17.5225163  -2.7676988  44.9489632  18.6868477  -3.7206907  43.9413719
  17.6038322  -4.7775421  45.3763885  18.1541042  -5.6176376  45.2689629
  17.2190189  -4.7344518  46.3092155  16.8088360  -4.7522292  44.7539406
  18.5775452   1.9200798  45.3628464  17.3346615   1.7502012  45.1380806
  19.0086994   3.1303573  45.7268295  19.9844379   3.3836319  45.7891846
  18.1593513   4.2475681  45.9581985  17.1009598   3.9967756  45.8874283
  18.4356003   4.7038012  47.3882637  18.3499146   3.8414948  48.0494652
  19.4802017   5.0148921  47.3999290  17.3635368   6.0514402  47.9332008
  16.3113213   5.8463140  47.1359177  18.4695587   5.3246622  44.9890366
  19.6450157   5.6892514  44.8315048  17.4853516   5.9975905  44.4377060
  16.5583134   5.8146887  44.7944221  17.5719147   7.1825366  43.5973701
  18.5951557   7.3470216  43.2596893  16.5533161   7.0833435  42.3955383
  15.5501671   6.8990169  42.7800064  16.5891838   8.3420935  41.4930840
  16.1194077   9.2403126  41.8938560  17.6158257   8.6059551  41.2391472
  15.9208384   8.1033192  40.6657982  17.1364613   5.9108710  41.5134277
  17.9676228   6.2446756  40.8922615  17.5872631   5.2050986  42.2111092
  15.9963388   5.2009158  40.7966270  16.2821732   4.2000504  40.4731026
  15.1407557   5.1667809  41.4710960  15.7117014   5.7950268  39.9282265
  17.1950912   8.4583559  44.3241501  16.0755844   8.5123491  44.7431335
  18.0663815   9.5097656  44.2905464  18.8864899   9.3822908  43.7149849
  17.7322483  10.7714901  44.9510040  16.6529598  10.7234077  45.0956612
  18.6283875  10.7895031  46.2512665  19.4904957  10.1323910  46.1369209
  18.9504070  11.8126040  46.4453773  17.7765350  10.2756529  47.3834572
  16.9918785  11.0265894  47.4756889  17.5533886   9.2302732  47.1701622
  18.4659729  10.2576895  48.7518272  19.1855621  11.0762119  48.7341194
  17.8041973  10.5317898  49.5734253  19.0775127   8.9211140  49.0293961
  19.2541790   8.3615150  48.2073631  19.5491924   8.4339914  50.1303864
  19.3547058   8.9594784  51.2413101  19.7474174   8.6713047  52.1260872
  18.7933178   9.7989759  51.2276459  20.2595501   7.3139086  50.2356529
  20.2968445   6.8444743  51.1291504  20.4555492   6.7995834  49.3888016
  17.9426994  12.0115662  44.0573654  18.9749756  12.1289062  43.3833046
  16.9686737  12.9451122  44.1308784  16.2084160  12.7726374  44.7730331
  16.9527760  14.2421789  43.4072189  17.8014088  14.1877003  42.7253418
  15.6684923  14.3510904  42.4862747  15.4998407  13.3968000  41.9872894
  14.4347620  14.6442785  43.2598419  13.4753180  14.6237240  42.7429810
  14.4839392  13.8836079  44.0389824  14.4455261  15.6687775  43.6318398
  15.8414211  15.3639412  41.3639450  15.8918304  16.3859787  41.7394371
  16.7835789  15.3049974  40.8190002  14.9865608  15.3529310  40.6877785
  17.1669540  15.3915100  44.3479462  16.4810829  15.6175222  45.3329811
  18.0636368  16.3226776  43.8522720  18.3440132  16.1142921  42.9046097
  17.9205456  17.7129459  44.0447845  17.0833149  17.8426495  44.7305908
  19.2955227  18.3320198  44.5007477  19.6399078  17.8981762  45.4395142
  20.0453854  18.1522865  43.7303581  19.2794838  19.7928352  44.6312294
  20.1948051  20.1365490  45.1130486  19.3304062  20.2510700  43.6435432
  17.9656010  20.5113773  45.6728134  18.5709972  20.1893253  47.4077568
  19.0722446  19.2243462  47.4830437  19.2060776  21.0014153  47.7617073
  17.7147503  20.1400280  48.0804520  17.5360355  18.4863968  42.8200455
  18.1869774  18.4276352  41.8204918  16.4211235  19.1872616  42.9077110
  15.9294147  19.2406349  43.7883224  15.8887014  20.0770016  41.8824501
  16.5721302  20.0924568  41.0334549  14.4927816  19.7530613  41.4448242
  14.3819933  18.6814461  41.2790909  13.7550116  20.0563984  42.1876450
  14.1578827  20.5212193  40.1613808  14.1055326  21.5839806  40.3978195
  14.8785849  20.2572765  39.3874168  12.5605145  19.9293480  39.6399193
  11.3839579  20.3242016  40.8953133  10.4553585  20.4548836  40.3396835
  11.3579750  19.5470772  41.6591873  11.7026472  21.2371159  41.3984261
  15.8578739  21.5609913  42.3785400  15.1144400  21.9742355  43.2500648
  16.7021122  22.3863640  41.7471619  17.1538086  22.1169510  40.8849068
  16.6409721  23.8070526  42.0839043  16.3903675  24.0026760  43.1265106
  18.0510082  24.4170399  41.9253845  18.2231121  24.4255848  40.8490906
  18.2276535  25.7678280  42.4592819  17.9961262  25.8815918  43.5183144
  19.2728081  26.0361919  42.3052292  17.7516365  26.4841824  41.7896957
  19.0926895  23.6737804  42.4381180  18.8320255  23.4241600  43.3276939
  15.6467581  24.5953922  41.2986679  15.6827993  24.6527920  40.0912018
  14.7699785  25.4062157  41.9001350  14.9291821  25.5044003  42.8926620
  13.6418295  26.0642414  41.2102356  13.6645794  25.9263382  40.1292343
  12.3861465  25.2127666  41.7379417  12.2975845  25.0217667  42.8074188
  11.0580339  25.8915539  41.2974129  10.9987335  25.9744759  40.2121925
  10.1996012  25.2646694  41.5386581  10.9355774  26.7940884  41.8961945
  12.3687038  23.8274784  41.0497551  12.1337004  23.9509773  39.9925842
  13.2686272  23.2814274  41.3327141  11.5043917  23.2617226  41.3975830
  13.5512991  27.5480423  41.7507133  13.8989754  27.8758698  42.9302635
  13.0604115  28.4458656  40.9256439  12.8534708  28.1311474  39.9885063
  12.5423355  29.7496872  41.3709297  13.3240995  30.1522045  42.0150833
  12.3866625  30.6656837  40.0989151  13.3977547  30.9739151  39.8328590
  11.9326077  30.0937538  39.2897034  11.6102676  31.9621468  40.2208138
  11.5653181  32.3824120  39.2160950  10.5977068  31.8540859  40.6095886
  12.3716135  32.9138107  41.1922569  12.2000656  32.7678375  42.4153175
  13.3007164  33.6239891  40.6930084  13.7668228  34.1393738  41.4259644
  13.1850634  33.9699249  39.7511749  11.1854343  29.6414528  42.0186958
  10.2546053  29.1480694  41.3669891  11.0566902  30.1528244  43.2376709
  11.8659725  30.5853977  43.6596184   9.7317533  30.0647564  44.0231552
   8.8798132  30.0980186  43.3440399   9.5875025  28.6982307  44.8106880
   9.6119270  27.8780842  44.0931435  10.7117996  28.4138279  45.7284698
  10.6467066  27.3824997  46.0751953  11.6929111  28.6133270  45.2975159
  10.4897032  29.1129456  46.5347023   8.2950201  28.5381298  45.4764595
   7.6042566  28.2878952  44.8585358   9.5972834  31.2705650  44.9768639
  10.5642328  31.8927383  45.3253746   8.4151230  31.6215935  45.3551483
   7.6351185  31.1880741  44.8821259   8.1251287  32.5227966  46.5157700
   9.1074505  32.8736992  46.8320274   7.2973270  33.7379265  46.1601830
   7.1862569  34.3829727  47.0317764   7.8607302  34.3695602  45.4733658
   5.8727851  33.4704247  45.6358261   5.3594112  32.3270798  45.6405373
   5.2565346  34.4147873  45.1427574   7.5211434  31.7290535  47.6589546
   7.2193456  32.3191261  48.7074738   7.3018064  30.3861923  47.5617561
   7.6582627  29.9838791  46.7066650   6.7777939  29.4584827  48.6233292
   5.8764782  29.9853897  48.9365387   6.4163356  28.0176983  48.1175804
   7.3658390  27.7136574  47.6770096   6.0054111  27.1045895  49.2602501
   5.2745662  27.6065693  49.8942680   5.6536527  26.1238976  48.9399185
   6.8895912  27.0845337  49.8973694   5.3063464  28.0727234  47.0163078
   5.2991166  27.1492786  46.4372597   4.4078541  28.3234196  47.5801926
   5.4846463  28.9401760  46.3808289   7.7959332  29.4591141  49.8041458
   8.9310446  29.1102085  49.5634460   7.4841995  29.8551617  51.0506554
   6.2014308  30.3258553  51.3888512   5.5659962  29.4517441  51.5311546
   5.9254465  31.0462418  50.6188011   6.3744206  31.1512280  52.6045837
   5.4371948  31.2070713  53.1582909   6.8518000  32.0671844  52.2564011
   7.4424610  30.3935165  53.3875694   7.0297050  29.5556908  53.9495125
   7.9023213  31.0093212  54.1604958   8.3733673  29.9697590  52.2150459
   9.0592108  30.8096027  52.1037292   9.2203569  28.6949005  52.3535309
   8.9059839  27.5757389  51.8867073  10.3472281  28.8326778  53.0020714
  10.5081339  29.7771091  53.3218498  11.3405390  27.7444229  53.3104630
  11.7574263  27.4373417  52.3512878  12.5049753  28.2949047  54.1602135
  12.8258972  29.2822208  53.8280716  12.1363344  28.3814373  55.1823273
  13.6975126  27.3108845  54.0688858  13.4185352  26.3922863  54.5850716
  13.9881039  27.0758915  53.0449524  14.9330626  27.8350163  54.8056068
  14.9240990  28.2343998  55.9761848  15.9840107  27.8550968  53.9978752
  16.8320770  28.2372265  54.3913956  15.9795170  27.4691315  53.0645409
  10.7315292  26.5137157  54.0357666  11.0206537  25.2948971  53.7163467
   9.8494205  26.7227287  54.9858017   9.5811377  27.6898117  55.0992737
   9.0818243  25.6862926  55.6978378   9.6588058  24.7803822  55.8836365
   8.5836315  26.3049660  57.0054321   8.3286161  25.5186958  57.7159576
   9.4144802  26.9244156  57.3431778   7.4271150  27.2426529  56.8123169
   6.5207424  27.1825829  57.5992851   7.4324346  28.1298809  55.9576340
   7.7951245  25.1782932  54.9106293   7.3573847  24.0644264  55.1646004
   7.2823677  25.8886261  53.9206696   7.8347878  26.6858368  53.6389084
   6.0793848  25.5469189  53.1664162   5.6013770  24.7870750  53.7846794
   5.2358274  26.7547207  52.8694572   5.8400726  27.6293373  52.6285515
   4.6573915  26.6422997  51.9524651   4.4264426  27.0858879  54.1401253
   3.9650700  26.1682549  54.5050621   5.0916348  27.3952885  54.9462852
   3.3812459  28.1759987  53.9184303   2.4867921  28.0396976  53.0494690
   3.4409416  29.2840042  54.6019897   4.1405735  29.2833538  55.3304253
   2.8479536  30.0882854  54.4550400   6.3516879  24.7604580  51.8843498
   5.4768872  24.0486889  51.3540764   7.5902185  24.8037167  51.3669205
   8.2917891  25.4266567  51.7408791   8.1103725  23.8772049  50.3598671
   7.5606885  23.9028473  49.4189682   9.6017294  24.2440453  49.8910866
  10.2257328  24.2956829  50.7833061  10.2795792  23.0027351  49.1659966
  11.2451153  23.2092056  48.7042389  10.3731718  22.1229553  49.8026505
   9.6329527  22.7321777  48.3312683   9.6835957  25.5299892  49.0357590
   9.2247734  25.4527931  48.0500488   9.1683636  26.3471718  49.5405884
  11.1134949  26.0042458  48.7065849  11.5949345  25.8595295  49.6737328
  11.6369114  25.4214249  47.9486580  10.9896278  27.0498638  48.4247322
   8.0889339  22.4408741  50.8795738   8.5809345  22.2354279  52.0331001
   7.4841280  21.5062199  50.0560493   7.1743193  21.8186150  49.1469116
   7.3488555  20.1412983  50.5674858   7.8529282  20.1503372  51.5338860
   5.8620901  19.8499527  50.8924904   5.1656308  20.1872787  50.1248589
   5.7326741  18.7691956  50.8349152   5.1941009  20.4461975  52.1839371
   5.7984881  20.2339764  53.0658569   5.1497602  21.5315590  52.0937958
   3.7662787  19.9594860  52.3597260   3.2594113  20.3240395  53.2531967
   3.1588137  20.3053551  51.5233917   3.8615668  18.4542542  52.4758835
   3.7304914  18.0102596  51.5782242   4.2702155  17.7301846  53.5485420
   4.5580921  18.2379837  54.7010956   4.9203687  17.5704460  55.3668671
   4.3931746  19.2203159  54.8681984   4.5657544  16.4405136  53.3456764
   5.1690316  15.9289293  53.9737167   4.2639189  15.9453964  52.5187187
   8.0194101  19.1331310  49.6708260   7.9155922  19.1043835  48.4811897
   8.7528105  18.2488251  50.3581009   8.6560316  18.1746082  51.3607101
   9.7037125  17.3492050  49.6684532   9.9555407  17.6100636  48.6405258
  11.0191031  17.4789238  50.4905891  10.8549843  16.9349098  51.4207573
  11.8432264  16.9137592  50.0552521  11.5679293  18.8705750  50.9360275
  12.4263124  19.5979958  50.0827332  12.7430611  20.6503029  50.8113594
  13.3951569  21.4379673  50.4638557  12.1645555  20.6525917  51.9921837
  12.2371798  21.3378582  52.7305832  11.4392538  19.5492420  52.1087608
  10.7728558  19.3239784  52.9282570   9.1376114  15.8785944  49.6423035
   8.5849857  15.4184380  50.6532440   9.3413277  15.1030169  48.6077995
   9.9949675  15.3434029  47.8763123   8.6245070  13.8518038  48.2947235
   7.7965221  13.7102556  48.9893532   7.8634520  13.9989815  46.9439049
   8.6160688  14.1421318  46.1685448   6.9258480  12.8079386  46.6030121
   6.4613805  13.0732327  45.6532784   7.4413018  11.8479815  46.5731888
   6.1439667  12.7421284  47.3596077   7.0116930  15.2830286  47.0221558
   7.5723758  16.1962910  46.8229179   6.2311745  15.3017282  46.2615356
   6.5479517  15.4427223  47.9955711   9.5195913  12.5906639  48.3275566
  10.4314251  12.4248810  47.5056381   8.9570761  11.5980043  49.0277328
   8.1204605  11.7853289  49.5616646   9.4702854  10.3072910  49.4978714
  10.3961849  10.1185780  48.9545479   9.8851061  10.3807993  50.9911194
   8.9768658  10.6058035  51.5502014  10.2205296   9.3604107  51.1766090
  11.0294676  11.3618126  51.3432159  10.8836164  12.7313843  51.2691879
   9.8664312  13.0940132  51.2539101  11.9452105  13.6633654  51.2037506
  11.8220501  14.7309523  51.0965309  13.2873554  13.1547241  51.2613373
  14.3850632  13.9899435  51.1894531  15.1773186  13.4930506  51.4063148
  13.4950323  11.7393084  51.3811111  14.4940987  11.3360901  51.4564857
  12.3776207  10.8435984  51.2815361  12.5474844   9.7779522  51.3257294
   8.4854021   9.1909151  49.0857086   7.3137197   9.2583284  49.3264847
   8.9883709   8.1505861  48.4394531   9.9938192   8.1024504  48.3566360
   8.2273798   7.0613332  47.8744354   7.2501655   6.9994097  48.3533058
   7.8713274   7.3168201  46.3623009   8.7859821   7.2126508  45.7786446
   7.2773571   6.4686451  46.0218544   7.1319447   8.6173220  45.9391594
   7.5458913   9.4287329  46.5377922   7.3765655   8.8915148  44.4753838
   6.6193271   9.5638781  44.0721321   8.4110327   9.1985464  44.3214111
   7.2331295   8.0277519  43.8261948   5.6620369   8.5959806  46.2505455
   5.1780620   7.8606911  45.6077309   5.4964290   8.3459244  47.2984734
   5.2397819   9.5902624  46.1049271   8.9276924   5.7731051  48.0563583
  10.0907698   5.6514530  48.3918991   8.1610813   4.7008719  47.7462158
   7.2680879   4.8659663  47.3041649   8.6122169   3.2920513  47.8719826
   7.7665429   2.6049242  47.8437233   9.4636841   2.9013853  46.7005043
  10.3042240   3.5924313  46.7641220   9.8991585   1.9270260  46.9220810
   8.8755302   2.9443908  45.2651062   8.4806967   3.9583776  45.2015648
   9.7054930   2.8214211  44.5692978   7.8984842   1.8669344  44.9376373
   7.2426424   2.0996318  43.8614426   7.6174455   0.8949285  45.6909943
   9.2803917   3.0360973  49.2864761   8.7357235   3.5345120  50.2912979
  10.4232712   2.2870989  49.3363190  10.8478003   1.8920572  48.5093880
  11.1597567   2.0376930  50.5438347  10.4563103   1.8381441  51.3521919
  12.1257114   0.8491997  50.3554535  12.7849045   1.0878210  49.5208130
  12.7038193   0.7440619  51.2735176  11.4802256  -0.4937949  50.3045235
  11.3286905  -0.7542192  51.3520546  10.6115818  -0.5374517  49.6475220
  12.5686464  -1.4236306  49.7699280  12.8778677  -1.1166942  48.7707901
  13.4608421  -1.3575135  50.3925934  11.8966293  -2.8191564  49.6991539
  11.7607603  -3.0451841  50.7567711  10.8645687  -2.7845070  49.3502274
  12.6927776  -3.7650673  48.9243546  13.5427570  -4.0237870  49.4046669
  12.2502661  -4.6652951  48.8065376  12.8281336  -3.3852649  47.9983253
  11.8654385   3.2566621  51.1273537  12.1881657   3.1948385  52.3086510
  11.9507751   4.3822465  50.4359627  11.4337978   4.4321051  49.5697327
  12.5887299   5.6018667  50.8833542  13.3339176   5.3584762  51.6406898
  13.1455889   6.3062930  49.6223831  13.6180944   7.2160039  49.9928818
  13.8561888   5.6542621  49.1144409  12.3058481   6.5905190  48.9882278
  11.6178446   6.4633474  51.7210159  12.0038671   7.5588522  52.2348785
  10.3643122   6.0140185  51.8957596  10.1153870   5.1130719  51.5130959
   9.3133335   6.7253857  52.6632881   9.2169409   7.6775565  52.1415787
   8.0024910   5.9115930  52.5794754   7.8761339   5.6729250  51.5234604
   8.1039991   4.6762471  53.4277725   8.9175091   3.9991822  53.1672249
   8.1585808   4.9505224  54.4812889   7.1619329   4.1340699  53.5093231
   6.8854070   6.8033366  53.0609398   6.9468093   7.0786171  54.1138191
   6.8688130   7.6563864  52.3826103   5.9885278   6.2107015  52.8806725
   9.7431602   7.0775952  54.1594467   9.3521910   8.0887289  54.7604980
  10.6804399   6.2680159  54.7353897  10.8515053   5.4121265  54.2271576
  11.1338797   6.3041863  56.1654739  10.2762861   6.5204687  56.8025475
  11.8212004   4.9346762  56.5030136  12.1004601   4.9364710  57.5566330
  10.7724724   3.8803432  56.5232048  11.1376896   2.9245672  56.8989716
   9.9529085   4.1857862  57.1736832  10.4560204   3.7448061  55.4889984
  12.9388752   4.4928594  55.5910568  13.3512564   3.5330255  55.9021225
  12.5652733   4.3651710  54.5750771  13.7306757   5.2410913  55.5550766
  12.2262850   7.4225097  56.3685989  12.4039049   7.8980198  57.4778290
  12.7624245   8.0116367  55.3475914  12.5329189   7.6354437  54.4387970
  13.8216848   9.1178379  55.3737144  14.4799147   8.9672337  56.2293701
  14.6423054   9.1271248  54.1427841  14.0091715   9.5324860  53.3535271
  15.4878149   9.7142239  54.5012932  15.2889261   7.8277717  53.6214600
  14.5472136   7.0562415  53.4148102  15.9736624   8.0820532  52.2381744
  15.3251123   8.5971031  51.5295067  16.8140526   8.7601585  52.3865662
  16.3195705   7.1888537  51.7179375  16.2925320   7.2956891  54.5987473
  16.8362980   6.3729424  54.3963585  17.0583019   8.0270491  54.8572235
  15.7072601   7.0958982  55.4963226  13.2100677  10.5297480  55.7276955
  13.9472990  11.3416605  56.2644043  11.8849335  10.7043419  55.5616913
  11.3466539   9.8592567  55.4344292  11.1897278  11.9620876  55.1698303
  11.5706472  12.3415899  54.2216873   9.7572365  11.5339251  54.8306313
   9.2853403  12.2782145  54.1891899   9.7420950  10.6453676  54.1994896
   8.9253569  11.1559515  56.0587349   9.4343996  10.3222494  56.5423851
   8.7092867  12.0031633  56.7096138   7.5588374  10.5845671  55.7096672
   6.9184680  11.3252554  55.2306976   7.6143336   9.7014370  55.0731888
   6.8913813  10.1986237  56.9536743   6.3732066  10.9348946  57.4113884
   6.6421819   9.0264244  57.3925743   7.0318642   7.9420004  56.7587891
   7.5897770   8.0717487  55.9269218   6.8766279   7.0591669  57.2242012
   6.0469217   8.8405132  58.4803848   5.8372765   7.9201417  58.8396492
   5.8408813   9.6677828  59.0219307  11.3184395  13.1079512  56.2237511
  11.2778807  12.8191319  57.4161186  11.4816732  14.3870049  55.8772087
  11.5935936  14.9227037  54.5643196  10.8274069  14.5085459  53.9089355
  12.6202564  14.8698273  54.2020111  11.2069168  16.4078617  54.7752037
  10.1282415  16.4887562  54.9094276  11.6519861  17.0273342  53.9965668
  11.8982048  16.7615891  56.0883141  11.4678507  17.6610832  56.5285454
  12.9416494  16.9457150  55.8325348  11.8171463  15.4433975  56.8576355
  12.8267298  15.2973318  57.2417030  10.8171778  15.6183586  57.9824677
  11.2270460  15.8982038  59.0951843   9.5314779  15.3683014  57.8015785
   9.1370001  15.0185747  56.9400826   8.6083260  15.7263956  58.9124489
   8.8861008  16.7183914  59.2686577   7.1509824  15.8969116  58.4513741
   6.9021068  14.8807468  58.1454849   6.4356823  16.0586319  59.2577858
   6.9100590  16.8606853  57.3306313   7.5556850  17.9571342  57.3274765
   6.0158062  16.6441345  56.5032692   8.6540785  14.7222576  60.0579109
   8.4818382  15.0447559  61.2642403   8.8416662  13.3952532  59.6891403
   8.9690065  13.1316576  58.7224960   9.0799847  12.3814898  60.6834373
   8.2782621  12.4197912  61.4209213   9.0721521  11.0281286  59.9813995
   8.0618706  10.8624210  59.6072693   9.7756462  11.0246897  59.1488152
   9.5530901   9.7908926  60.8180580  10.6028547  10.0133362  61.0093994
   8.8673820   9.6235352  62.2142220   8.9779778   8.5980577  62.5667305
   9.1716328  10.3377428  62.9793625   7.7923274   9.7913151  62.1492767
   9.3992491   8.4645910  60.0945129   9.5824680   7.5665159  60.6844330
   8.3252745   8.3557978  59.9433632   9.9816322   8.4819727  59.1733017
  10.4487381  12.6390924  61.3353767  10.5451345  12.5449324  62.5450974
  11.4696712  12.9286518  60.5803680  11.2763996  12.7787361  59.6004333
  12.7961903  13.3227119  61.2545204  13.2494164  12.4961634  61.8017921
  13.6668558  13.7053862  60.0618668  13.4135542  14.6913548  59.6722488
  14.6719484  13.7777567  60.4773827  13.6220188  12.7683964  59.0259552
  12.8251600  12.8815947  58.5026932  12.6615438  14.4625130  62.2397919
  13.0602446  14.3123293  63.3830910  11.9714079  15.5547724  61.8959541
  11.5012493  15.6141748  61.0040359  11.7308407  16.7245541  62.7346878
  12.7154522  17.1204891  62.9834404  10.9103432  17.7307072  61.9557190
  11.4329367  18.2578773  61.1575432  10.1798201  17.1353016  61.4080620
  10.2744417  18.7939415  62.8567467   9.6501226  18.3900166  63.6537209
  11.3755693  19.6378784  63.4600677  11.9006920  20.1250172  62.6384583
  11.0389795  20.4472103  64.1079788  12.0882702  19.0818138  64.0691299
   9.3732710  19.6470451  61.9034615   9.0183077  20.4708500  62.5226936
   9.9402437  20.0926971  61.0861244   8.7024632  18.8855000  61.5057640
  10.9315872  16.3099384  63.9824905  11.2611074  16.6432858  65.1345367
   9.9296598  15.4435024  63.9116745   9.6206131  15.0970669  63.0146904
   9.1257849  14.8832140  65.0619736   8.6273136  15.6635418  65.6370544
   8.0864172  13.9252415  64.4043045   8.6381292  13.1654568  63.8507309
   7.2231631  13.1417685  65.3650055   7.8806686  12.6960011  66.1113815
   6.4776049  13.7994909  65.8118210   6.7511601  12.3633213  64.7655563
   7.2104983  14.5514898  63.4355469   7.6483693  14.8291903  62.6276169
  10.0009651  14.0572920  65.9508133   9.9054623  14.1893692  67.1772995
  10.9127359  13.2462893  65.4011993  10.7516565  13.1447515  64.4093094
  11.9274569  12.5113115  66.2195816  11.3973017  11.9439421  66.9845123
  12.7093687  11.4753656  65.3526993  13.0208015  12.0077868  64.4540176
  13.6966572  11.2454653  65.7533340  11.9487381  10.2554684  65.0295792
  11.7080526   9.7621889  65.9712982  11.0262794  10.5539732  64.5315170
  12.7116661   9.2551994  64.1212845  13.6869659   8.9543705  64.5038986
  12.0960922   8.3557129  64.1117096  13.0047569   9.7459021  62.7083244
  12.0701790   9.8242006  62.1528702  13.4771357  10.7226048  62.8132744
  14.0287209   8.9384403  61.9426575  14.8583040   8.9133701  62.5182114
  13.6680450   8.0502100  61.6247597  14.2890854   9.4558983  61.1152840
  12.8159847  13.4961472  67.0217438  12.9605312  13.2767696  68.1754456
  13.3516455  14.5215960  66.3553162  13.2068214  14.5089884  65.3558273
  14.0411720  15.6222248  66.9955444  14.9344425  15.0992451  67.3371048
  14.5622673  16.6511307  65.9538040  13.6751165  17.1951237  65.6295547
  15.0939569  17.4610252  66.4532852  15.3406010  16.1786194  64.7586594
  15.1092262  16.6121788  63.6276207  16.2726402  15.3056803  64.9671021
  16.4772892  15.0117130  65.9114532  16.9101830  14.9717131  64.2585068
  13.3260193  16.3439236  68.1436234  14.0126190  16.7197552  69.0831909
  12.0533857  16.5535908  68.0098572  11.5408125  15.9527922  67.3802414
  11.3803787  17.6768551  68.7231522  12.0795698  18.1749687  69.3948059
  10.9175367  18.8350391  67.8579102  10.3860970  19.4907188  68.5476608
  11.9753733  19.6818447  67.2560959  12.6056108  20.1449890  68.0152969
  12.6246042  19.1673985  66.5476151  11.5504055  20.5801392  66.8082428
   9.9760809  18.4859619  66.8344574  10.4951401  17.9802494  66.2048264
  10.2704668  17.1059437  69.6189957   9.4990273  17.8850098  70.1717377
  10.0125790  15.8312263  69.6937027  10.6342373  15.1938181  69.2168884
   8.8392038  15.2757750  70.3619080   8.5035725  15.9092751  71.1829605
   7.5340090  15.2507286  69.4243927   7.5719619  14.4341497  68.7033844
   6.7242322  15.0122929  70.1139679   7.0506358  16.4992428  68.6531525
   6.9978786  17.3118000  69.3777695   7.7698050  16.6445351  67.8470612
   5.6920605  16.3630714  68.0636673   4.8786659  15.5389395  68.5367584
   5.3289499  17.1538410  67.2085495   8.9894409  13.8571815  71.0024948
   8.5191822  13.7262459  72.1538620   9.5456161  12.8322439  70.3248825
   9.9031258  13.0483646  69.4053268   9.6117954  11.4537373  70.7620239
   8.7180204  11.3052549  71.3680115   9.6249695  10.4423971  69.6211243
  10.6205969  10.4772921  69.1788483   9.5384722   9.4285812  70.0120163
   8.5761786  10.6241808  68.4953537   8.5222015  11.6257868  68.0687714
   8.8573208   9.8149033  67.2292404   8.8749895   8.7513361  67.4671783
   8.0619688  10.0452185  66.5203934   9.8286047  10.1244535  66.8433838
   7.1326165  10.2469540  68.7961197   6.9572582  10.5310249  69.8337402
   6.4212546  10.5712118  68.0365677   6.9293561   9.1791906  68.7144699
  10.7515287  11.2367105  71.6746292  10.5144625  10.6891212  72.7619019
  11.8648567  11.4913616  71.2146683  25.2239456  12.1413946  29.2087688
  25.0655766  11.0695286  29.1110420  26.0252457  12.4528923  29.8754101
  24.7352123  13.0599298  28.3923988  24.9703159  14.5264683  28.5517197
  24.3192501  15.3703547  27.9468594  25.6358509  14.9841051  29.4579678
  23.8262730  12.7039843  27.4108429  22.6719799  11.9810333  27.6948833
  22.9461880  11.3437529  28.5445137  22.2731895  11.1303053  26.5454426
  23.0283413  10.8142338  25.8289452  20.9887276  10.6666470  26.5675945
  19.9834900  11.1800117  27.5188694  18.9757118  10.7694178  27.5048866
  20.2868977  12.1867676  28.3964195  19.5889950  12.4575987  29.1857929
  21.6042004  12.8725739  28.3045044  21.4021320  13.7785778  27.7201118
  21.9301720  13.3501806  29.5360413  21.3485889  14.1249285  29.6268959
  20.6999855   9.5132990  25.6460209  21.5922337   8.9023638  25.1139698
  19.5860748   9.0389080  25.5753860  40.9995918  21.2195568  46.4932785
  41.8041153  20.7714767  45.9140625  41.2749252  22.1861343  46.9097481
  39.8894348  20.5759640  46.9725189  38.8726730  21.2939339  47.7449570
  38.8428650  22.4979725  47.7946167  37.9508018  20.7284660  48.3461266
  39.6608162  19.3180351  46.5923424  39.3314781  18.9986916  45.2376709
  39.2371101  17.9059334  45.2247467  40.3662148  19.4698143  44.2866745
  41.2777252  18.8762379  44.2681999  40.2991829  20.6594543  43.6082954
  39.0558815  21.3925915  43.7859192  39.1120911  22.4601650  43.5821266
  37.9346466  20.8634815  44.2875710  37.0435677  21.4846745  44.3477669
  37.8889656  19.4951172  44.9043846  37.3585129  19.6068954  45.8579674
  37.2919960  18.5155563  44.0854683  36.5667610  18.0996170  44.5832214
  41.4122009  21.2470818  42.7942886  42.5212479  20.7131805  42.7826691
  41.2869110  22.3569660  42.2861977  17.8860264  11.4671268  55.6234665
  17.1486282  12.2606878  55.7236176  18.3299980  11.1651802  56.5696411
  18.3340149  11.0303335  54.3785210  17.8195839  11.6027966  53.0698967
  16.8881130  12.3526917  53.1192169  18.3407879  11.2924356  51.9960403
  19.4045391  10.2006884  54.2475471  20.4849072   9.9611044  55.2676773
  21.1689606   9.2066278  54.8602180  19.9134464   9.3188152  56.5390663
  19.0208607   8.6999969  56.4767799  20.4285297   9.4561090  57.7515717
  21.5864544  10.3228474  57.9380531  22.0711403  10.4345789  58.9060364
  21.9534626  11.1952305  56.9743271  22.5918255  12.0570135  57.1569405
  21.3325462  11.2380953  55.5834007  20.7330475  12.1560440  55.6174850
  22.3610840  11.4583673  54.6497574  22.5407276  10.6242990  54.1820107
  19.7760353   8.7936850  58.9797401  20.2509842   9.0206432  60.0791397
  18.9023304   7.9910178  58.8465195  12.8917971  60.1232567  20.0050602
  78.4428177  27.8494415  65.4504852  25.7405128  32.6074638   7.6175966
  27.6228390  52.0975533  49.5472374  32.2687759  45.0206566  49.9444008
  17.8806019  53.6353493  75.3412094  26.6976776  11.8899240  75.9633408
  27.6002865   2.5332763  81.2208023  82.9977646  14.8257036  79.8298264
  66.3604584  10.0944510  85.3824387  65.6269379  10.1083755  84.7676315
  66.2453079  10.8843946  85.9106064  10.8237419  59.7734947   2.7067218
  10.7242308  60.3592148   1.9562134  10.0131149  59.8816986   3.2041235
  80.8306580  17.6668415  16.8118362  81.2864456  18.0366478  17.5679646
  79.9449844  17.4900742  17.1289597   2.9437764  45.8558350  38.9990959
   3.6569803  45.2428436  38.8207397   3.3744569  46.7065620  39.0828247
  85.4504852  47.6337128  49.8265228  85.0898743  47.0446739  50.4892578
  85.8523254  47.0514603  49.1817398  48.6005440  33.9697189  86.9322510
  49.1217384  33.2213020  86.6416321  48.1040916  33.6395416  87.6810837
   4.7568297  19.0240822  75.4956512   4.5067759  19.8852959  75.8303452
   5.5180278  18.7751503  76.0199127   0.6126182   6.6064458  11.4168186
  -0.2977956   6.6195488  11.1215105   0.9217685   5.7266188  11.2010355
  82.9108505  43.3394852   0.4081877  82.8509445  43.0626488   1.3225210
  83.8172455  43.1559067   0.1612473  37.2932281  27.1898670  10.6110125
  37.5294266  26.2681942  10.7157068  36.3444405  27.2096672  10.7360668
  75.2753143  43.9076080  78.1367340  75.2149277  43.4274826  77.3108597
  75.5628052  43.2534218  78.7736206  85.3098450  61.5865326   9.3279324
  84.3610764  61.6997681   9.3849659  85.4439697  60.6426353   9.4133759
  12.9347000  41.0041542   4.3035946  13.1178999  40.7486801   3.3994908
  13.7458086  41.4125786   4.6061206   5.5483885  66.4369507  14.5002661
   6.1232328  65.6716766  14.5121784   4.7358375  66.1324615  14.9043446
  76.6028061  52.9261551  63.1586876  76.8243866  52.0747490  63.5358315
  76.8059311  53.5550270  63.8511429  55.5217667  64.4634171  73.5021744
  56.2231941  65.0543823  73.7760086  55.9315491  63.5986099  73.4816437
  11.2860060   4.7710090  78.2527466  11.9084473   5.3048863  78.7464752
  10.4321175   5.1575184  78.4469528   9.5938234  47.8873062   5.8880229
   9.3235149  47.2024765   5.2763252  10.4391060  47.5887337   6.2235575
  51.1205444  66.7553787  10.4394779  50.4841652  67.3578033  10.0543385
  51.9694366  67.1651535  10.2730513   2.8191125  54.4608765  86.0367432
   3.4082699  54.6927223  85.3188477   3.3291910  53.8609810  86.5809631
   6.1369619  37.0167503  47.9816856   5.3177037  37.1288681  48.4638481
   6.6566372  36.4258041  48.5266190  27.8980522  24.1479702  79.7093353
  28.6815414  23.6735744  79.9874039  27.6602383  23.7481232  78.8727951
  75.7436523  26.2996159  59.3091545  75.9937439  26.7531967  58.5042000
  76.5066376  26.3873386  59.8804512  52.5237465  18.2114658  61.8392067
  52.0383568  17.5207157  62.2903137  53.4434242  17.9725170  61.9546738
  65.7490387  32.5236855  34.2866592  66.5419617  31.9976139  34.1829643
  65.7342072  33.0893135  33.5145988  77.3007736  18.2798290  81.3983307
  77.9379501  18.8913231  81.7675400  76.5053635  18.8006611  81.2874756
  67.3400192  24.2507401   5.5391731  67.5719986  23.8575630   4.6978483
  68.1415329  24.6863308   5.8291149  62.3887825  70.5215454  79.3568115
  61.9419327  71.2835617  78.9881744  63.2070312  70.4619598  78.8637085
  45.0353889  61.8118896  38.5569534  45.8591156  62.0596886  38.1370735
  44.7083664  62.6252098  38.9414024  40.4375572  65.4819565  74.6091766
  40.9459419  65.7560654  73.8458710  40.3934593  64.5284424  74.5377426
   1.6289016  57.4113503  58.5333252   1.0990416  56.6154060  58.4891205
   2.5317643  57.1025467  58.4577484   3.7061639  43.7648811  84.2264938
   4.6320038  43.8520584  84.4533234   3.3459136  43.1943779  84.9054489
  56.8111610  31.9955139  61.8071747  57.1757011  32.3586464  62.6143112
  57.5530128  31.9618340  61.2032280  15.6535072   9.4214611   8.9368382
  14.9544754   8.9886971   9.4270439  15.2149286  10.1353626   8.4739933
  54.6017189  28.8337269  59.1836929  54.7083435  29.6073647  59.7371788
  53.6607895  28.7885780  59.0138474  86.4488068   2.7501955   0.2964830
  87.2889862   2.4426239  -0.0437144  85.9919739   1.9525008   0.5633494
  35.7588997  27.6343441  72.5594788  34.9261131  27.8300781  72.9888763
  36.0140419  26.7807484  72.9094925  66.7202988  18.8815937  29.2293873
  66.2742844  19.7043343  29.0283718  66.2046432  18.2131729  28.7782249
  65.8440018   4.3264608  10.9605761  66.1942978   4.4183912  10.0745344
  65.3222198   5.1175828  11.0951166  56.8781662  53.6942978  40.7480240
  56.6997757  53.7564163  41.6864014  57.4187088  54.4605026  40.5557442
  26.5405903  66.4213638  80.1772690  27.4760742  66.4195709  79.9745483
  26.5019436  66.5160980  81.1289902  78.4370270  21.4594860  14.9877987
  78.1307297  20.5603924  14.8692932  79.3861160  21.3786926  15.0823030
  79.8324127  30.0758038  76.4714050  80.0331650  30.5269318  77.2914124
  80.1287308  30.6773415  75.7883377  73.2417984  54.7526245  48.8565903
  72.9901276  55.2084236  48.0533791  73.5505295  53.8966560  48.5595474
  24.3924065  32.0694962  22.0408726  25.0790043  31.5097904  22.4035606
  23.7335129  32.1195831  22.7333908  12.6974640  28.1944656  27.2003822
  13.1113691  28.3603458  26.3533878  11.8824501  27.7414856  26.9840660
  35.0009117  39.5180244   1.4837546  35.2343559  39.5481377   0.5559459
  34.2260590  40.0756111   1.5539895  45.4243279  35.8219299  36.8876877
  45.1471252  36.1415825  37.7462997  44.8224297  35.1033325  36.6938782
  48.0368500  47.5045166  65.2695923  47.5887718  47.7547913  66.0775681
  47.3300552  47.3205185  64.6508713  54.1663742  26.5462017  60.8089142
  54.9466667  26.8335400  60.3347664  53.5261269  27.2421131  60.6605225
   2.0408132  54.1747398  35.6645622   1.7525221  54.7276688  36.3907776
   2.8080652  54.6246948  35.3108673  83.3495407  38.6145096  66.7262268
  83.6940994  37.7416763  66.5373764  83.0385818  38.9374123  65.8804932
  47.4416656  68.6081924  10.6344547  47.1283264  68.5265808  11.5352268
  48.2515907  69.1130981  10.7074213  33.2612114  70.8392181  21.3624706
  32.4217415  70.3940430  21.2469711  33.7509537  70.6375580  20.5651531
  64.2652969   3.2542105  18.2642670  65.1691895   3.5266128  18.1061039
  63.7621651   3.6785784  17.5692863  20.4356632  46.5927963  77.4247055
  19.5852966  46.6761551  76.9932480  20.9049778  47.3920174  77.1855011
  56.5772438  53.9258537  36.0952492  55.8843155  53.7834892  36.7400894
  56.3117561  53.4026680  35.3389282  36.3219223  27.4061089  64.7219543
  35.8054466  26.6199512  64.5446472  37.1066208  27.0824356  65.1643524
  70.7332001  20.5026741  33.7362671  70.6743851  19.6564980  33.2926941
  70.8421021  20.2812271  34.6611099  43.6489182  38.8898926  64.9870377
  44.1018600  38.0766525  64.7640686  44.2603111  39.5816383  64.7342300
  46.4287987   6.2840872  81.7996216  47.1325340   5.7879391  81.3815002
  45.9340935   6.6586823  81.0708084  65.6198730  44.5513725  40.0696983
  65.9085388  43.6399841  40.1174088  65.3929291  44.6828499  39.1491318
  63.1963425   8.4703856  15.2399788  63.7724266   7.9708829  15.8186474
  62.3891792   8.5806494  15.7425308  52.6346359  21.9714813  48.5632973
  52.0941238  21.2499008  48.2417450  52.3827400  22.0686588  49.4816322
  80.2934647   1.1527160  12.1066990  80.3900909   2.0230544  11.7201700
  80.2155838   1.3154353  13.0467472  73.4140701  23.7507858  46.7333870
  74.0985565  24.0645142  46.1423836  73.8483582  23.0910206  47.2740631
  73.2947540  36.6014366  40.6752434  72.8701324  36.2383232  39.8980179
  73.8517303  37.3031082  40.3381081  40.1598396  70.0173492  35.4966965
  40.7725449  70.5418015  36.0122299  39.2958221  70.2690277  35.8228340
   6.3048372  31.7244987  73.8930130   6.2231131  32.3673325  73.1885147
   7.0946999  31.2296047  73.6752319  76.1631775   9.2893200  34.6664085
  75.6287537   8.8312559  34.0177193  76.6667099   9.9240942  34.1567574
  21.9125900  64.0592499   4.3894119  21.8463554  63.2914352   3.8216872
  21.2550449  64.6660385   4.0493059  31.2632351  60.8905067  77.1295242
  32.0294075  61.3010445  76.7286835  31.2037830  61.2902374  77.9972305
  74.6895065  58.9012794  88.5287094  74.0479584  59.2367783  89.1548767
  75.5262146  59.2551804  88.8302155  58.4398651  19.5891552  80.5262299
  58.3600883  18.8706837  81.1536560  59.2929764  19.9794483  80.7162323
  15.9618292  48.5522919  41.5180168  16.7786350  49.0470428  41.4525795
  15.2775002  49.2212791  41.5375557  19.0449924  60.8042603  82.2794418
  18.8765697  59.8636665  82.2233582  19.5901413  60.9038506  83.0599060
  82.8281403   4.7297845  84.3037033  82.4210968   4.7624311  85.1694260
  82.8957672   3.7956893  84.1059036  30.5745449  39.4757385  65.6547546
  30.2638397  38.5763245  65.7584534  29.8837166  40.0138550  66.0412979
  14.8203144  35.1912727   3.5957954  14.8995848  34.4994164   2.9390740
  15.7086210  35.5352440   3.6897421  85.6470413  70.6358109  77.6414642
  85.6644516  70.7330322  76.6893768  84.7198334  70.6959686  77.8714523
  32.4154816  50.1658440  10.4872360  32.7983627  49.6631470  11.2062120
  32.7651062  49.7563324   9.6958494   5.3882713  65.6301956  23.3892956
   5.7521811  64.8836823  23.8652344   4.4439311  65.5685959  23.5330276
  14.4121895   0.0988261   9.3354101  14.0216637   0.9563437   9.5038891
  14.0542250  -0.1650134   8.4877768   6.8947120  70.2267761  82.5710144
   6.1596427  70.2916718  81.9613495   7.6458006  70.0104980  82.0184555
  58.9013290  43.4171715  72.1739655  58.3860512  44.2216988  72.1151810
  58.7335739  42.9643745  71.3474884  30.2535267  52.7604828  16.7016106
  29.6398239  52.1577988  17.1215782  30.0343189  53.6180305  17.0660191
  25.0915718  10.1793737  74.3120728  24.1415119  10.2538929  74.2222672
  25.4230976  10.2507486  73.4169617  68.4341888  40.3052750  72.2320099
  68.0934906  40.5243530  71.3647385  67.8569336  39.6099434  72.5474777
  34.7145920  68.7386169  86.9517136  34.2305183  68.0370636  86.5161285
  34.2156563  68.9143600  87.7494659  36.2770500  43.0779457  86.6460876
  36.7368355  43.0219727  87.4837646  36.9390984  42.8491554  85.9937286
  62.2403069  31.5465298  13.5097961  62.0547142  32.3936157  13.1045437
  63.1936035  31.5247326  13.5933752  46.6367188  27.2398872   9.2555199
  46.6268234  27.4813900  10.1816998  47.5639534  27.2398453   9.0179024
  84.6287231  67.8513412   2.2009442  85.5254593  67.6438675   1.9381496
  84.5758896  67.5707321   3.1145627  81.3721390  56.7753983  65.4931946
  80.8606567  57.1356697  64.7687454  82.0788727  56.2889557  65.0687790
  16.4990978   6.3251657   5.9732413  17.1282864   7.0400500   5.8768401
  16.0167313   6.5367885   6.7724729  46.0829964   1.5140781  30.9344845
  46.7516518   1.0330627  30.4468842  45.3082047   0.9533669  30.8953209
   6.1511822  65.2145309  71.4114075   6.6632504  64.7412033  72.0671387
   6.1491842  64.6380844  70.6472473  67.1401596   8.0657454  12.7811747
  66.2721252   7.9502907  12.3946342  67.3798218   7.1942863  13.0963793
  55.7727509  42.8209953  79.2058411  55.1436501  42.1891594  78.8576431
  56.6204987  42.5199852  78.8788147  24.0544281   7.8154063  76.2917862
  23.1302776   8.0584974  76.3473282  24.3306026   8.1197348  75.4272995
  60.8262901  21.7438736  49.6571465  61.0789604  22.2658615  50.4186668
  61.0648651  20.8470402  49.8916664  82.8789597  42.3097420  46.4758873
  83.4204025  41.8307152  45.8485031  83.3027649  42.1604233  47.3210640
  35.8161049  53.0095711  28.1310711  36.0385361  52.7674179  29.0300255
  34.8745155  53.1800575  28.1549454  49.2479324  17.6491852  41.3195953
  49.2389030  16.7715721  40.9375687  49.0359192  18.2305031  40.5892868
  70.0171890  48.1408386  83.7521210  70.8780365  47.7605476  83.5773315
  70.1330643  49.0779991  83.5954742  25.5192375  53.1835289  68.8794708
  25.8370018  53.7904625  68.2109756  26.1827335  53.2174072  69.5685730
  41.2129173  39.8133011  29.2072945  40.7881050  39.1133156  29.7030659
  42.1347656  39.5577316  29.1739311  69.5586700  26.0462379   6.3318176
  69.5914154  26.3046684   5.4107461  70.4376068  25.7169247   6.5195756
  16.7994423  63.0174980  16.4201794  16.7662563  63.6580582  15.7096748
  16.1582603  63.3328476  17.0571041  69.8356628  68.4601669  68.8798676
  69.6056366  68.1330032  68.0102234  70.7727051  68.2829819  68.9622955
  49.7752914  42.4421120   3.4159696  49.0799179  42.2347374   4.0402160
  49.8540382  43.3953476   3.4530907  51.9104004  14.4827642  53.5615463
  52.1365929  14.8807936  54.4021683  51.9443359  15.2071028  52.9367142
  68.9875336  65.1127167  39.5962067  69.1472702  64.3417130  40.1405220
  68.6497192  65.7697525  40.2048225  24.9383221   7.3107686  73.4899979
  24.1154766   6.9263453  73.1877136  24.9236336   8.2055950  73.1504364
  22.0119972  43.4629135  52.1246529  21.3726730  43.3052444  52.8193741
  21.4940491  43.8035126  51.3953018  21.5515308  61.6303101  17.6304989
  20.8028431  62.2069740  17.4783230  21.5715351  61.0565910  16.8645477
   8.1222782  41.3426018  54.2348061   7.8677320  40.4321365  54.3847771
   7.6115518  41.6114120  53.4711761  11.9031639   4.7933407  65.5366058
  11.4192533   4.1659913  66.0737228  11.2792463   5.5008092  65.3739777
  60.1067429  62.4190025  33.3449783  60.7071152  62.0294380  33.9806061
  60.0751572  61.7869987  32.6267815  75.6524429  12.7786188  10.1978045
  76.1832581  12.1920900  10.7367449  75.7990417  12.4780502   9.3009205
  45.6972046   0.7991571  49.2754593  44.8172455   1.1735680  49.2339211
  46.2497673   1.5192226  49.5794487  84.2900467  38.6289864  29.9850540
  84.3087845  37.6859550  30.1480579  84.9456177  38.7669487  29.3013706
  77.5679855  10.6889982   4.8515010  77.4342194  11.5883770   4.5524049
  78.3182678  10.3773537   4.3453608  28.4716206   9.8431368  13.4856453
  29.3491592   9.6318970  13.8042908  28.2620182  10.6807985  13.8987103
  74.6412201  48.1793594  77.7058411  74.5457764  47.3615913  77.2175980
  74.9066086  47.9047089  78.5835495  49.2372818  26.0999794  65.6438217
  48.8250313  26.2258987  64.7891769  49.5890198  25.2103405  65.6113358
  49.8798332  61.8054924  23.6067524  49.4331894  61.7338448  24.4503193
  50.5631447  61.1360054  23.6399059  37.0444870  37.4627724  38.5287056
  36.3487625  37.9032745  38.0406914  37.0523758  36.5706253  38.1819458
  72.0242310  51.6368790  24.5776501  71.7969437  50.7286224  24.7767487
  72.8324280  51.5754242  24.0684566  35.0105171   7.8593779   0.8999297
  34.1690636   7.4368858   0.7276182  35.3359337   8.1068907   0.0344395
   2.4462230   8.7777958  47.5167694   2.9715509   9.5318785  47.2491493
   1.8186452   9.1341305  48.1455803  39.8620148  66.0865021  86.7828674
  39.4107933  66.5259781  87.5036240  39.5958366  66.5720520  86.0020905
  63.0619087  48.0506592  10.1794910  63.2312279  48.3413582  11.0756264
  62.1101723  48.0969658  10.0884619  70.4419785  13.7135181  29.2545738
  71.2827988  13.3210554  29.4895687  70.1559677  14.1615667  30.0506153
  30.6306400  56.2719345   6.0700946  31.2841969  56.7040672   6.6199617
  30.3321953  56.9557571   5.4704704  64.9808044  20.8835983  56.0489006
  65.4155426  21.5826225  56.5373688  64.4395752  21.3415947  55.4058266
  54.6591682  47.2201233  41.1891899  54.6459389  46.3920555  40.7092323
  53.9181976  47.7130814  40.8367882   1.9529424  45.6241455  83.2924500
   1.4867086  45.6619034  84.1275711   2.5329320  44.8672638  83.3759384
  54.5984154  38.1877441   7.8848367  55.3797798  37.8931885   7.4169302
  53.9433746  38.3177643   7.1990914  20.9018784  40.6298370  24.4921513
  19.9990902  40.5541382  24.1831608  20.8372326  40.5461884  25.4434948
  49.3196335  12.3935280  57.6796837  50.0827141  11.8424778  57.5056763
  49.6083107  13.2790499  57.4588966  20.2916088  57.4318466  35.6022530
  20.9676723  57.9917793  35.2206230  20.4827271  56.5585175  35.2601967
  67.1518326  30.4270248  31.2731304  67.6189651  29.7822018  30.7418823
  66.2560806  30.4113483  30.9360695  76.0196457  41.7376862  46.7915421
  75.0846481  41.5328865  46.7994270  76.1882629  42.0531387  45.9036865
  63.5104866  41.7864685  10.4034910  63.3505020  42.6784668  10.7116709
  63.5034370  41.8579559   9.4489908  65.6452713   4.7041245  62.0475807
  65.2126389   3.9387124  62.4260063  64.9912720   5.4008431  62.1032715
   6.4975514  42.0552444  60.9073944   5.8911233  42.1812363  60.1775970
   7.2348380  41.5781898  60.5265236  23.2015762  35.0602379  11.1284389
  23.7658539  35.6086998  11.6734285  23.2633152  34.1891785  11.5204525
  41.5050659  16.4286747  76.2937851  41.2361984  15.6259508  76.7405243
  42.2541656  16.7445679  76.7990494  29.8766193  55.4668274  17.8594341
  29.6057491  55.0378304  18.6711121  30.5739117  56.0658379  18.1262760
  34.3197746  49.4931412  20.1923199  33.9791183  49.8653870  19.3789215
  35.2380295  49.7626152  20.2129269  43.3693199  23.9214993  66.9464798
  43.9806404  23.8883476  67.6822891  42.5090675  23.7851276  67.3434677
  27.1903515  53.4433098  42.9341431  26.4422474  53.0945091  43.4188156
  26.8302708  54.1735916  42.4308891  60.7403679  26.5916386  33.5409126
  60.7664528  25.9417820  34.2432213  60.3758698  26.1202316  32.7918129
  35.2339096  69.5661469  33.9758949  34.6687050  70.1020432  33.4194870
  35.4150276  70.1187592  34.7361908  47.6630478  52.8519516  47.5164909
  47.1317711  52.0638123  47.6296883  47.1968422  53.5277786  48.0085678
   9.8191624  67.9261475  29.4451828   9.5058985  68.6096802  28.8528309
  10.3649988  68.3906860  30.0796051  43.4600143  41.6664772  60.2371216
  44.4060059  41.7418785  60.1120224  43.2397270  42.3810577  60.8346786
   5.0543737  47.3095016  65.5076218   4.2565732  47.5200310  65.0224152
   5.1641421  46.3658943  65.3901978  73.3987885  57.9106865  51.6611137
  72.5242767  57.7094879  51.9942589  73.9826508  57.7336769  52.3986778
  28.2639847  -0.0010905  51.8870621  28.5000801   0.6689301  51.2455330
  27.5039520  -0.4405835  51.5057106  48.8114204  10.6397991  24.9694023
  48.0317574  11.1853714  25.0728817  48.8888969  10.5095596  24.0242729
  42.2259636  37.4654808  85.4638596  41.7701607  37.2849884  86.2859879
  43.1222992  37.1661453  85.6162262  71.1006241  50.2807579  30.2171078
  71.2295990  49.4661179  30.7028637  71.8410187  50.3183441  29.6115990
  66.8451080  11.6357965  20.7869339  67.2979126  10.8040190  20.6478462
  66.8398056  11.7496166  21.7373276  74.5823593  26.6955128  35.2286530
  74.9047394  26.7024422  36.1299057  74.5646439  27.6179142  34.9735184
  71.8202362  57.1684532  33.6647758  71.4592972  56.8685760  34.4990578
  71.4498138  58.0427704  33.5439835  67.1373367  30.0928459  11.3384094
  67.7812042  29.4834785  10.9773884  67.4622345  30.9586849  11.0914364
   0.4797749  49.1150208  36.3403091   0.3443019  50.0563393  36.4489403
   1.2871504  49.0464706  35.8307228   2.5290985  36.4190292  64.6405182
   2.6988480  36.5623398  65.5715866   2.2238221  37.2674942  64.3193512
  10.9036732  24.3289204  15.4952211  11.0258102  24.5938129  16.4068928
  10.9518433  23.3731384  15.5150042  47.2364693  62.1769562  75.6394272
  47.8714638  61.8492279  76.2762985  47.7451096  62.3064842  74.8389664
  23.9199600  64.4425583  60.4621849  24.3776855  64.8430405  61.2013321
  23.8071918  63.5270615  60.7178764  68.1120605  32.7415657  46.4104042
  67.4841309  32.6541214  47.1275406  68.9162140  33.0448456  46.8318176
  42.1617813  30.6139164  82.4911880  41.3824043  30.2870941  82.0417557
  42.4598503  31.3463383  81.9517975  68.2347183  35.5576897  73.0132065
  67.9830322  35.8526268  72.1380463  68.7115631  36.2983894  73.3876572
  61.7368126   9.4400606  72.7209091  61.8634491   9.0055714  71.8774567
  60.9006767   9.8973742  72.6316071  29.2115021  62.9896088  32.5032730
  29.3892612  63.4584885  33.3186150  29.4691601  62.0859451  32.6855888
  68.0790710  70.1056213  30.4243965  68.5838699  69.3883057  30.0411625
  67.8389435  70.6549225  29.6781788  56.7650528  67.2868118  79.0249405
  56.7749405  66.3862457  78.7007217  55.8362808  67.4938889  79.1285400
  10.9818935  37.3233147  26.4356689  10.9169827  37.1465530  25.4971752
  11.1520395  38.2636414  26.4910793  54.1411362  70.8472595  58.8185997
  54.4332962  70.5447617  57.9587326  54.8770065  71.3584061  59.1554337
  77.7954254  70.5448532  34.5018730  78.3281860  70.2589722  33.7598000
  77.0845490  69.9054260  34.5467987  41.3986397  14.6679459  18.7092953
  41.2103729  15.5671177  18.9781380  41.3886909  14.1670351  19.5249062
  36.8484001  56.3647995  35.5477333  36.2913933  55.6696281  35.1974335
  37.2200203  56.7870865  34.7732620  37.0890465  63.6039619   7.2478189
  37.8473015  63.3799362   6.7082901  36.9285164  62.8197937   7.7727394
  43.7718391  22.5808773  78.7399979  44.5853004  22.8848381  78.3373489
  43.2852554  23.3826027  78.9315720  33.4317360  55.1998215  35.9626465
  33.2905884  55.3668060  36.8945389  33.2105522  54.2755165  35.8487511
  70.6904449  29.9484253  72.7947159  70.1494217  29.5372105  72.1205978
  71.1612778  29.2206917  73.2008514  63.9980240  29.3248539  61.4291039
  64.5462646  28.9357281  62.1104584  64.6201172  29.6588135  60.7827988
   4.2882342  68.3501663  72.0445175   4.7917776  68.2404633  71.2378922
   3.8050947  69.1664505  71.9161148  43.1663742  29.0912952  56.8029785
  44.0648727  29.3342457  57.0263748  42.8530922  28.6050053  57.5656090
   7.9628844  51.9004402  11.1896715   8.7918463  51.8428421  10.7145538
   7.3325629  51.4506607  10.6269798  67.9396362  62.5193214  66.8415222
  67.5984650  61.6774750  66.5396423  68.2999725  62.3346024  67.7088547
  76.7779312  38.0739632  87.6915283  77.1385956  37.3485146  88.2013168
  77.3415680  38.8183441  87.9023361  26.5633736   2.6576147  87.3084564
  26.5852833   2.6859918  88.2649841  26.8506870   3.5291853  87.0363388
  63.4349327  46.5453911  77.7997665  62.7030144  46.8184166  77.2466049
  64.0955429  47.2270432  77.6765823  26.7081890  49.9596443  44.5438118
  27.1741772  50.2712402  43.7679291  27.3968048  49.6259193  45.1188469
  27.5754414  43.6353951  63.7085114  27.2718773  42.8116341  63.3270683
  28.4712486  43.4523964  63.9918404  64.9347763   4.0809269  71.0741272
  65.6808929   4.4186153  71.5696106  65.2278748   3.2290502  70.7506561
  79.7011185  55.1212082  45.3593407  79.1294632  55.6397476  45.9255142
  79.1089783  54.7225876  44.7216072  24.3683319  61.0572014  25.9440899
  24.6123943  60.9636574  26.8649139  23.8564110  61.8654060  25.9129047
  77.7891388  23.3484230  25.0252857  78.1506958  23.4428444  25.9065342
  77.0562134  22.7418652  25.1308212  48.3907204  22.0709534  38.5876465
  48.0009460  22.7016144  39.1931038  48.5324364  22.5683002  37.7821693
  10.9137754  49.0498772  20.8577137  10.4109821  49.5900574  20.2480927
  11.8095894  49.0801926  20.5218124  54.8758888  16.2718945  72.4921188
  55.7416954  15.9232540  72.2798462  54.9781876  16.6523876  73.3644638
  49.8380013  42.9368744   0.0787761  49.7341309  42.0283928  -0.2042467
  49.8227692  42.8931236   1.0348543   0.0840903  34.9466133   9.3185587
   0.2767978  34.1909752   8.7634859   0.8672093  35.4937553   9.2586241
  31.5535450  49.5982246  76.3351517  31.8617210  49.9855881  75.5158844
  30.9524422  48.9054565  76.0613327  47.6762657  54.8339348   6.2903547
  48.2752800  54.4415627   5.6551719  47.1670418  55.4647255   5.7814059
  31.4144058  69.0423050  26.4795971  30.7758789  69.3296356  25.8269463
  32.2222557  68.9117661  25.9830379  77.3108368  46.2590179   7.3615351
  77.3727875  46.8738251   6.6305037  76.6418304  46.6343193   7.9340863
  66.3715363  61.0572128  77.6236191  66.6977844  61.4228516  76.8013611
  65.9048080  61.7820473  78.0395660  41.5629196  59.5622292   9.0267935
  41.4508018  59.1721077   8.1599197  40.7094307  59.4596329   9.4478178
  33.3295479  43.1579132  81.1703873  34.2768097  43.0347519  81.2317047
  33.0047913  42.3371887  80.8000183  12.9615326  29.4133034  29.7774315
  12.7766485  28.8250008  29.0453453  12.4191399  30.1836929  29.6084881
  45.8098335  28.2695923  20.0103092  45.7853699  28.9539337  20.6791210
  45.2296562  28.5891724  19.3193016  86.0977554  70.8337708  89.3095016
  85.6192398  70.0703125  89.6326065  85.8630295  70.8891525  88.3831787
  74.5208740   5.3395367  30.2426624  74.5253067   5.9059105  29.4710197
  74.8855972   4.5103846  29.9332829  67.2433167   1.2514054  50.0769920
  68.1962204   1.2165231  49.9934502  67.0737762   2.0682075  50.5463791
   3.3750069  29.3314304  79.7946014   2.8770213  29.5574646  80.5801926
   3.9965401  30.0517654  79.6895065  62.8637466   3.9439344  59.9861641
  63.7977333   3.7352118  60.0044594  62.4324608   3.1371179  60.2677155
  41.8566437  44.9118652   9.7816648  42.1193619  44.0053482   9.9411755
  42.6666298  45.3551025   9.5292835  48.6754875  12.0849562  75.2269745
  47.7993736  12.2297182  74.8696289  48.8284912  12.8375587  75.7982941
   9.3775969  58.9590797  61.4692421   9.2641172  59.2057152  60.5513496
   9.4248829  58.0031357  61.4563065  54.0316238  22.2182636  45.2832756
  54.2446709  21.3713379  44.8914146  54.8815346  22.6270504  45.4469070
  27.5829887  39.2253227  37.5527420  27.8783321  38.4718094  38.0638428
  27.3154926  38.8543739  36.7118645  77.6351242  33.7580261  77.3224182
  78.4756165  33.7028542  76.8677063  77.8620224  34.0227280  78.2138748
  28.9781132  27.2954006   2.5532246  29.6071358  26.5749626   2.5923805
  28.5595951  27.2949982   3.4140806  76.0081253  48.5250435  23.1906948
  75.1911469  48.7313919  23.6447906  76.2202225  49.3222275  22.7051563
  69.0451660  19.6794205  48.8595581  69.8656540  19.3131866  49.1895561
  69.0858002  19.5434837  47.9129333  79.9904556  28.9494114   7.3980913
  80.7608032  29.3849888   7.7628803  80.2574081  28.0357914   7.2967820
   1.1058497   2.7947853   7.8442259   1.8021268   3.2582374   8.3096743
   0.3577361   2.8251266   8.4405794  39.6408920  58.5767097  31.9349461
  38.9222603  58.6786613  31.3109207  40.4274216  58.5403824  31.3906288
  41.0836754  60.1938629  34.8344536  40.6681213  61.0155525  34.5729752
  41.6807137  60.4414635  35.5404778  52.3737106  31.5124092  12.8932915
  51.8836060  32.2775459  13.1942768  51.7969933  31.0950718  12.2534037
  14.9392262  27.9360638   2.3377037  14.8307381  27.6330070   1.4362500
  15.4021225  28.7698994   2.2559934   4.6622558  45.6200600  78.2591095
   5.4213281  45.8109856  77.7081223   4.9853148  45.7193298  79.1546555
  75.4690247   5.1377249  49.2670822  75.4031525   5.2676311  48.3210297
  74.5685196   4.9794054  49.5503769  70.6451492  61.1450157  19.8348656
  70.2454605  61.5642967  19.0728397  70.0703583  60.4048958  20.0299759
   2.5397501  54.3332291  52.0954552   2.7109768  54.8326416  51.2970200
   1.5924562  54.1958885  52.0935364  38.0304031  41.7961159  58.9784927
  38.0482483  41.4332085  59.8640518  37.1032906  41.9594078  58.8052063
  59.2756996   8.8764105  21.7755489  60.1498833   8.6344547  22.0813198
  58.8280983   8.0405912  21.6440601  78.6323776  39.9098778   8.8050070
  78.2632675  39.0849037   9.1203070  78.5046921  39.8824921   7.8567572
  68.0259552   9.8712378  18.6550083  67.4255981   9.7753630  17.9156761
  68.8979263   9.8319778  18.2621269   8.4298735  16.7350616  84.1097641
   9.2096415  16.4227428  83.6507950   8.2371035  16.0488853  84.7486954
  37.8293266  15.4830990  14.4135056  38.3508301  15.6443377  15.1998043
  38.0010605  14.5669155  14.1959085  70.6930008  58.2313080  10.3195219
  69.9053345  58.7559700  10.4628267  71.3691406  58.6679039  10.8376436
  36.3711472  13.9081182  79.0918884  35.4436989  13.6716309  79.0798035
  36.8320656  13.0692959  79.1047821  20.0676003  65.9212265  66.0011749
  20.1526489  65.0332870  65.6539459  20.9689732  66.2097397  66.1444092
  60.6517067   6.2052655  81.7433548  61.2339859   5.9318852  81.0345154
  60.3043785   5.3865132  82.0972366   3.3663497  63.4288826  35.7940559
   4.2768979  63.1642990  35.9249420   3.4081838  64.3767624  35.6675224
  62.8255196  51.8486862  27.4235210  63.4727020  51.4789810  28.0241089
  62.7859230  51.2236061  26.6996861  83.4936752  31.7079086  40.8969116
  84.1381760  32.2528992  40.4454308  82.8307953  31.5205688  40.2322845
  70.5944061  69.8234177  32.1954117  70.9040298  70.4330521  32.8652687
  69.9084930  69.3172913  32.6308327  66.3967361  50.7775078  35.0785103
  66.6692734  50.5902596  35.9767799  66.0447540  49.9474487  34.7570457
  41.8477020  59.2694359  45.5765915  42.3715668  59.1015701  46.3599281
  42.1888580  58.6572876  44.9245834  31.2592754  59.0378685  64.7619476
  32.2159691  59.0170250  64.7850113  31.0035992  59.2851181  65.6506195
   8.1167583  34.2222061  26.0096111   8.7501020  33.5816269  25.6859379
   7.3764210  33.6957397  26.3112087   6.4875498  38.2957764  78.2050629
   7.3807459  38.4712982  77.9090500   6.2685084  39.0430450  78.7617035
  61.0938721  61.7655334  51.3023682  61.5999374  61.1341095  50.7910614
  60.3109245  61.2843285  51.5700798  36.8751144  68.5820541  69.3484955
  36.5886345  69.4396667  69.6626129  36.3094330  68.4006729  68.5979385
  60.0413284   8.7333307  -0.0989179  59.5917130   8.5977402   0.7351640
  59.8549881   9.6443071  -0.3261415  10.7178650  25.9928379  17.9949989
  11.6181297  26.3167152  18.0243034  10.1905203  26.7211037  18.3232803
  70.8764191  48.7595711  62.9899445  71.0773010  47.8650970  63.2652512
  70.0906219  48.9917068  63.4847832  16.0888348  32.7844009  63.9684601
  15.6386261  32.5310631  63.1626282  15.4093161  33.1941948  64.5037689
  45.0758057  64.8087769  68.3781052  44.8940086  64.5419388  69.2792053
  44.9314423  64.0169220  67.8600693  42.8855286  17.9768295  82.5792389
  42.5589790  18.2154675  83.4467926  43.2233696  17.0877037  82.6867142
  60.6541290  25.5041676   2.4712210  61.3288460  26.0208549   2.0307412
  59.8626900  26.0386295   2.4063263  26.8441906   9.7660542  84.6155396
  27.0708122  10.5376053  85.1347504  26.0596275  10.0247297  84.1320343
  43.0626335  42.3581772   9.4422064  43.5386124  42.2805290  10.2690353
  43.6976929  42.7379723   8.8350115   6.6144862  35.7095604   1.8998346
   7.2239461  35.1678925   1.3984530   6.1163182  35.0846519   2.4266634
  43.8139381  71.5186310  30.9950752  43.5460777  70.7893982  31.5542774
  43.0750923  72.1265030  31.0238838  82.6314316  30.2968845  56.7242699
  83.1697311  30.6994953  56.0428162  81.7510834  30.6381378  56.5669060
  18.2418976  18.5191917  79.4059448  17.8782673  17.7627583  79.8661728
  18.0639153  18.3454533  78.4816208  57.3258171  18.4597988  72.5495071
  56.5801239  18.8025837  72.0568848  56.9813118  18.3057194  73.4291687
  76.7766800  46.7638168  65.8487396  75.8946228  47.1138802  65.9738770
  76.9209976  46.2006874  66.6091919  72.7469177  44.3018494  52.6254807
  72.2357712  43.8855515  53.3194962  72.2577438  44.1167145  51.8238144
  85.0021057  51.6752281  78.5201340  84.2160492  51.1358337  78.4341354
  84.9686356  52.0059280  79.4177704  75.3496628  62.0348167  12.2113905
  74.7231903  62.5005188  12.7653608  75.4641190  61.1866341  12.6400127
  61.1384315   4.6360126  75.4247284  61.8815041   4.7971277  74.8432465
  61.4490700   4.9028668  76.2899017  47.2428284  51.2589836  22.7928715
  47.7979355  51.1430359  23.5640011  47.2392693  50.4007187  22.3690796
  36.3279610  61.4287796  25.5277882  35.7023659  61.8384171  26.1253300
  35.7904320  61.0978050  24.8082390  42.5535622  32.1084480   9.7091465
  43.3094025  32.6573181   9.5001659  41.9418945  32.2586288   8.9883547
  60.7073936  36.2848930  65.9363022  60.2622337  36.7074127  65.2017670
  61.6244812  36.5417709  65.8403931  46.1575737   1.8635455  65.6752625
  46.0092316   2.7182384  65.2706375  46.3685303   2.0636673  66.5872345
  70.9938049  22.6915817  38.2749329  71.8476715  22.6501579  37.8443222
  70.3826447  22.9174519  37.5737228  53.1167259  36.7615662  26.4427776
  53.2333984  35.9306335  25.9821548  52.1707916  36.9078789  26.4369564
   5.4854383  53.0698013  74.1814728   4.6185231  52.7712898  74.4563904
   5.8718152  53.4446449  74.9729462  85.0614929  47.5091400  36.3133202
  85.9168930  47.9153976  36.1737404  85.2593689  46.6733894  36.7359238
  70.5614548  65.0543365  11.7786045  70.5722733  64.7514114  12.6865425
  70.1360779  65.9109650  11.8169737  55.3257065  43.7568932  88.2703552
  56.1089630  43.8269844  87.7246170  55.6469765  43.4257164  89.1090088
   9.9929981  47.0559692  13.3833303  10.8237171  47.0033569  12.9107113
   9.6139517  47.8910789  13.1092043  61.3623047  23.3600273  77.8516769
  61.0448914  23.3819256  78.7544556  61.7707291  22.4989719  77.7622147
  64.7708893  71.1470795   6.3017259  65.4036713  71.4447708   6.9553289
  65.3006592  70.6997757   5.6418009  24.6912479  11.0523710  67.1565323
  24.5097980  10.1439381  67.3974762  23.9050140  11.5313005  67.4186325
  20.8287601  31.8253899  79.1550751  20.0751610  31.4782238  79.6323547
  20.5014210  32.6219711  78.7372894   2.2926843   1.3758566  12.4000683
   2.7602196   0.6946564  11.9167376   2.9782944   1.8470571  12.8735037
   3.4713914  30.0800056  63.1634941   3.0647969  29.7245159  63.9537697
   3.5062804  29.3393345  62.5581665  20.3878155  11.7502317  68.9144440
  19.6212215  11.1827431  68.8336868  20.0294857  12.6034660  69.1590347
  31.0211124  69.0071106  82.1025391  31.0488377  69.3047028  81.1931992
  30.6025715  69.7254257  82.5769730  73.8593674  15.9166298  26.1419849
  72.9100113  15.8057699  26.1935673  74.1334229  15.3154879  25.4493408
   9.5356836   3.5550957  66.6606903  10.1347103   2.8308477  66.8419724
   8.8491430   3.4693770  67.3221664  61.2099533  59.2188377  18.1314487
  62.0664062  59.5075111  17.8161907  61.3824615  58.8662720  19.0044727
  35.7323608  60.9814110  61.5047798  35.2927208  60.1671524  61.2599602
  35.0367470  61.6389465  61.5034523  80.2943878  10.9088602  35.5396271
  80.9670334  11.0183821  36.2117729  79.4667282  10.9839087  36.0145874
  74.0690536   0.9981496  70.3330612  74.9288635   0.5827811  70.2665405
  73.9977264   1.5294389  69.5400391  64.3982468  47.8537216   4.3413763
  65.0722046  48.5308533   4.2821836  64.4471512  47.5455742   5.2462988
  68.0861740  19.4905300   2.9482346  68.7911987  19.9874725   3.3632176
  67.2853699  19.8356457   3.3430090  72.0077057  58.6592026  44.1013298
  71.3249741  58.1019478  44.4749260  72.7902451  58.1079903  44.0955429
  79.0137405  48.9280128   8.5607090  79.2752228  48.5554581   9.4027662
  78.0956192  48.6759262   8.4620190  78.1818008  27.3627720  80.0558167
  78.5324097  26.5817795  79.6276169  77.4781723  27.6574574  79.4776230
   6.0629506  52.0310440  53.9178963   6.9920011  52.2494583  53.9913254
   5.7052016  52.2108231  54.7873383  83.4902191  37.7217827  47.7455406
  83.5885468  37.1701393  46.9694901  82.6662292  38.1881752  47.6050377
  68.6181335  48.8397179  64.0299530  68.6444702  48.4271088  64.8932571
  67.9602356  48.3405991  63.5459175  86.4470825  50.0778465  51.9743767
  86.3162766  49.7801247  51.0741081  85.7358093  49.6690826  52.4675598
  83.6409531   6.1618705  25.2019596  84.4729691   6.6206255  25.0856495
  82.9802551   6.7823720  24.8942432   3.2040980  67.0155792  65.6867218
   3.9769194  66.6754684  66.1376190   3.1479664  67.9299622  65.9641953
  47.8569717  36.5286064  77.6921387  47.9581642  35.6116943  77.4366760
  48.5034065  36.9971123  77.1640701  62.2427902  53.7193298  36.3236198
  61.7146530  52.9551506  36.0926857  63.1178780  53.3661156  36.4838943
  46.2530632  47.0843620  14.6130981  45.5998535  46.6528702  15.1638813
  46.9492073  47.3363152  15.2198410  18.6980038   3.6645463  82.1280518
  17.9631100   4.2415719  81.9201965  19.0267467   3.3788748  81.2756729
  76.8876877  63.7764893  18.3673668  76.7487411  64.5245209  18.9482059
  76.6611099  63.0142250  18.9001427  31.7107887   6.2113829   6.5274401
  31.5293236   6.0918107   5.5952358  30.8557625   6.1308765   6.9501438
  75.7739639   8.1769705  45.7521820  75.3532257   8.5071068  46.5460472
  76.0465012   8.9640465  45.2805176  17.1440945  41.6965866  35.3995438
  16.3113480  41.5912056  35.8596077  16.9193439  41.6055946  34.4735641
  56.6325760   9.8412724  59.0640335  55.7114410   9.7594995  58.8169365
  56.8550034   8.9913206  59.4439545  19.7614975  29.6119747  17.6439667
  20.2714233  30.2499161  17.1447296  19.8795185  29.8730049  18.5572929
   5.2934165  63.4956131  29.2694435   4.4588327  63.8725548  29.5480442
   5.8723979  64.2500000  29.1602898  50.6041908  33.7756386  17.5892563
  49.7079353  33.4568558  17.6957302  51.1375847  33.1651611  18.0982170
  69.3355255  32.8610497  86.6702423  68.9698257  33.7366829  86.5447006
  69.8727341  32.9366493  87.4588623  59.4586563  70.5329208  85.7691193
  59.6000328  71.4243622  85.4504013  60.1830711  70.3775406  86.3751831
  39.1198158  58.1675186  10.6872597  38.6576462  58.8730545  11.1398668
  39.3844223  57.5682106  11.3851433  72.3683395   0.0676162  79.7966766
  72.5539246   0.5918057  80.5757904  71.4777069   0.3150210  79.5481033
  22.5150223   0.4557228  24.6044292  22.9255695  -0.3970892  24.7472343
  22.2986851   0.7675543  25.4831734  28.1038837  62.8006630   6.3922524
  28.8100815  62.1657677   6.2721572  28.1699543  63.3789864   5.6323805
  52.0604515  49.4055977  86.7114182  51.7698441  48.5880203  86.3072662
  51.9814835  50.0580864  86.0155334  39.7348900   9.5725861  71.3478546
  40.1437721  10.4210052  71.5188293  38.9208450   9.7865419  70.8920212
   1.8867768   2.7365088  67.9875259   2.5862737   2.2388322  67.5641479
   1.1744381   2.7398865  67.3481598  29.9615612  33.4834785  70.1954575
  30.2652988  32.7275238  70.6979599  30.2305279  34.2406235  70.7156677
  64.1337509  39.4519157  70.8778000  64.9931183  39.8734856  70.8761368
  63.6147766  39.9684486  71.4943085  61.8076439   1.7424877  78.6488266
  60.9479141   2.1361287  78.7976303  62.3758698   2.1552622  79.2991867
  57.4336090  32.5989532  58.4975090  56.6843872  32.6936455  59.0856705
  57.5249672  33.4582214  58.0857506  47.2143936  23.8390198  34.0666542
  47.5986176  24.6317787  33.6923065  46.2906113  23.8808193  33.8194466
  17.2156582  27.0845737  87.7896042  16.6956902  27.4278107  87.0629349
  17.9391632  26.6206322  87.3682632  17.0776749  61.7534866  12.9775047
  16.6858521  61.9217491  13.8344727  17.9614811  61.4434280  13.1749506
  77.4681625  68.7609863   9.3492022  78.2748642  68.2470627   9.3124352
  77.6558304  69.4565811   9.9794025  84.6502075  39.5176964  13.2340956
  83.7364502  39.7769470  13.1154747  84.9211121  39.1949615  12.3746281
  24.6597481  59.0859795  12.4310951  24.8461514  59.9787292  12.7217464
  25.2900391  58.5433197  12.9048948   2.5665035  38.6148148  32.9961472
   2.6081777  39.5710678  33.0049858   2.7520854  38.3586273  33.8995590
  72.5929184  62.8799782  56.8480034  72.0444260  62.2168045  56.4289742
  73.4193497  62.4305115  57.0247154  54.5662994  37.4196701  46.6171646
  55.1392021  37.0513115  47.2897186  55.0405235  38.1846275  46.2912979
  64.2927475   9.7693729  41.9697418  63.8077774   9.5944338  42.7762337
  65.2039413   9.8514881  42.2512131  61.3919907  55.4192047  38.0192795
  60.6961861  55.9232597  37.5973587  61.7183113  54.8390427  37.3314133
  61.9900131  70.4604492  49.8216324  62.4361763  69.6213684  49.9361458
  62.6722870  71.1161423  49.9658470  78.6995773  58.1938667  43.0001335
  79.1232986  57.9447021  42.1787872  79.4238892  58.3396683  43.6086922
   8.7775383  69.1728745  16.5842381   7.8271093  69.0592499  16.5815792
   9.1232176  68.3038483  16.3804493  47.8706665  19.7969723  32.9746132
  48.3037949  20.0381641  32.1557999  47.3721733  19.0088444  32.7587662
  79.0404434  17.4377136   4.4324756  79.2983246  16.5707588   4.1192379
  78.6542969  17.8637829   3.6672378  39.5485687  17.8258076  14.5186176
  38.8041077  18.0332756  15.0833883  39.1546555  17.6042500  13.6748295
   9.1732197  53.6194305  85.3675003   9.8875656  53.0958862  85.7306061
   8.3776722  53.1745071  85.6596985  82.7665024  58.1408463  77.9368591
  82.4042358  57.2849083  77.7080307  82.4688492  58.7218361  77.2368011
  84.1369095  13.3983068  17.5063820  83.8455048  13.3593206  16.5954514
  84.6996765  12.6310978  17.6108685  86.5771637  26.9066334  66.6198654
  85.7084885  26.7264366  66.2604599  86.8952332  27.6544418  66.1140518
   8.2255287  64.0393448  67.1685638   8.0102196  64.2345352  68.0805817
   8.9582434  63.4257011  67.2214966  39.8071175  37.3877411  63.3267136
  40.7228508  37.2605515  63.0787468  39.8117599  38.1818886  63.8610725
  64.3939819  27.6763287  42.1915550  65.0386734  27.0481625  42.5171623
  64.5780258  27.7445621  41.2546959   3.1055491  40.1101570  73.5408783
   2.8844206  40.4504051  74.4078064   4.0030780  39.7899323  73.6310349
  36.5494957  38.8187256  87.9196777  35.7151375  39.2353477  87.7040176
  37.2101364  39.4713554  87.6876068  84.7769470  20.4923515  51.4397125
  85.5039444  19.8749275  51.5203400  83.9927444  19.9547157  51.5501671
  42.8969955  11.2032413  74.8385162  42.5125389  10.3543959  75.0573502
  42.7508430  11.7402840  75.6172638  62.7949295  46.9230919   2.1041863
  63.0084801  47.0084000   3.0333526  63.6358414  47.0133133   1.6558976
  24.7997513  39.0812416  14.2791481  25.6520901  39.2475433  14.6817570
  24.7721119  39.6700821  13.5250025  17.4187565  55.0512199  57.4610176
  16.8281860  55.1670036  56.7166710  18.2833099  54.9394341  57.0656891
  59.1835403  22.3455257  39.4501228  59.9700623  21.8177490  39.5882187
  58.7737846  22.3952465  40.3137550  52.4622078  34.1821976  41.3722916
  53.0405121  33.6472588  41.9160156  52.7666321  34.0304527  40.4775658
  60.7528496  11.5476370  60.8087234  60.4423218  12.2374954  61.3951569
  60.7172813  10.7502155  61.3370094  57.7907028  14.8048258  59.0554733
  57.4236221  13.9412098  58.8666573  57.3467789  15.3926268  58.4442024
  85.5858917  63.7899284   4.8879256  86.0523911  63.4134979   5.6341891
  85.7013931  63.1498566   4.1856446   1.7601475  38.4013596  76.7148514
   1.9994487  39.3266830  76.6624680   1.7258270  38.2155914  77.6532288
  58.0881195  10.6738205  23.3088951  58.5101814  10.3098726  24.0871239
  58.2232323  10.0114222  22.6312485  34.3973694  58.8799438  42.7411652
  35.1187248  59.1785202  42.1873283  34.8038902  58.2678566  43.3546181
   0.8300158  47.1748581  40.2497063   1.4504026  46.5450058  39.8827782
   1.1253995  48.0228729  39.9182739   9.1467953  65.7892685  41.8858643
   8.2253590  65.5427399  41.9659309   9.6181116  65.1177597  42.3789940
  81.1216507  54.0461845  53.3391228  81.4567108  54.9006462  53.6109009
  81.5245514  53.4264526  53.9472618  84.8841629  30.3314209  87.0310516
  84.2280655  30.1434650  87.7022018  85.2550812  29.4764690  86.8126221
  31.1989288  44.9849129  71.9708557  31.0961189  45.6888046  72.6113205
  31.0223484  45.4011002  71.1271439  38.4629555  19.9421234  20.0276566
  39.1290169  19.9874706  19.3417015  38.8384399  19.3596878  20.6879692
  65.4441223  10.7606115  50.1365967  66.2443619  11.2577829  49.9672890
  65.6490936  10.2322464  50.9079895  16.0385818  36.7181473  55.3574524
  15.7842426  36.0479126  55.9917450  16.7823906  36.3366470  54.8911476
  53.1044731  63.9137459  -0.0206952  52.7725334  64.6791229   0.4486106
  53.5246277  63.3819542   0.6552494  64.3843842  12.4887724   5.8848119
  64.4360199  13.4318132   5.7291174  64.3488464  12.4049253   6.8376698
  72.3435822  24.3260555  31.1283531  72.7375793  24.0057640  30.3169308
  71.4254837  24.0617580  31.0694180  25.1988583  49.7766533  33.4231834
  26.1512775  49.8496704  33.3615608  24.9218540  49.5101395  32.5465622
  68.2824173  66.6935349  29.4516430  69.1832199  67.0171280  29.4605236
  68.3435593  65.8052216  29.8029156  66.6389542  11.4839172   0.0608472
  65.9118042  12.1000614  -0.0277658  66.6614304  11.2725821   0.9941555
  43.9586792   0.1098855  65.7702637  44.0805283  -0.5355095  66.4665756
  44.8052521   0.5513525  65.7020493  21.7066040  48.2412071  46.8867073
  22.2299442  48.8130226  46.3251228  20.9727459  47.9702110  46.3351250
  58.6680527  19.3516502  37.3958778  57.8580170  19.8416538  37.5371971
  59.0357208  19.7228794  36.5938530  64.0126953  31.9019680  18.8178005
  63.4168587  31.5399284  18.1619492  64.5360565  32.5436745  18.3376579
  14.9943705  13.5474691  55.0477448  15.6782703  13.2205734  54.4632339
  14.6160202  12.7595434  55.4379425  86.8864975  27.0562267  23.6632824
  86.8211365  26.3860760  24.3436203  85.9932938  27.1490326  23.3319092
  74.9939194  10.6936073  77.9670563  74.6690521   9.8780699  78.3486252
  75.4476166  10.4208689  77.1695557  27.1762066   0.9622200  18.3303299
  26.5004520   1.6395757  18.3582172  27.9810829   1.4164723  18.5794487
  61.9768677  45.5527840  14.8560610  61.2410316  45.5855827  15.4673729
  62.7093773  45.2287445  15.3801394  31.0439396  50.7814293  19.6101112
  31.6258602  50.9511490  18.8693047  30.1642838  50.8017654  19.2332535
  11.0073195  62.3314514  87.8089828  11.4122972  61.8812027  87.0676956
  10.0705261  62.3212776  87.6126480  72.8194275  17.2965260  68.7640076
  73.6004028  17.1808128  68.2227859  72.6583176  16.4311905  69.1401367
  86.8064499  55.0767632  12.0740795  86.4058914  55.4226494  11.2764912
  86.2105331  55.3405228  12.7751827  50.8202744  44.5784416  51.0225067
  50.6219254  44.3208046  51.9227905  50.0230865  45.0105171  50.7158623
  72.2624359  61.8177185  43.0299835  71.9698105  61.5531654  42.1578484
  72.1705399  62.7704849  43.0346794  63.7608681  17.0400143  53.7953148
  64.1343918  17.4004669  52.9910851  62.9748917  17.5639400  53.9501572
   3.5852754  31.1432533  72.4314270   3.8380573  30.4987679  73.0924683
   4.3063040  31.1360931  71.8019028  21.7044811   4.3951612  73.6519165
  21.9608860   3.6209693  73.1508026  21.8331661   5.1255813  73.0468063
   8.3085651   4.9017363  15.0420485   8.8391457   5.4222641  15.6451788
   7.6860843   4.4425254  15.6058531  66.9928207  46.9105644  62.4203949
  66.0524292  47.0667496  62.5070534  67.0561676  46.0320930  62.0455475
   9.0943985  40.3196068  74.8127136   8.9423161  39.7492752  75.5662537
  10.0359221  40.2577324  74.6516571  54.7354660  28.3239937   2.8078394
  55.5787125  28.7317600   3.0050495  54.2388725  28.3944054   3.6231117
  11.2093925  41.3322830  13.0881605  10.5042591  41.8203545  12.6629477
  11.9990196  41.8396339  12.9002352  58.2419701  42.0391197  39.9084282
  58.3033218  41.6649246  40.7873154  57.3605843  42.4101753  39.8670845
  13.6408291  49.2119026  60.3213882  14.0011950  49.4000854  59.4548073
  12.7326784  49.5105133  60.2731361  40.6123772  66.3378830  47.8009796
  41.0185242  66.8008804  47.0682335  40.0189056  66.9799347  48.1905899
  56.1506042  31.4765549  17.3189869  56.4381294  32.3089905  17.6939697
  55.3410606  31.2702827  17.7862358   1.3010596   2.3243043  20.2426338
   0.3865477   2.5898309  20.1457043   1.4335766   1.6676888  19.5588741
  86.1826935  62.8708191  70.0339737  86.8983536  63.0021400  69.4120331
  86.3480759  63.5092659  70.7276993  52.4474487  36.3143005  45.0893402
  52.9821320  36.8566589  45.6691628  52.9883232  35.5438576  44.9158363
  27.3666744  63.3527679  78.6204453  27.5141354  62.6055489  79.2002335
  27.9780006  63.2183189  77.8962631  43.9630890  47.6891174  76.5305252
  44.2582779  47.1856613  77.2892227  44.6201820  48.3778076  76.4296875
  36.2906647  59.4161339   2.0862727  36.6687660  58.7265167   1.5406537
  36.7197151  60.2186584   1.7894553  61.4993591  29.7697735  57.1576920
  61.3690109  28.8493614  57.3859100  60.6174583  30.1023579  56.9907455
  51.8927231  57.5977783  48.7370872  51.0183258  57.2193260  48.6452217
  51.9146729  57.9355087  49.6324577  40.2009583  35.1866379  65.7522125
  41.0488358  34.8147125  65.5093079  39.7086525  35.2165146  64.9318619
  78.4224167  27.5265427  16.0193462  77.5805740  27.1062031  16.1949921
  79.0730743  26.8567715  16.2297726  49.5415039  27.0455093  24.5506935
  50.2432404  27.6244869  24.2530632  48.8746185  27.6370544  24.8993626
   2.5469444  56.9387512  20.0252113   3.3604329  57.3857498  20.2590084
   2.2677925  57.3592758  19.2119064  67.2086258   6.1587319  56.1471710
  67.1491928   5.6836629  56.9760323  66.6352997   6.9163246  56.2636833
  79.1081314  56.6963768  56.6153297  78.7266083  56.4876175  55.7626305
  78.5665894  57.4103928  56.9516907  65.5830078  58.6236877  42.8259583
  66.3276062  58.9036522  43.3583298  64.8332672  59.0857315  43.2009697
  78.1078644   1.8567708  57.4181900  78.6172256   1.9360398  58.2247276
  77.1982117   1.8123978  57.7127876  25.2022972  43.8938370  22.0853024
  24.4799080  44.4026527  22.4533901  24.8726711  43.5860634  21.2409954
  23.8910370   3.6800692  83.3446350  23.7319736   4.2154183  84.1220245
  23.0203247   3.5243950  82.9787750  68.5842896  20.8688221  58.3566780
  69.0148087  20.1109772  58.7523460  68.9138794  21.6178341  58.8532486
  14.1737318  41.7144814  43.0458908  13.5202885  41.3494301  43.6425323
  13.6610231  42.1783752  42.3839493   2.9741800   0.1659228   2.5964470
   3.3327208   0.7740009   3.2429154   3.6717303   0.0663840   1.9485679
  52.3852234  52.9419136  65.9023743  52.2813034  51.9906769  65.9264221
  53.0150986  53.0963135  65.1983490  44.3398972  66.1138000  14.8659992
  44.3440704  67.0659409  14.7678480  44.1482582  65.7833786  13.9883146
  30.9635582  35.7116051  71.1923904  31.6874256  35.9533501  70.6146317
  30.9538345  36.3947144  71.8628464  56.7485771  28.4152088  68.0536957
  56.0719223  28.8905411  67.5715866  57.4331360  29.0657692  68.2098465
  62.3431358  42.1103401  20.4642830  61.9256973  41.4830780  21.0546436
  62.8190689  41.5675278  19.8357334  60.7441483  47.9496422  50.1254768
  59.8567047  48.3030853  50.0642014  60.9214439  47.5951042  49.2542114
  79.3404083  49.7691422   4.0991712  80.1138763  50.3325043   4.0747628
  78.6406860  50.3368721   4.4221468  43.0655441  13.9080124  82.2343903
  42.4156723  13.2081432  82.2982712  43.3825264  14.0230188  83.1302261
  20.7830734  28.5110359  85.4669800  20.3533745  27.6591206  85.3906021
  21.3611717  28.5568333  84.7054443   9.1754236  68.5242615  13.2886600
   9.6183081  69.1783295  13.8292980   8.6025705  69.0346985  12.7163582
  59.9056969  46.3066597  64.6187744  59.9697647  46.5452347  63.6940002
  60.3038139  47.0423508  65.0840683  41.7170753  18.2186985   0.2957547
  41.0863304  17.8870907   0.9348394  41.3666763  19.0697594   0.0327940
  60.3125725  20.3184967  41.8496399  60.1885414  19.5888176  42.4566116
  59.5073738  20.8308067  41.9232712  76.9847794  51.5527802  22.7360001
  77.0442581  51.9809875  23.5900097  77.6163025  50.8350296  22.7834492
  29.4637356  51.8930359  83.1466980  29.5661793  52.7520981  83.5562744
  29.2302742  51.3097115  83.8688202  81.7211990  20.5646553  26.0949383
  82.1980591  19.7453384  26.2274437  81.7071457  20.9760494  26.9591084
  60.6483917  54.6751671   5.9266076  59.9748421  55.0118828   5.3356910
  60.8494110  53.8026161   5.5882578  45.1809540  31.4295883  82.4277878
  45.2614479  32.2419853  81.9280243  44.2373505  31.2906799  82.5087433
  21.1886196   0.4460966  11.2356453  21.3472118   1.3900217  11.2449036
  20.4933434   0.3263778  10.5887365  16.8032913  38.1817322  70.5405579
  16.4673519  37.2894211  70.6251678  16.1223373  38.6491508  70.0567627
  51.2253418  50.8379669   6.3762207  52.0265923  50.8067017   6.8989553
  50.5713310  51.2179413   6.9628391  46.2328377  18.1051922  63.3404999
  45.8956184  17.2104969  63.3855972  45.9228363  18.4357815  62.4973869
  66.7759247  39.5118217  81.5913467  67.5251083  39.4721336  82.1857986
  66.4718170  38.6063919  81.5285034  43.2019653  18.0555477  71.4891663
  42.8065758  17.1843681  71.5199127  43.1593704  18.3054714  70.5661545
  79.3245773  10.3110037   8.9130068  79.7064133   9.7399855   9.5796204
  79.2095490   9.7447233   8.1499023  62.2326927  24.9468269  63.8546066
  61.7555695  24.3577251  63.2701874  63.1466026  24.8667393  63.5815048
  74.6204910  19.6054401   2.9722786  74.7175217  20.0247402   3.8272665
  73.8404465  20.0110130   2.5937600  62.8074608   8.7252464  28.3385334
  62.0333786   9.2836294  28.4109077  63.4844475   9.1893320  28.8310242
  28.1971416  19.5425663   5.5044541  28.7815456  19.0177059   4.9574375
  28.6355858  19.5816898   6.3544359  42.4035454  23.8299503  74.9549255
  42.1454620  24.7309818  74.7605896  43.0068512  23.9077129  75.6939850
  54.0575943   9.1385489  58.4732132  53.1637878   9.2655811  58.7913437
  53.9743156   8.4836788  57.7800751  12.5276375   8.3997965   6.6462674
  12.2799568   7.8804216   5.8813252  12.7770691   9.2512684   6.2870870
  50.6812286  13.1695890  51.4265175  51.2346382  13.4652491  52.1493950
  51.0516739  13.5935154  50.6523781  66.1413116  69.3099442  21.6282234
  66.4622269  69.3019333  22.5299892  65.2441101  69.6365051  21.6961823
  80.6743393   7.7273226  58.3777695  81.2341003   7.2113256  58.9579773
  80.7123642   8.6145535  58.7349892  11.8304367  46.2339020  80.9998932
  11.1920242  45.8653831  80.3892746  11.3008327  46.5988007  81.7088318
  30.7310505   2.3360879   5.4424405  30.1494579   1.7032207   5.0211802
  31.2157536   1.8226984   6.0887580  38.1015587  29.3984776  43.9545860
  38.6888008  29.8236542  43.3296013  37.2482185  29.4004555  43.5209541
  84.0862045  10.3867044  17.4123154  84.1156006  10.2973146  16.4597511
  83.1857910  10.1615181  17.6463413  73.2018738  24.1703644  15.3588171
  73.5752869  23.8613110  14.5334206  72.6103287  23.4689980  15.6315727
  70.9020691  46.6535988  58.9723320  70.2944717  46.8791504  59.6767387
  71.5769272  46.1250114  59.3982277  48.7178764  59.5407219  44.4584770
  49.6348610  59.7410469  44.6461983  48.3624802  59.2395210  45.2946625
  14.5009174   1.5379446  58.4834290  14.8509798   2.0318394  57.7419739
  14.5968666   0.6207447  58.2269707  40.2068214  38.8685226  18.7442780
  40.2596245  39.1341782  17.8261986  40.6424637  39.5736427  19.2230854
  34.1499634  47.9215431  66.1603851  34.8920555  48.5218697  66.2320557
  33.9387703  47.6926537  67.0655060  55.4790230  60.2940598  79.5582123
  55.1272011  59.5283852  79.1041260  54.7477913  60.9109535  79.5894470
  85.7806702  68.9683075  83.0356674  85.3706894  68.5035400  82.3061829
  86.2437744  68.2873230  83.5235443  74.4274750  24.9933338  43.7503166
  73.5097351  25.1839485  43.9443665  74.4872284  25.0491676  42.7966156
  15.0043125  21.1838150   8.9763479  14.3326139  21.3706055   9.6322155
  14.5124159  20.9851437   8.1796055  68.1085434  43.4903870  58.0911064
  67.6797180  43.1516647  57.3052254  68.1431808  44.4373398  57.9557838
  25.9090080  43.2587471  12.2617702  25.6855545  42.3513412  12.4689293
  25.0696774  43.6717720  12.0588789  10.7552710  25.9211636  81.9426270
  11.3404083  25.1810398  82.1040726   9.9354868  25.5198975  81.6542358
  85.8597412  29.3031731  27.9559593  86.6317139  28.7595234  28.1132603
  86.1413116  29.9326038  27.2920570  59.7569237  45.4370842  51.2475777
  60.5267601  45.7201881  50.7541847  59.0821571  46.0795174  51.0280304
  53.2238693  28.9428043  80.0244293  53.8367844  28.2328453  79.8333054
  52.7831955  29.1095886  79.1912308  23.8282433  31.9877605  18.3236942
  24.7642422  31.7882462  18.3055325  23.5101643  31.5716858  19.1249046
  74.5546570  21.1498814  38.9240799  73.8811340  20.6358070  38.4787369
  74.5429230  21.9970665  38.4786873  23.0465279  48.1317177   7.6601286
  22.7622719  47.2177048   7.6564093  23.4079266  48.2737122   6.7852225
  57.1547241  62.4817352  31.0027008  56.3790359  62.4819527  30.4418621
  57.6629639  63.2377548  30.7088299  46.0305672  37.8853073  59.8511925
  46.9816284  37.8325081  59.9456825  45.8121872  38.7772522  60.1213303
  80.6521912  41.9386177  38.6511192  80.2859116  41.0544357  38.6682243
  80.6253357  42.2266846  39.5635490  38.5878220  21.3093491  77.8905716
  37.7360535  21.6761398  78.1275940  39.0678177  22.0448818  77.5100098
  38.2496376  42.2610626  42.8582458  38.9720993  41.6333122  42.8436241
  37.8058891  42.0961952  43.6901932  34.8221779  58.1260719  31.9417324
  34.6893997  57.3575058  31.3868370  34.5121574  58.8604813  31.4118652
  72.8189697  47.6217155  46.7074966  72.6043472  47.8084526  47.6214409
  73.5326538  46.9855499  46.7542267  76.1530609  67.4480515  17.7129707
  75.8776321  67.9903564  18.4520798  75.3910980  66.9019547  17.5195236
   5.8997984  70.5296021  68.5675583   5.6738868  71.0627823  69.3297272
   6.7312193  70.8909988  68.2603683  54.5388680  63.9147491  84.9833145
  55.0391617  63.1223297  84.7883453  53.6418877  63.6061974  85.1115799
  24.6536694  61.3934135  14.7291622  25.1419640  61.9335289  14.1078119
  25.1700001  61.4285011  15.5343971  62.7684212  30.6647320  20.8954067
  63.1091347  31.2766895  20.2429829  63.4909477  30.0573559  21.0544205
   4.1399207  69.2044220  77.7254257   4.5945621  69.2144775  76.8831482
   3.2108972  69.2314072  77.4964752  20.8800354  62.2675972  24.1687546
  20.2845478  62.8001823  24.6959934  21.7275352  62.7052383  24.2490463
  13.2059278  20.4605465   6.9826479  12.6462402  20.7704277   6.2706404
  13.7649059  19.7979012   6.5768456  66.4600372  39.5047531  51.5290833
  67.0196152  40.1596909  51.1117554  66.4293976  39.7671318  52.4491119
  57.7352753  49.5370064  42.6245041  57.3734131  50.1769257  42.0114861
  57.7898636  48.7257500  42.1194153  45.1075058  19.9505444  70.7744370
  44.7233086  19.4167118  71.4698868  44.6466217  20.7874641  70.8325882
  35.8729744  53.7396507  39.7221870  35.3780899  54.1221924  40.4467468
  35.4239845  54.0493546  38.9355965  51.8301735  52.0373192  45.9059296
  51.3699989  52.7885284  45.5315514  51.3231735  51.8099899  46.6853523
  80.6040192  28.4897346  64.6763077  80.9224701  28.5202293  63.7741508
  81.3973007  28.5158710  65.2113342  19.1374321  24.0598583  25.5032082
  19.8478622  24.6711807  25.3087673  18.3425827  24.5899906  25.4448795
  20.1323128   1.0474499  57.2781219  20.1456032   1.4717236  56.4201927
  19.8129215   1.7241384  57.8750458   7.7729816  43.3460312  20.8049622
   8.5060387  43.8503609  20.4521046   7.0520201  43.5150108  20.1984215
  38.1612396  11.3625698  87.8652039  37.2231255  11.5070763  87.7415390
  38.3424988  10.5494184  87.3938599  45.6744003  42.2294388  73.4152603
  45.4999390  42.8548698  72.7119598  46.2867546  42.6840935  73.9936523
  46.4064980  30.1688442  86.2400360  45.5558815  30.1552410  86.6787720
  46.8961143  30.8585701  86.6881256   1.8768529  17.8146801  26.3755875
   2.3782289  18.0202560  25.5865421   1.2773633  17.1195927  26.1041164
  20.0466175  30.3744202   7.8553987  19.3330536  31.0112572   7.8167386
  19.6510258  29.5533981   7.5627184  63.6999397   1.5763204  46.6922226
  64.0100861   2.4439750  46.9514809  62.7458305   1.6405330  46.7344284
  40.6057053  66.0425873  53.5360641  39.7505150  66.2231598  53.9262848
  40.6047211  66.5380859  52.7170982  67.0385284  30.5424423  18.6925278
  67.7554626  30.4244518  19.3156796  66.4331360  29.8265800  18.8855820
  14.7727213  60.2460365   5.8212209  14.0315723  59.6410599   5.7906985
  14.6330061  60.7558975   6.6191893  69.0948029  53.7528419  41.0601196
  68.9590836  53.8211670  42.0051804  69.4709854  52.8816681  40.9345360
  12.1162567  18.8209915  85.5283890  13.0679770  18.7589378  85.4470901
  11.8708572  18.0608482  86.0558319  25.9521103  53.4282455  39.7536812
  25.9895039  53.7569008  40.6519127  25.0425816  53.5623817  39.4872322
  57.7655182  62.8674927  25.8146057  57.7388992  62.7922173  26.7684689
  57.2690773  62.1116638  25.5007534  44.0034065  47.6203079  39.6842537
  43.4212456  48.0842705  40.2859650  43.4592743  46.9264679  39.3117867
  82.5036011  21.3029346  66.6149063  83.1090012  21.7079353  67.2359619
  81.8172684  20.9223843  67.1629562  48.2769279  57.3178787  33.2166214
  47.7961464  56.5469666  33.5179062  49.0584297  57.3436508  33.7687302
  56.6490593  26.7293339  21.3385315  56.5233307  27.3477974  20.6188602
  57.4268074  26.2290974  21.0913315   6.5629869  47.2885971  35.7346992
   7.0904961  47.3827972  36.5278511   5.7796159  47.8117828  35.9045143
  23.2603588   5.1186886   2.9236894  22.4116459   5.5542765   2.8450735
  23.2577457   4.7464285   3.8055325  15.2056398  58.5100632  55.3452797
  15.7604437  58.4051704  56.1182137  14.4729939  59.0468864  55.6474075
  82.0926514  24.7388058  37.5132103  82.1982727  23.7896042  37.5771942
  82.0877457  25.0410118  38.4214401  34.2718773  52.0619926  58.7972908
  34.0174713  52.8495026  58.3163185  34.9328003  51.6462250  58.2436218
  14.8695755  65.7397842   7.3470826  13.9343481  65.8750839   7.1945190
  14.9498940  64.8030243   7.5266924  22.9326038  60.2009697  52.0398102
  22.5544815  59.3377762  51.8720207  23.4257679  60.0924721  52.8529816
  61.7759972  63.4155121  65.8062286  62.0743408  62.8024864  65.1343536
  62.1929245  63.1095848  66.6117172  71.4037857  37.9703827  51.6804276
  71.8808289  37.1405334  51.6763382  70.5853500  37.7739182  52.1362724
  48.8796082  26.2188339  58.8327484  49.7545280  26.5780468  58.6853981
  48.4711533  26.2203503  57.9670753  85.8417816  49.6797523  61.0577202
  86.3544235  49.5291214  60.2635269  85.9973755  48.9024734  61.5942459
  73.3684845  38.7920074  70.1458054  74.2057800  38.3537941  70.2979126
  73.4605026  39.6410561  70.5781021  12.7467871   0.1684415  81.4193344
  12.4075146  -0.1290817  80.5751801  13.6832867  -0.0262167  81.3831406
  16.4462624  35.7264404  40.3546715  16.1312523  35.2966232  41.1498184
  15.6545534  36.0617027  39.9339218  24.7046928  64.8291855   4.9506860
  24.0277748  64.1634598   4.8289118  25.1849003  64.8367310   4.1226912
  14.8525410  65.8972549  33.2426414  15.1831579  66.7867661  33.3679390
  15.2571611  65.3899994  33.9463501  25.9811230  33.0486908  86.6410141
  26.1733494  33.2969933  85.7367859  25.8486862  33.8809433  87.0949402
  11.1832933  56.2064667   4.6315899  12.0806293  56.4329567   4.3872089
  11.0051785  55.3921738   4.1610250  36.6513100  51.2884979   4.8488026
  36.2749290  51.9971886   5.3706517  35.9824944  50.6037712   4.8569765
  32.9365082  56.3489494  76.3426208  33.8612175  56.1032906  76.3143845
  32.7072105  56.3123627  77.2712250  40.8637161  47.6938248  73.2808304
  41.0687561  48.4276962  72.7014999  40.5889015  48.1051178  74.1003113
  50.5934219  41.3073769  40.3005447  50.3532791  42.1373749  40.7124443
  51.0704269  40.8316956  40.9805641  18.7537136  55.8389511  75.4058304
  19.4128723  56.5055313  75.5992432  18.2896919  56.1762161  74.6395569
  68.8150330  35.1956291  49.7385788  68.3098526  34.5106850  49.3005409
  68.4783249  35.2056923  50.6345444  24.6769333  45.8934250  45.4528580
  24.3302383  45.2502975  46.0712624  24.1666374  45.7573624  44.6545372
  68.3180923  64.5141296  65.1370316  68.3315430  63.7857780  65.7579651
  68.9024734  64.2378311  64.4310608  81.4866409  45.4213867  31.4083195
  82.4199448  45.2148590  31.3579998  81.2834854  45.8196068  30.5619278
   6.4156222  46.9351730  88.9487000   7.3285332  46.7539482  88.7251282
   6.4453831  47.7669563  89.4214401  25.8818588  69.5846405  47.9050026
  26.6826611  69.3384476  47.4420357  25.6477032  68.8055801  48.4094543
  57.4564018  65.6087952  12.8682280  57.0704803  66.2495422  12.2709541
  57.4925690  66.0593033  13.7120085  10.9466677  66.4816895  17.9101524
  10.1727695  66.4932938  18.4733391  10.5951262  66.4383469  17.0208988
  75.1233292  37.3919449  36.5486374  75.4693222  37.7056923  35.7131233
  74.5665283  36.6496391  36.3137131  40.2755966  40.2258492  32.3986130
  40.9383926  39.5356674  32.4227600  39.6163483  39.9034309  31.7840614
  44.8831978  17.0321198  66.1391983  44.7959061  16.8866425  67.0812454
  44.9450760  17.9829922  66.0484085  27.9322853  58.1526566  19.1406479
  27.8888435  58.1544228  18.1844368  27.0342693  57.9758263  19.4208794
  11.2347126  24.6733913   5.9892702  11.3407307  24.1153088   6.7596822
  10.8673811  25.4880085   6.3323426  58.2368965   9.4090004  61.7982445
  58.8462906  10.0794048  62.1071625  58.7911949   8.7687988  61.3520050
  68.1305008   5.0406499  23.1133308  68.4041290   4.1951170  23.4689026
  67.4404068   4.8247104  22.4861355   3.4505043  12.3514175  81.4614334
   3.7508056  13.2481766  81.3135300   4.1045771  11.9737120  82.0494461
   9.4770498  68.7020187  47.4470367  10.3679180  68.8965149  47.1559105
   8.9849815  69.5022507  47.2633972  15.8058653  51.0192947   5.0590668
  15.5121508  51.8388138   4.6611314  16.6598148  50.8519745   4.6603117
  81.5998535  61.0212402  71.5214691  81.5001450  61.4043808  70.6499786
  80.7037506  60.9185638  71.8419189  33.8824081  15.5576773  17.5092621
  33.8059044  15.5061283  18.4620056  34.6216049  14.9877424  17.2971478
  50.9900208  33.3531036  61.2732086  50.2093544  33.9053078  61.3163567
  51.0249557  32.9206467  62.1264343  59.4559135  48.8200493   6.6444292
  58.7029533  48.2376404   6.5440197  59.7729530  48.9576988   5.7518101
  16.6507950   4.9108448  80.7484970  16.4032383   5.5021906  81.4593124
  15.8215284   4.6776271  80.3311768  35.8654633   1.0387552  88.9176407
  35.9154549   0.1859948  89.3495331  36.7171249   1.4423262  89.0850754
  49.7239380   3.2304406   6.8277593  50.4286270   3.0806513   6.1975155
  49.1559792   3.8736703   6.4036012  76.5171814  53.0904922  86.2084274
  77.2205505  52.8404922  86.8076019  76.9532700  53.2137566  85.3653030
  85.2556839  60.8816528   4.1884108  84.5365982  61.3309669   3.7442644
  84.8287506  60.1963615   4.7025466  51.0765724  42.6929207  24.0869942
  51.5521317  43.4670677  23.7857113  51.2067680  42.0466957  23.3929672
  59.8076019  48.4079094  18.5668163  60.6349945  48.3821716  19.0474300
  59.3702164  49.1976204  18.8850613  56.0035858  69.6230850  21.5741463
  55.7178268  70.0707169  20.7777805  56.3772507  70.3166580  22.1178017
  41.9298820   7.5023093  80.5475388  41.2102585   7.0693288  80.0882950
  41.5308380   7.8482804  81.3458481  48.7898140  45.5518532  38.7730141
  48.7724228  44.8343315  38.1396980  49.7075005  45.6155624  39.0376320
   7.7473655  20.9400902   4.0654902   6.9866590  20.3596287   4.0405569
   8.1322737  20.8681412   3.1920485  22.0791073  64.7848053  52.5215721
  21.2365341  64.9624786  52.9395790  22.6294937  64.4447861  53.2270470
  78.9337463  64.8197937   2.8265665  79.3835754  64.0338669   3.1367364
  78.7493896  65.3197937   3.6217060  35.1824188  62.7311211  49.7363739
  35.6435242  61.8924370  49.7512321  35.8203583  63.3488846  49.3791161
  63.5746346  57.4039764  16.1069202  64.4494934  57.7813683  16.0150833
  63.0623589  57.8145103  15.4103088  76.1234818  32.5647163  74.7649231
  75.8804779  33.4093246  74.3856964  75.4269180  32.3750839  75.3934708
  86.2292938  52.5192719  17.9484291  86.0678024  51.7513199  17.4003391
  86.7107773  52.1785278  18.7022820  33.5908775  58.1355972  46.3398285
  34.2880249  57.7526360  45.8073235  33.9980125  58.2901459  47.1922302
  14.9576778  20.5067444  84.6331100  15.7904510  20.7495975  85.0377655
  15.1279917  19.6574650  84.2257385  71.0771255  30.3301888  77.1969452
  71.3382263  31.0557823  76.6298676  71.9001007  29.9011230  77.4311371
  36.4134140  22.4795361  15.6372595  37.1613159  22.0640335  15.2080317
  36.4343376  23.3859711  15.3303862   1.5859619  48.0192680  27.9029751
   1.7846112  48.6438751  27.2053795   0.9331491  47.4328423  27.5206509
  60.7829514  49.4960747  72.4172058  60.1056900  49.2422562  71.7902069
  61.2523804  48.6832619  72.6048355  50.7848129  21.7398739  66.4242783
  50.8580093  20.9936218  65.8293152  51.6888008  21.9465237  66.6616211
  66.0857239  41.2708511  35.4262390  66.9403839  40.8975716  35.6417427
  66.0963898  41.3592491  34.4731903  63.0826759  59.0225296  13.8788795
  62.8189507  58.7764091  12.9922533  63.4778442  59.8886681  13.7794790
  69.0535736  60.7692184   7.0425458  68.2151337  60.7903099   7.5038533
  69.6987762  61.0103455   7.7072239   4.4354396  38.1963539  41.2015572
   4.0824008  39.0037651  41.5752983   3.6900749  37.5961647  41.1806793
  82.7085419  46.5274773   9.9610853  82.3692551  47.0658264  10.6761351
  81.9609909  45.9972153   9.6849852  44.5234146  61.2827606  45.6384277
  44.9698181  61.1960335  44.7961502  43.6265221  60.9970551  45.4646873
   9.8417702  27.6807575  15.7717848  10.0887966  26.7782803  15.9736433
  10.6475811  28.1827049  15.8940477  58.8218536  59.1962891  27.7330799
  59.4978180  59.7004356  27.2801628  59.1651726  59.0767021  28.6185513
  23.0493011  47.9179878   3.3797321  22.5007133  47.9621239   2.5965750
  22.6902103  47.1871033   3.8828158  64.0336609  67.3738403  31.5460320
  63.3994980  68.0777664  31.6822605  63.6137085  66.7925110  30.9120579
  69.0509262  47.0051003  33.9028168  69.9053345  47.3452301  34.1683922
  68.4737854  47.2054672  34.6397018  10.8835888   1.2100037   5.4999089
  11.7267475   1.0285348   5.9151011  10.5932484   0.3610955   5.1663094
  48.4597206  59.7853127  49.6830177  48.8498116  60.6421318  49.8559990
  48.5445023  59.3120422  50.5107002   2.9485302  48.9403496  69.0020218
   2.2028553  48.3573685  68.8594360   2.5706029  49.8197136  68.9909210
  56.1923904   4.5358338  21.1246815  55.7139587   3.7823939  21.4706059
  55.7624168   5.2944274  21.5195103  12.9745216  16.3127518   2.4094584
  13.5097990  15.9191599   3.0985122  12.1548557  16.5447350   2.8459923
  53.6319809  67.3911819  71.3900909  53.5064659  66.4721451  71.6263962
  54.3978233  67.6657257  71.8944168   0.1317907  70.1984558  38.7741318
  -0.2058610  70.0283203  37.8947716   0.0988263  71.1509247  38.8632278
  64.7304535  10.0325985  29.7503815  65.0844955  10.7688732  30.2491684
  65.3382645   9.9245214  29.0188618   7.6524167  28.2954082   5.3145499
   7.2982941  27.7957993   4.5788732   7.1525002  27.9924812   6.0725412
  27.0999565  17.6764717  32.8583031  27.5518055  18.5181332  32.9188614
  27.7927876  17.0245228  32.9640388  29.6224785  66.7577667  38.5503235
  30.4013824  67.0146561  38.0568199  29.1898499  66.1095047  37.9946022
   5.5918350  50.7544556  63.2619820   6.0621381  50.4447937  64.0360336
   5.0899773  49.9947014  62.9667816  59.3146248  60.4153214  52.6904335
  59.3147278  59.6871185  53.3116837  58.5093765  60.2997017  52.1860123
  82.6727905  62.3425369  76.1978226  83.2202072  61.6898117  75.7613449
  81.8541336  62.3388710  75.7018204  18.3897648  43.3252068  83.9864655
  18.1032848  44.1576118  84.3623199  19.0401745  43.5707245  83.3284988
  74.8114777  31.0046787  10.7855320  75.7437744  31.2185917  10.7494793
  74.4177246  31.7305870  11.2695265  72.7961807  65.5448532  56.0767326
  72.5273132  64.8166122  56.6367340  72.4730606  65.3100510  55.2068520
  81.3236618  25.6926975  42.7753830  81.9350891  26.3096733  43.1775436
  80.4702072  26.1201363  42.8470955  52.3495331  10.1557188   3.9363518
  52.7628555  10.9486246   3.5947442  51.4394035  10.4080591   4.0919881
  44.2227325  31.4734554  87.7419510  44.0196724  32.3255959  87.3561325
  45.0003281  31.6320267  88.2771454  70.2723770  12.4034004  43.5430717
  69.5988159  11.9954805  42.9988747  70.7634048  12.9604378  42.9390602
  -0.0020755  13.3876038  76.9980316  -0.1672796  12.6671944  77.6062698
   0.8598376  13.7199297  77.2488251  85.2832260  61.6161499  22.4494209
  85.6610565  62.4944229  22.4953976  84.6927032  61.6485558  21.6967831
  67.1184387   6.4253774  33.8517456  67.1944962   5.8044820  33.1272202
  67.0143127   7.2770343  33.4274025   3.1260381  11.2271585   7.6318822
   2.7274809  11.0806684   8.4897423   2.4569087  11.6968088   7.1339598
   6.4621634  41.5687256  51.9006958   6.4311991  40.9766273  51.1492348
   6.1197190  42.3978043  51.5666428  26.3684998  63.7364845  27.2056141
  26.0215034  64.6188812  27.3367805  26.3812542  63.6229515  26.2552567
   4.2443819  40.4435272  29.5966434   5.1093783  40.7520485  29.3267765
   3.7673063  41.2404442  29.8280716  78.1573792  39.1189232  32.0791092
  78.0013428  38.8239708  31.1819515  77.6569595  39.9313965  32.1545715
   9.8713732  23.9222336  63.7193222  10.5972710  23.4906082  64.1698837
   9.8558683  24.8073578  64.0833893  18.5740643  61.7168236  65.1886978
  17.6273651  61.6527786  65.0626373  18.6745090  62.0787239  66.0691376
   0.3688743  70.7282944   5.4500737   0.2709902  69.7815857   5.3481417
  -0.0792227  71.0986710   4.6896362  65.0187531  18.2126617  56.0479622
  64.9121552  19.1612701  55.9771881  64.6904526  17.8720074  55.2158508
  78.4665375  58.9322319  86.7702942  78.6326675  57.9900436  86.7401047
  78.3882675  59.1911850  85.8521194  66.4420700  64.2159271  48.6428604
  66.7075806  64.2644272  49.5612221  65.9986115  65.0479279  48.4774895
  75.9969254  41.9678993  55.3214798  75.6182175  42.8444138  55.2541771
  76.5129852  41.8678894  54.5215340  36.4040375  61.5897217   8.8407497
  36.3789520  60.6823654   8.5369244  35.5076523  61.7729721   9.1220798
  86.9514465   8.2540646  13.5389032  85.9969635   8.3096685  13.5847588
  87.1229935   7.7090335  12.7709551  71.5290451  18.8824425  39.9985657
  70.7420731  19.4002018  40.1683540  71.9714890  19.3454418  39.2871513
  85.2177505   2.4586430  22.2900753  84.6923065   3.1350238  22.7174473
  85.4552231   2.8386199  21.4442291  71.6925659  52.5691605  87.9480667
  71.7263412  51.8539848  87.3127594  72.5245743  53.0288849  87.8356476
  29.3051567   3.2521448  17.3139744  28.8304100   3.6199274  18.0593491
  28.6354542   3.1269352  16.6416264  83.5791473  44.0359268  10.8353176
  83.1775208  44.9047852  10.8322582  84.5093918  44.2015228  10.6821718
  59.0552902  10.5638542  55.5246277  58.4711189  10.9926872  54.8992653
  58.6810989  10.7689819  56.3814430  22.6560612  22.3723392  73.2067566
  23.5700340  22.0880661  73.1981354  22.2341576  21.8428669  72.5300827
  46.8567123   7.9506621  66.4443359  46.2495346   7.7651625  65.7279892
  47.4702911   7.2160482  66.4345322  80.3685837   0.6821799   8.4266872
  79.4587250   0.5811621   8.7062931  80.6883163   1.4375498   8.9200659
  10.3516970  67.4978180  75.9961472  10.1010981  68.1263275  75.3190842
  10.3400183  66.6499710  75.5520248  12.4945736   0.8940094  22.8026619
  12.0912685   0.3528475  23.4814243  13.1592999   1.4035254  23.2660885
  31.0757465  31.2285671   8.3043299  30.3107624  30.7751122   8.6584606
  31.4663486  30.6006012   7.6966138  61.2816200  54.8321648  40.8202782
  60.6765251  55.5663795  40.7152977  61.3981171  54.4892349  39.9342422
  59.5932426  35.5879173  70.0490036  59.7218895  34.6893272  69.7453308
  59.3862839  36.0815887  69.2554703  59.5220909  16.2307243  87.1589813
  58.8817177  16.5677891  86.5324478  59.7480621  15.3620043  86.8265762
  66.6491394  31.1322041  52.3976707  66.2686310  30.9493999  53.2567596
  66.1745224  30.5564671  51.7980843  79.8710861  63.8843880  24.1559639
  79.4362793  63.0429497  24.2943726  80.2974243  63.7963142  23.3034897
   9.5594187  41.4793854  45.6738930  10.1755028  41.4397469  46.4053993
   8.7716875  41.8764572  46.0454407  84.4646606  27.2073345   8.3145409
  84.5556335  26.5431519   8.9977798  84.6653290  28.0331268   8.7550306
  25.9628220  70.5222626  51.0374565  25.5949135  71.2534256  51.5337219
  25.6211605  70.6385193  50.1509018  59.3576622   2.8160844  17.2193241
  59.9766579   2.1270576  16.9778290  59.7477417   3.6197450  16.8755226
  60.1879997  24.5612049  88.2667084  60.1367836  23.6845341  88.6475754
  61.1073265  24.8102875  88.3617249  52.7435074   1.9318768  22.3194275
  52.2289124   2.7206450  22.1483383  52.4011002   1.5976564  23.1484566
  76.2237396   4.5807428  34.1056786  75.8132858   5.4431753  34.1686935
  76.7812347   4.5235376  34.8816681  54.6815758  31.0523586  60.6658287
  55.5755730  31.1423092  60.9958382  54.3021126  31.9259644  60.7609749
  78.5695648  34.3027954  41.9534454  79.4044571  34.7264709  41.7542076
  77.9144287  34.9861870  41.8120232  25.3609886  42.1382179  66.1250992
  25.4180622  41.2014275  65.9369431  24.7800922  42.4836998  65.4472885
  80.0582352  20.4656525  78.3774490  79.2084579  20.2707577  77.9823303
  80.2352676  19.7165565  78.9464417  12.0364275  17.1866817   5.9365067
  11.6663713  17.1999664   6.8191810  12.9344406  17.4985256   6.0485663
  43.6468201  71.7087631  87.4231110  42.9644814  71.0392609  87.3740692
  44.3065758  71.4251556  86.7902451  55.7938805  23.2267170  60.0086060
  56.6486168  22.7994652  59.9528008  55.8111420  23.8881798  59.3169365
   1.4690241  45.2262077  63.1195755   1.1146158  45.7691727  63.8237152
   2.3209412  44.9366150  63.4460793  14.2389879   6.9670448  17.0503731
  13.8648863   7.8395500  17.1729107  13.5427265   6.3679309  17.3196583
  61.8309555  11.5146170  75.1345444  61.8052979  10.9344807  75.8954773
  62.2319565  10.9865656  74.4441910  35.9621010  39.7621956  79.3050842
  35.2740517  39.3229599  78.8051987  36.7474899  39.6671181  78.7662430
  35.2925148  10.4801350  72.3219986  35.7894173  11.0412741  72.9173508
  34.6941261  11.0775003  71.8733139  41.5876961   4.4190702  61.5879326
  40.6928482   4.7581167  61.6107597  41.6026764   3.7371993  62.2595444
  47.7060013  32.4225311  83.3205414  46.8859444  31.9288311  83.3198929
  47.5167656  33.2019119  82.7980652  76.6089020  57.5528831  80.6156082
  77.5268936  57.7947502  80.4930420  76.1728210  58.3745270  80.8413696
  29.3774128  52.4241066  60.7207603  29.3347797  52.0757561  61.6113014
  30.0322094  51.8808670  60.2821693  10.7622108  13.4402361   0.8259759
  11.3043985  12.6868267   1.0597246  11.3774977  14.0716772   0.4532358
  45.7102928  31.1853256  31.1578655  46.4209747  30.5477161  31.0899029
  45.2383423  30.9342194  31.9518681  13.4222059  37.3165054  72.7786331
  12.9573765  36.5302124  73.0648270  12.9701710  38.0358200  73.2196426
  80.3528976  10.4935398  49.6633301  80.9146729  10.0663519  50.3099823
  80.9056091  10.5815897  48.8868065   4.9802437  46.8756790  62.1055069
   5.7458038  47.0284042  62.6594238   4.5089803  46.1642418  62.5391006
   2.8642159  27.4368496  65.0216522   2.0014076  27.8512001  65.0112991
   2.7182539  26.5701370  64.6425247  62.4070625  28.9334354  29.3686943
  62.5990601  29.2833862  28.4986916  62.9085693  28.1194725  29.4154778
  13.6535978  10.0364122  87.2121811  13.1551905  10.8313799  87.4015198
  13.4975624   9.4701824  87.9680023  65.1445847  21.7242508  72.9792175
  65.8583374  21.0963688  73.0912476  65.5805283  22.5424461  72.7410126
  54.0612717  36.1187973  56.6330910  53.8054543  35.2159386  56.8218727
  54.7068367  36.0428925  55.9304428   0.5292404  38.3454628  14.2386971
  -0.3474789  38.5226593  14.5795736   0.4042068  37.6280365  13.6174908
  55.1373291  10.5799170  45.1273613  54.5766373  11.0263987  45.7617989
  54.5300980  10.2312336  44.4747353  81.7948914  40.1067619  23.3375263
  82.4667664  39.9999199  24.0108795  81.7566223  39.2561340  22.9002609
  17.5651932  18.3430576  66.1634293  18.0344696  17.5557213  66.4393158
  18.0607796  18.6659145  65.4108353  62.7874680  59.1154518  88.1906281
  62.3331261  59.2833900  89.0162201  63.6778107  59.4345169  88.3380051
   9.1565609   9.5989838  80.4696655   9.5133762   9.2528248  79.6516876
   9.1329317   8.8448963  81.0587540  45.6899071  39.7953911  53.8044548
  44.7401314  39.6907730  53.8610916  45.9319229  39.3500824  52.9924431
  11.5556850  58.2046127  47.9949188  12.0401773  57.3806877  47.9434814
  10.7799406  58.0605392  47.4529839  14.4731216   3.9551976  74.6420441
  14.9208307   3.4398823  75.3130493  13.5570688   3.9654777  74.9194870
  25.5104408   3.2276838  18.2145481  24.6997738   3.6300778  17.9028893
  26.0571404   3.9664779  18.4820080   7.6238379   2.7666531   9.2145395
   7.5036139   2.1696465   8.4760532   8.1868620   2.2863467   9.8216162
  41.3334618  53.6501465  45.4359703  41.5223923  52.7165565  45.5305557
  41.5166740  53.8395615  44.5157623  46.5464478  32.5968285  -0.3052407
  47.1676979  31.9267006  -0.0202689  46.2791481  33.0347710   0.5028353
  64.4750214  37.1077881  74.0639954  64.5948868  36.5079994  74.8002777
  64.8987732  37.9189720  74.3444366  84.4424744  28.1706085  31.7995682
  85.0772858  27.6305027  31.3288956  84.5788040  29.0539169  31.4569149
  71.6291504  38.0160484  83.7573853  72.1707916  38.0986137  82.9725037
  72.0444870  38.5945549  84.3969650  54.5611610  29.5157490  71.4590683
  55.0682716  30.3246384  71.5281143  55.1957664  28.8589306  71.1725464
   2.5779912  22.2449875  24.4896317   3.2917511  22.3332767  25.1212826
   2.1220775  23.0859222  24.5243130  11.4399738  71.4740219  11.4565258
  11.7802315  72.1789398  12.0074759  12.1004009  70.7836914  11.5157871
  25.4729519  63.4466553  37.8806610  24.7426014  63.1011925  37.3673592
  25.3038025  63.1428185  38.7724571  61.8388329  45.5651855  73.9364319
  62.6328201  45.9671288  74.2889328  61.5331917  46.1819229  73.2712631
  61.4035492  64.8808441   9.3145266  60.6841736  65.4261398   8.9961166
  61.2121544  64.7502213  10.2432556  40.6246529  46.5856094  80.2079849
  40.4086113  45.6581650  80.3049469  39.7761574  47.0232391  80.1389389
  85.2623520  56.2670021  46.4950333  85.1728058  56.1679955  47.4428749
  84.4176865  56.6154060  46.2097473  58.2479515  23.8821983  44.1466293
  58.2968483  24.8086948  44.3820992  59.1610680  23.5999050  44.0941162
  56.4305763  59.1418686  36.7684746  57.1033287  59.7507629  36.4637070
  55.6674080  59.3362236  36.2243843  12.2860565   2.9042447  59.7528534
  13.0281162   2.4518402  59.3517189  12.0537987   2.3617806  60.5065269
  32.7340927  11.7512732  86.8231125  32.4451599  12.6532154  86.9618607
  31.9295692  11.2338743  86.8587952   7.2437387  44.8632507   2.5461776
   7.4321976  44.3925209   3.3580430   6.6909251  45.5962143   2.8170979
  71.1561050  11.1769943  56.2305145  71.3989334  10.3357973  56.6173630
  71.5601273  11.8293276  56.8027496  37.0471382  69.6309204  85.6135483
  36.3015251  69.2215729  86.0525513  37.5052795  68.9040451  85.1916580
  55.5151749  59.3338814  40.3880081  56.0241585  60.1400528  40.3028107
  54.6646004  59.5458908  40.0035553  54.4984665  39.5947342  65.2909851
  53.8450279  39.0416222  64.8628311  55.2851410  39.4948387  64.7548904
   9.4419785  -0.2258671  38.1375389   8.6941204   0.3710340  38.1120682
   9.9167080  -0.0498243  37.3252144  39.9130440  70.3642960  54.6810760
  39.2389679  69.7162781  54.8858261  39.5556068  71.1917114  55.0033455
  23.2083740  39.4723282   1.2858198  23.6798134  40.1522560   1.7671411
  22.8468857  39.9251480   0.5239053  59.4286270  42.8620911   8.1740551
  58.7419701  43.1565437   8.7724094  59.5224953  43.5784111   7.5461178
  61.4287567   6.4310570  41.6894722  61.4034615   6.7982025  42.5730972
  62.2511826   6.7525191  41.3199921  48.1923065  62.3530693  87.9101257
  47.7107735  63.0844879  88.2966309  48.6099892  61.9209251  88.6551285
   5.7188907  65.8842773  82.3592300   4.8909483  66.2011337  81.9981918
   5.4733629  65.1306763  82.8959122  47.8412514   2.0548019  25.0597610
  48.4056664   2.7908192  24.8232327  48.1262245   1.8074828  25.9394512
   8.2651892  59.8675499   3.5404058   8.3781452  59.3651390   4.3472848
   7.5379405  59.4376373   3.0903900   3.9915857  56.7789879  31.8535061
   4.5860295  57.5249443  31.9336033   3.5882859  56.7002068  32.7180138
  67.6160660  67.3449249  37.3481522  67.0652084  66.8835220  36.7157784
  68.3131409  66.7231216  37.5571594  34.6623878  54.3829575  73.2105942
  35.4773560  53.9442558  72.9664688  34.3677635  54.8067970  72.4045029
  48.8051872   1.4213767  13.5588961  48.8302269   0.4679846  13.6404333
  49.3831558   1.6138804  12.8205690  56.7990799  14.9405642  29.5883217
  56.0749664  15.5551987  29.7071247  57.5501518  15.3741007  29.9934978
  31.6331882  45.4821815  58.7157860  32.3572350  44.9032440  58.9541473
  31.7308846  46.2385330  59.2942505   3.1311023  54.8982010  49.4499702
   3.2256210  55.1442070  48.5297623   3.0483510  53.9446907  49.4357033
  76.1269608  35.2103043   9.0632639  75.4418488  34.6333961   9.4009438
  76.9416275  34.8374710   9.4002285  72.5006485   0.5029620  65.8601532
  73.4550323   0.5485155  65.8026581  72.2793121  -0.3536798  65.4949036
  25.5126305  56.7462578   2.9263892  25.1849651  57.6139984   2.6899819
  24.7599697  56.1663094   2.8106434  59.7122307  57.1220665  41.2526703
  58.8094101  56.8760834  41.4542580  59.6813622  57.4231834  40.3445892
   5.8976631  42.0013237  22.0176411   6.5306129  42.5536346  21.5587711
   6.3264360  41.7821503  22.8448925  74.3242340  16.4292583  76.0237503
  75.0097504  16.7516613  75.4386444  74.4264984  16.9483719  76.8214340
  17.3898811  26.2507935  33.5504036  16.9485855  26.9887562  33.9710007
  17.2437057  25.5143337  34.1441154  81.2431946  40.5290375  26.4186954
  81.2510986  40.6505203  27.3681221  81.0335007  41.3947220  26.0681992
  45.8384056  23.7843113  76.9796066  45.8257942  24.7003307  77.2570648
  46.5851479  23.4041634  77.4423065  35.0511627  47.0590858  62.3914871
  34.1958618  46.9581375  61.9737549  35.1072083  46.3248177  63.0029984
  53.4607697  56.7954178  11.7673540  52.9659081  56.4312477  11.0333767
  53.9885597  56.0636215  12.0869532  64.4494324  52.3788872  53.3852882
  64.1506195  51.7684593  52.7112579  64.3628082  53.2425079  52.9816971
  57.2833290   9.2028074  49.4227409  57.2998352   9.5628290  48.5359840
  56.8858299   9.8927364  49.9539909  57.2239227   7.3233576   5.4047551
  56.7474136   6.5878320   5.0198216  57.6782074   6.9464054   6.1582551
  77.3946152  61.1122246  28.8266506  76.5969772  60.6460228  28.5763378
  78.0121078  60.4202805  29.0636158  49.0084724  48.3822365  24.8129730
  48.2016830  48.8792686  24.9481850  48.9400482  47.6449089  25.4195175
  58.1358109  47.4248085  10.5746498  57.3169060  47.6071434  11.0355015
  57.8611984  47.0558281   9.7351999  26.8485813   7.3555508  85.9710236
  26.1424274   7.2626410  85.3315353  27.2616463   8.1908102  85.7520523
  76.9472809  21.6495876   4.7612381  76.8001251  21.9213543   5.6671743
  76.3532486  22.1968155   4.2475228  56.7362747  63.0150909  33.8078232
  56.0344048  63.2726097  33.2100792  57.5018044  62.9030647  33.2442245
  83.0932846  19.2533092  63.4692688  82.4164047  19.8607330  63.1707611
  83.7943649  19.8174591  63.7955246  47.8197021  19.0881195  46.6607628
  47.5145569  19.9809380  46.8219757  48.6681747  19.1987972  46.2317238
  25.0612564  28.8114986  64.1803131  25.1002522  29.6729679  63.7648888
  24.9414387  28.2002888  63.4534760  64.5077133  25.2335472  22.1272469
  63.8285484  24.6812916  22.5145187  64.2631607  26.1246223  22.3770714
  16.9393692  64.2089386   3.1885984  16.7480049  64.8900757   3.8333170
  16.2254963  64.2723694   2.5540948  23.4202251  65.6300049   1.1391077
  23.8602390  65.6085129   0.2893094  22.8730049  64.8446808   1.1454122
   7.8457084  51.9167671  88.1619186   6.9976149  51.4757919  88.1118011
   7.9778371  52.0763321  89.0964279  43.0035591  70.8296509   1.0295554
  43.3763733  70.0831451   1.4985726  43.4280777  70.8098984   0.1718678
  21.2124081  45.6580887  47.8005600  22.0729351  45.2869072  47.6057549
  21.3086605  46.5932961  47.6206818  50.8943100   1.0068729  77.0076370
  50.1317406   1.5796838  76.9263458  50.8770981   0.4711759  76.2145615
  47.1981850  38.2976494  36.0482407  46.9965744  37.4154854  36.3602829
  47.9428749  38.1788139  35.4587135  15.5063295  15.6057796  56.4929123
  16.3168545  15.7117882  55.9948692  15.0850964  14.8390112  56.1045036
  28.5399227  58.5909767  26.1426849  28.3831463  58.9732132  25.2792339
  28.7691212  59.3370285  26.6968536  72.5486832  23.2024307  84.4837265
  71.9842529  22.9208126  85.2036819  72.1445923  24.0091133  84.1640320
   1.3110149   7.5775299  73.1082458   1.8141416   7.9821773  73.8148956
   1.3410516   8.2167473  72.3963928  56.8358955  24.1766796  87.7019424
  56.5672035  25.0841217  87.8454208  57.5168800  24.2316780  87.0315170
  56.1274757  44.3734512  12.1628847  55.2958183  44.5277138  11.7147980
  56.2808838  43.4335823  12.0662308  18.1193256  49.6237640  62.5153999
  17.7317867  49.8855362  63.3505745  17.3741817  49.3481560  61.9815140
  12.4105453  67.1873932  24.9303589  12.3992386  66.6987076  25.7533379
  11.4941053  67.4158249  24.7748394  76.9620132   5.5858006  75.6763916
  77.6093979   5.1998672  75.0863190  76.2435150   4.9535036  75.6901855
  51.9902000  51.7782135  13.1396523  51.0843086  51.8855209  12.8496923
  52.0529900  50.8573914  13.3933668  12.2531719  63.3758812  74.6450195
  12.4532061  62.6671448  75.2565079  12.8045902  64.1033936  74.9329300
  42.0811768  49.5294685  42.6386032  41.3301010  49.8327904  43.1486168
  41.6991272  48.9848709  41.9503555  52.7918091   0.6724488  51.9993553
  53.7126160   0.8914732  52.1420975  52.6684265   0.7603889  51.0542221
   2.8763232  54.6428108  39.1599274   2.5561934  55.2369041  38.4811020
   2.0949810  54.1779099  39.4592667  85.6573486  27.6078720  50.2876396
  85.9807816  27.5030441  49.3928566  86.3716278  27.2891197  50.8393898
   1.2189375   1.0046520  83.1497650   1.1170530   1.4166075  82.2917786
   2.0452230   0.5253232  83.0887070  29.4706287  48.3647614  47.5400734
  29.1851730  49.2719803  47.6482353  28.7060032  47.8425369  47.7826881
  31.3485775  28.8247013  17.4644508  32.2191429  28.8208256  17.8623600
  30.7454910  28.8262672  18.2077637   9.1027203  70.5108643  44.5179672
   8.4971685  71.0595474  45.0164528   8.6678648  69.6596909  44.4666862
  66.6916809  36.5718880  67.8262787  67.0815964  35.8289413  67.3655930
  67.2853241  36.7379417  68.5585709  41.7125397  50.9211044  34.2050591
  42.2736969  51.2338142  34.9146729  41.2092743  51.6911850  33.9406090
  21.4029160   7.8242531  75.7271194  21.5250225   7.5454679  74.8195953
  20.5738773   7.4250269  75.9908371  33.4009361  38.4868660  78.8228226
  33.5673332  37.8017082  79.4702072  33.5175209  38.0517654  77.9782410
  84.7576828  27.5917549   3.7855008  85.1012192  28.3177853   3.2648323
  83.8073349  27.7005253   3.7504539  59.3178749  37.1076241  13.9389105
  58.3631859  37.1756096  13.9523315  59.6135330  37.7623596  14.5714779
  78.6750259  64.6428223  44.1217384  78.3417511  65.1962585  43.4154282
  77.9771347  64.6443939  44.7768555  58.3554688  67.2907104  55.2451744
  59.2409706  67.5054550  55.5384407  58.4519196  66.4590683  54.7811661
  12.6646357   1.9287659  18.6850700  13.0968304   1.1517951  18.3304482
  12.0757694   1.5887852  19.3587761  69.3996582  19.5756207  81.5717087
  69.3802261  20.3836460  81.0589218  69.1624374  19.8486118  82.4579544
  29.3665638   6.7700667  17.2855530  29.7923088   6.5441208  16.4585590
  28.4683247   6.4544649  17.1865788  84.6298065  53.3960724  14.1598969
  84.5171814  54.2111931  13.6708927  85.5774536  53.3059883  14.2603121
  66.2037735  14.6551867  17.0888424  65.7752075  14.9178686  16.2742481
  66.6698380  15.4396458  17.3780479  49.1015282   5.0652699  52.2067299
  48.7362480   5.2366972  51.3387337  49.9392700   5.5283208  52.2097588
   4.7926750   7.1029048  34.7998390   3.9058366   7.1849051  35.1505890
   5.1385045   6.3083186  35.2063713  72.4483719  11.8283482  84.0509644
  72.8986893  11.3121891  84.7195740  73.1001892  11.9460630  83.3599396
   2.6108563  31.0768929  29.2786217   2.3733168  31.5742855  28.4960575
   3.5462625  30.9015255  29.1761875  72.1717453   5.7844143  55.3102684
  71.2270737   5.6405301  55.3661690  72.5533524   4.9127531  55.4142647
   8.1945972  52.2166672   1.6468525   8.8536873  51.8126640   2.2113123
   7.3658786  52.0687103   2.1024458  76.9549561  28.1134453  57.7959404
  76.8431091  28.9289570  58.2844734  77.7987061  28.2122669  57.3548584
  63.3750420  56.6079407  72.8397522  63.8634109  57.3703041  73.1504517
  63.9106369  55.8583031  73.0993881   1.8568575  33.6104927  58.7248573
   2.4889920  32.8922043  58.7512779   2.3933020  34.3986244  58.6393776
  41.0533829  21.8713684  72.4530792  41.7877960  21.2578144  72.4736862
  41.2956314  22.5559368  73.0767136   9.9930420  36.7543678  17.2358685
  10.1267939  35.8079300  17.1849422  10.3943300  37.0963020  16.4369431
  56.5113335  46.3419304  29.2353210  55.8141708  46.8033943  28.7692280
  56.4281921  45.4318657  28.9505310  32.3733177  52.1539955  15.4185944
  32.1604996  51.3145752  15.0107803  31.5767498  52.4007759  15.8884983
  67.0583420  60.2798233  65.4525146  66.7527466  60.5126991  64.5758133
  67.6646652  59.5530548  65.3096237  38.7697983  70.2461777  87.7403412
  38.2287025  70.3140869  86.9536819  38.4948273  70.9840164  88.2846069
  75.5436478  70.6622162  26.6653919  75.6912918  69.9697952  27.3095894
  74.7842026  71.1406937  26.9978580  39.3400116   6.8805513  17.9296703
  39.3588409   7.2942967  18.7926254  39.2215538   5.9486465  18.1133900
   4.3617797  35.7620125  72.2895126   4.6422076  35.7336769  73.2042770
   4.8740211  35.0765228  71.8606262  41.9675522   5.1486788  16.1162777
  42.6296082   5.8213458  15.9567919  42.4709969   4.3514013  16.2809696
  49.3328285  13.6148109  87.2523422  49.0276833  12.7078018  87.2736130
  50.2815399  13.5458937  87.1454315  59.9658241  23.4803696  71.6461716
  60.6654587  24.0902920  71.8801346  59.4139824  23.4379234  72.4271317
  85.3869019  15.6193590  75.7860413  85.9226074  14.8488350  75.9745789
  85.8506393  16.3425789  76.2081070  55.4360886  56.0827789  42.5638771
  54.7488785  55.4186707  42.5097351  56.0356293  55.7530289  43.2332420
  52.2969627  24.7589703  58.1542702  52.6921120  25.2863674  58.8484917
  51.5543518  24.3261719  58.5755119  26.5954132  38.9885368  45.6878815
  25.8558369  38.6651802  46.2023697  27.3687801  38.6808052  46.1605721
  13.1530933  56.0272636  77.9739990  13.6462612  55.2412224  78.2088547
  12.4660549  56.0862274  78.6378784  27.9726734  50.6215324  42.1317940
  28.2656727  49.7335815  41.9270287  28.5295696  51.1869049  41.5965805
  74.9165955  32.3937225  60.9079094  74.8645172  32.0878487  61.8134232
  74.1805267  32.9988060  60.8167801  32.7998428   3.6384974   0.3871486
  33.0319023   3.1761911  -0.4182414  32.7214470   2.9481051   1.0455136
  13.6797695  25.3233852  64.0766602  13.4252110  26.0306664  63.4840546
  14.3492298  24.8370361  63.5954933  69.8806229  39.7971268  30.7215672
  70.5594635  39.7158508  30.0516472  69.5373535  40.6834641  30.6084194
  31.1712093  55.4306870  65.4101868  31.4678707  55.9157448  64.6401596
  31.9710693  55.2562828  65.9062119  65.4131546  18.7053719  61.2114830
  64.7403870  18.0282669  61.1397705  65.9743805  18.5671368  60.4484978
   5.9920192  14.8193130  88.7818146   6.8779020  14.5707979  88.5178375
   6.1097145  15.6223402  89.2892838  30.9158249  29.9125366  78.3991928
  31.3610401  29.0693169  78.4828339  30.3095608  29.9377556  79.1394882
  46.5082436  60.4498253  10.7070265  46.3769913  60.9495544  11.5128031
  45.6249275  60.3077393  10.3667421  64.7090988   1.7863756  87.1200790
  65.1476593   2.6322775  87.0287170  65.3878098   1.1994679  87.4534225
  42.5725250  24.9582081  86.6129532  42.2873001  25.5341434  87.3223038
  42.4707794  25.4855938  85.8206482  37.2802658  22.3695469  82.2576904
  37.2130852  23.1818600  81.7558289  38.0250740  21.9096451  81.8704224
  29.4184532  42.5583496   8.2403231  29.1838608  41.8294640   8.8147106
  30.0226021  42.1766167   7.6035213  16.8645821  42.1828995  18.1823063
  16.8587627  41.3530540  17.7052765  17.6027832  42.1064873  18.7868290
  22.0050621  48.7576447  59.7087975  22.4578419  47.9193306  59.8007393
  21.2314663  48.5555763  59.1825333  57.0658226  51.2374725  44.7406960
  57.2609444  50.6754189  43.9908562  56.1156044  51.1811371  44.8414078
  81.7942657   8.1055288  43.5241432  82.7375946   7.9902701  43.6385231
  81.4824905   8.3940830  44.3819084  54.1804848   3.2371118  63.4343262
  54.6727753   3.7662711  64.0619202  54.8116531   3.0362244  62.7433090
  41.8655434  33.3261261  19.0517063  42.4973755  33.4852562  18.3504944
  41.3489113  32.5813370  18.7441216  84.8690643  35.0368004  17.1780663
  84.6051788  34.3138924  17.7472763  84.5313721  34.7975960  16.3149452
  48.2543373  60.4463882  64.4642715  48.4225998  59.5214043  64.2844772
  47.3035011  60.5028839  64.5588913  54.6750565  29.2430820  63.8619118
  54.5924835  30.0895519  63.4227066  55.6012764  29.0176220  63.7752495
   3.4721432  49.6002121  59.0938072   3.5182400  50.4818268  58.7238617
   4.3596578  49.4250298  59.4066353  38.2550468  42.6597023  72.2531509
  37.3610153  42.6839714  72.5942535  38.5267181  41.7478676  72.3579559
  58.4723816  63.7446404  85.4832382  58.6699791  64.5676498  85.0362015
  58.1246796  63.1762695  84.7960052  29.7948761  52.4526100  40.9607697
  29.7730846  52.2070465  40.0358620  29.9760780  53.3924828  40.9548416
  64.5838165  29.3934956  69.8151016  65.3249130  29.1473751  70.3686600
  64.1494827  30.0981770  70.2957382  33.2100449  18.0482063   4.2864523
  33.6832199  18.7344723   3.8159487  33.8912010  17.5655231   4.7547178
  80.5958099  18.7068195   6.1095924  79.9941483  18.3644028   5.4485474
  80.4861221  19.6566315   6.0642538   2.2146926  68.6291656  41.6572914
   1.8966408  68.1250534  42.4062576   3.0287008  69.0277328  41.9651260
  58.5340538  18.3774147  19.9311733  59.3695908  18.7907925  19.7138519
  58.1739082  18.1067524  19.0866203  81.1275406  53.3448792   4.6748199
  81.0045776  53.2484322   5.6191764  81.4075394  54.2531433   4.5612717
   5.1559215  10.9513693  60.2812805   4.9541659  10.1493731  60.7632828
   4.5798416  11.6126451  60.6647873  56.0663338  66.7666245  49.9625969
  55.7611732  67.3309555  50.6729698  57.0142555  66.7174454  50.0861359
  68.3016968  41.6334114  50.8784523  69.2316208  41.4780693  51.0437813
  68.0695343  42.3491440  51.4701118  84.0170593  21.3168087  40.1758537
  84.9423904  21.2483253  39.9406700  83.6332321  21.8551903  39.4837189
  82.8891525  22.2375031   9.5604143  82.4418411  21.4153671   9.3598280
  82.8603287  22.7318974   8.7412825   0.1167135  39.0092926  37.2525597
   0.5517616  39.5279694  36.5758438  -0.3036534  38.2950325  36.7736435
  34.1449966   1.3946439   8.5821915  34.6939774   2.1749661   8.6593227
  33.3089600   1.7218350   8.2501974  17.4465599  42.1353874   5.8552604
  16.9477692  42.0055389   6.6618452  17.9518795  41.3288116   5.7536678
   1.3590155  19.8459167   2.5465405   0.9201723  20.2711086   3.2833312
   1.8374780  19.1168003   2.9411218  78.7460098  68.5080719  12.6243715
  78.5378571  69.3532486  12.2261524  77.9509201  67.9873886  12.5106068
  74.8501434  38.6656113  78.0562210  73.9489975  38.5515671  78.3581390
  74.9548950  39.6129036  77.9673462  30.0012970  63.3439865  55.8942528
  30.2787457  63.0883713  56.7739792  29.8230896  62.5155258  55.4491348
   8.0519075  71.1927872  60.3065720   8.3496180  70.8992310  61.1676331
   7.2665262  71.7090607  60.4878731  10.5940151  40.0408287  27.2106075
  11.3637199  40.5958481  27.3360710  10.2308664  39.9326782  28.0896168
  28.7757339  59.3471565  54.4419098  29.6102276  59.7864113  54.6059532
  28.1229630  60.0451508  54.4960403   2.5240712  39.4277840  55.2693367
   2.5881894  38.4731331  55.2417221   3.4133599  39.7219582  55.4664612
  15.0166254  28.9547062  64.5832901  14.6894970  28.9806004  63.6840935
  15.9502354  28.7637367  64.4931030  46.7713737  15.5810957   5.6897788
  47.6603279  15.9204664   5.7937770  46.7922592  14.7217808   6.1109366
  63.4758606  22.3580303  82.5104904  63.8269768  22.0913658  81.6608734
  63.5745087  23.3100605  82.5222855  54.0879555   8.0300713  10.0635529
  54.6198730   8.1843138   9.2828445  53.1907425   8.2071047   9.7808905
  50.9196968  40.5228996  74.6473312  51.1620064  41.1219673  75.3534775
  51.6291618  39.8807602  74.6239853  60.2184219  10.7044020  78.2911682
  60.8630219  11.3678160  78.0449905  60.1205597  10.8052635  79.2379990
  80.8751755  40.6769180  44.1559563  81.1006088  41.5606804  44.4464340
  79.9274368  40.7025719  44.0241623  57.7379723  67.1498337   3.0615549
  57.7992744  66.7980728   2.1734462  56.9626579  67.7109146   3.0439491
  15.4610710  32.0994148  12.4281559  14.9897623  31.4919071  11.8580370
  16.2741375  32.2863846  11.9589043   8.0404568  52.0717163  29.4987354
   8.4885836  52.7770500  29.9655476   8.4353170  52.0728989  28.6267738
  14.5207767   4.7302089  28.2229691  15.0412951   3.9627092  27.9858284
  13.9680662   4.8904104  27.4580650  35.2370644  62.0970650  83.4298630
  35.1822319  61.1640625  83.2231598  35.0878525  62.5369759  82.5929337
  17.2703724  36.9210167   3.4896178  17.9174328  36.7461777   4.1729727
  17.6147346  37.6824570   3.0228689  85.7020416  23.7237873  70.0559006
  85.8386612  24.6409340  70.2934113  86.4521103  23.5053177  69.5028152
  44.5162277  55.6363335  57.7046471  45.0583000  55.8197289  58.4719505
  44.1830368  56.4926910  57.4365654   1.0496720  16.4424438  17.8938065
   1.0715021  16.0641975  18.7728310   1.8903615  16.8914967  17.8053436
  43.7680206  53.7676201  77.2665024  44.6549568  54.0757217  77.4526443
  43.2611961  54.0153084  78.0398178  25.8261261  42.5394325   8.7395573
  26.6118164  42.0066643   8.8623753  25.1001892  41.9305382   8.8755608
  20.9681320   4.9563417   8.6943455  20.9210167   5.8764381   8.9540272
  21.9007092   4.7954974   8.5505981  61.3141670  23.1985970  51.9135742
  60.7661629  23.3550224  52.6826363  62.0223007  22.6397686  52.2337227
  46.4450607  34.6571045  74.9371567  45.9676285  34.8727608  74.1360474
  47.3665352  34.7726059  74.7052612  45.4454498  15.1830378   3.2618630
  46.1622162  15.2907667   3.8870609  44.8280220  15.8802948   3.4828751
  37.7495041  55.8908386  28.4017162  37.7883148  56.0923653  27.4667759
  36.8345871  55.6572762  28.5586071  27.5258408   8.0641203  29.3832722
  27.3259563   7.8440890  30.2931423  28.3874588   8.4793568  29.4209995
  79.8498993  11.2701464  74.8220215  79.1710510  11.3550148  75.4915009
  80.4549484  10.6182013  75.1757355  54.4442368  25.4045792  63.4055367
  54.1482086  26.1029816  63.9893456  54.3840179  25.7837524  62.5287056
  55.4355431  40.5137024  59.0604439  55.5098763  39.5936356  58.8070984
  54.8500748  40.5070686  59.8176804  13.3955708  33.5286942  59.4072990
  13.3349886  33.8755722  58.5172195  12.5136251  33.2111664  59.6011543
  85.2643738   4.6853199  63.2142487  84.9908524   3.8992717  63.6870499
  85.1206818   5.4000673  63.8345032  77.6537323  68.3924713  48.2810707
  77.5159225  69.2954330  47.9948730  78.4215317  68.1000824  47.7899284
  83.9168091  28.2503452  60.9276390  84.2614288  28.9690571  60.3976173
  83.0673523  28.5660019  61.2359047  67.7671204  63.3555183  55.9712715
  68.3556747  64.1043243  55.8757401  66.9074936  63.6928635  55.7193565
  27.6942062  47.3283653  25.7118015  28.5013962  47.6433868  26.1185417
  27.9887600  46.7143364  25.0391655  21.9746017   9.8378801  18.3731079
  21.3830147   9.5612173  17.6733112  21.3951836  10.1650867  19.0611801
  28.1252308  49.6203613  32.7404938  28.3980064  48.7240639  32.5443420
  28.5683670  50.1551590  32.0818176   8.9049911  36.8808365  53.0188522
   7.9708257  36.7864990  52.8326607   9.1919613  35.9992714  53.2570229
  36.7786293  23.7276039  18.7875195  37.5919456  23.7761669  18.2851353
  36.9426575  24.2663918  19.5614929  79.0904083  27.1855927  43.1649475
  78.2630692  27.6281834  42.9755859  79.3825989  27.5678329  43.9924393
   0.3171071   9.8454885  56.2355194  -0.2282442   9.0930719  56.0059700
   0.4528694   9.7637920  57.1795120  13.0652142  24.0719337  52.3672752
  12.1569681  24.3403072  52.5061836  13.4602919  24.1037521  53.2385597
  51.8894539  39.2439499  66.7969894  52.1657333  38.9967880  67.6794891
  51.7412872  40.1882324  66.8480530  55.8397408  56.2653847  50.3473129
  55.2649612  55.7569275  49.7751846  55.6584282  57.1772919  50.1197586
  20.6726627  57.6349602  75.7509613  21.5371113  57.7301102  75.3510742
  20.6516018  58.3017349  76.4374008  80.3424377  28.4612064  59.3962250
  80.0693283  29.2254658  58.8887329  80.8675003  27.9435482  58.7858391
   6.6329432   7.6993928  18.6812649   5.8110261   8.0249510  19.0482750
   7.2159953   7.6165071  19.4358597  26.8248920  22.0375309   5.3789659
  27.4341850  22.7726803   5.4464192  27.3561821  21.2669525   5.5793877
   1.1110898  69.1079025  73.8972855   1.5408258  69.6842880  73.2653503
   1.4228498  68.2312546  73.6724930  21.0482578  35.3032913  86.5890579
  20.2904491  35.8012962  86.2825546  21.6775551  35.3578911  85.8698730
  12.2255983   2.4650798  82.5597992  12.9193211   2.5569696  83.2128983
  12.3332424   1.5769579  82.2193756  72.0544510  45.2353287  74.1855774
  71.3814316  44.5784073  74.0074463  72.8235626  44.9261627  73.7069168
  72.5222931  29.7776356  37.5906029  72.9993973  28.9792156  37.8167229
  71.7248383  29.7377644  38.1185265   2.7347445  20.0440254  59.0749283
   1.9590635  19.8946724  58.5343285   3.4282691  19.5468426  58.6412621
  57.9398918  38.8202782  66.4649734  58.4947662  39.5727234  66.2596130
  58.1254196  38.1890297  65.7697525  53.1263046  37.0433464   3.6577914
  52.5486374  37.2386971   2.9199769  54.0096283  37.1572227   3.3070765
  61.0904083  16.7972202  45.2401581  61.2428207  16.5657425  44.3239594
  61.6099510  17.5894775  45.3766556  77.4477844   8.5000448  69.0307465
  77.1438522   9.2503767  69.5414886  78.1985168   8.8332005  68.5391846
  22.7360210  24.7410011  71.6122513  22.4007854  23.8848076  71.8782959
  22.1674232  25.0068359  70.8895721  82.0559158  13.0282059  48.0052872
  82.5474243  13.7936296  48.3032455  82.5673065  12.2801971  48.3138237
  20.4861660  43.1745491   8.5980196  20.5316505  43.0213966   7.6542463
  19.5753117  42.9897881   8.8270216  25.0891876  35.6743240  20.4706078
  24.2819443  35.1662178  20.5507526  25.3203487  35.6120911  19.5438271
  60.2717667  30.3570633  30.6835175  59.8589249  30.7083073  29.8945808
  61.0082283  29.8393326  30.3582325   8.5313730  59.6477928  19.0940628
   8.5447607  60.0538979  19.9607410   7.7112813  59.1545868  19.0733070
  19.1188316  22.0641403  13.2845993  18.9167175  21.3000622  13.8245687
  18.4439774  22.7036304  13.5123186  34.6183510  53.9799004  10.6824818
  33.6645126  53.9192772  10.6300640  34.8238640  53.7455750  11.5875168
  63.1283836  53.7057228   0.1608265  62.8637505  54.3952866  -0.4480309
  62.4427452  53.6998596   0.8287303   5.5818691  52.8839035  60.8554344
   5.4172406  52.1050568  61.3869667   6.3218384  53.3142090  61.2838211
   4.1814809  56.8644180  47.1450996   3.6914647  56.8967514  46.3234711
   4.3744593  57.7803841  47.3450890   7.1362824   1.9742532  73.6395569
   7.3649511   2.7927902  73.1991730   7.7686658   1.9021468  74.3544922
  49.8445091  34.1543541  71.7710571  50.1373940  34.0377312  70.8672638
  50.0697594  33.3308945  72.2039719  44.1632690  63.0946808  52.6990662
  44.1859474  62.7127838  53.5764885  44.7654991  62.5547371  52.1871986
   1.7799666  66.8511353  36.4930954   2.0899525  66.8512802  37.3987122
   1.9950526  67.7246857  36.1661758  67.1175079  21.5222092  45.7747002
  67.6377640  21.0393505  46.4168968  66.8180313  20.8541775  45.1580353
  59.5349350  22.9998798  53.9250069  59.0556412  23.6150761  53.3699875
  58.8939362  22.3225651  54.1408653  30.3209457  50.5205269  70.7081604
  31.2368946  50.3198471  70.9004974  30.1239204  50.0105972  69.9224243
  23.0081406  46.7391624  53.7716980  22.7551060  47.6147308  53.4791489
  23.1146374  46.2379570  52.9631920  22.0999355  39.3278694  19.1468410
  22.5346203  38.6500473  18.6293106  21.8653488  38.8906670  19.9654102
  54.9805183   2.1381767  18.3422184  54.4200401   2.8999650  18.4897747
  55.3997993   2.3090620  17.4988708  25.7434063  48.6008949  17.1657581
  26.0216694  48.9119301  18.0271873  26.2817631  47.8258209  17.0055695
  32.5296478  54.6209145   4.8109617  32.0570259  54.0387344   4.2160392
  31.8423405  55.0672760   5.3055329  19.8666821   4.9674897  11.6470623
  20.5316906   4.8010206  10.9790173  19.9741039   4.2532220  12.2751656
  67.3349915  17.1178799   0.1151040  67.7814636  16.8601894   0.9216354
  66.6850891  17.7618828   0.3963774  65.6140976  58.9691010  79.2267227
  65.9545746  59.6665649  78.6664963  65.6884766  59.3176613  80.1150970
   5.7716794  39.0884552  43.7503090   5.3167100  38.3600655  44.1730194
   5.3650708  39.1558189  42.8863869  12.2128477   9.5111809  13.5937557
  11.9482603  10.1552067  14.2506084  11.9836550   8.6662655  13.9808226
  44.4730530  37.6218109   0.0047447  43.8099365  36.9575157  -0.1829162
  45.0276718  37.2237511   0.6756983  43.2025909  65.3372955  73.3357239
  43.5798187  65.9691315  73.9478683  43.2896576  64.4932632  73.7787247
  43.8447609  44.1409340  75.6356659  43.7649918  43.1871414  75.6235275
  43.1397629  44.4329071  76.2135620  66.0750809  38.6416245  75.8985443
  66.4072952  39.5137863  75.6859512  66.0780258  38.6108322  76.8552475
  61.3460770  70.5298615  46.9833336  61.5451851  70.5041122  47.9192429
  61.3690300  71.4601364  46.7590790  69.4282455  11.3113766   1.5370988
  69.6592865  12.0885286   2.0459058  68.5204010  11.1280069   1.7788342
  15.5100880  23.5491829  70.9372025  16.4125824  23.5751915  70.6193085
  15.5930557  23.4825382  71.8884659  44.0006218  37.3642464  55.7351646
  43.5334282  38.0465164  55.2530174  44.0004807  37.6692924  56.6424599
  60.5944290  14.1217356  27.6324959  59.7137489  13.7637243  27.5208874
  60.6597328  14.3095722  28.5688114  44.7527351  54.1885071  55.4168396
  44.0364304  54.4020233  54.8188820  44.5198936  54.6264038  56.2355347
  84.3640442   1.6222891  11.3503180  83.7446518   0.9048110  11.4837580
  85.2206879   1.2362843  11.5330811  85.7140808  22.2456589  72.5791245
  85.6377029  22.5418930  71.6721268  86.6288071  22.4097195  72.8084488
  63.9361877  13.1612015  78.5902481  63.1031837  13.0215149  78.1398926
  64.3582382  13.8666325  78.0998688  75.1129456  35.2133484   0.8868581
  74.5240707  35.1645317   1.6399037  75.1451187  36.1446266   0.6679454
  31.5497742  26.5083332   3.0860245  31.7580147  25.7587738   3.6437240
  32.3483543  27.0360641   3.0860388  48.0075226   6.5704856  50.0044212
  48.9330711   6.7954049  49.9095535  47.7176590   6.3687372  49.1147537
  62.0265465  47.0513344  36.4539299  61.3771133  47.7177086  36.2294044
  61.6647758  46.2369614  36.1044235  66.8878403  37.9297867  18.7220860
  67.7925034  38.1971970  18.5598869  66.9530945  37.0122070  18.9867039
  86.4492493  63.2970314  47.2659340  85.5384216  63.5020256  47.0547218
  86.7080917  63.9735107  47.8917160  74.5226212  39.9939995   7.9194431
  73.9265137  40.7294617   8.0608158  75.2776718  40.1874580   8.4750538
  39.5423241  36.7629852  87.4080734  39.7434654  35.8275719  87.4358749
  39.5336151  36.9784813  86.4754868  55.3421364  43.5042267  31.2571507
  55.1736565  44.1146660  31.9749298  54.6524849  43.6882324  30.6193771
  33.9112511  41.5251236  27.5100269  33.7816925  42.3135414  26.9829178
  34.6033592  41.7610512  28.1277332   8.6921501  69.7224274  87.7433624
   8.7411814  70.5682297  87.2978973   7.8236985  69.3856201  87.5229416
  31.0057812  54.1161728  87.2049484  31.8971252  54.0593796  87.5492020
  30.8960075  53.3160095  86.6912155  74.3663330  38.3591270  26.4817772
  73.4962997  38.2655029  26.0938187  74.6742020  37.4604225  26.5991669
  49.6808052  25.2784996  87.3171768  49.9936371  25.0216503  88.1845856
  50.2758598  24.8405895  86.7085953   3.9753826  23.2824326  49.0677757
   4.6328058  23.5071526  49.7262039   3.5827756  22.4705734  49.3886757
  45.3069115  70.7767029   5.4250503  44.3890457  71.0454407   5.3858471
  45.7683144  71.5476685   5.7551427  59.2203598  32.3946953  19.0832748
  58.3269806  32.6913109  19.2568493  59.5818176  33.0558701  18.4930000
   4.1880326  42.7175407  58.7200050   4.4991908  41.9518700  58.2371368
   4.8942699  43.3579597  58.6343994  47.6649971  21.9435253   4.5432029
  47.1520004  22.7514992   4.5588298  48.0255318  21.9058208   3.6572993
  50.8461952  20.9769173  57.3846321  50.4779968  21.7940636  57.7206879
  51.0030708  20.4459286  58.1654472   1.3725246  58.9422607  15.9896851
   0.4562315  59.0746460  15.7465525   1.8233750  59.7178154  15.6557932
  72.9565964  21.6246147   1.7720661  73.5623627  21.3932209   1.0679855
  73.3621902  22.3794823   2.1985631  77.7548676  58.4039841  73.6076355
  77.5915146  57.8404312  74.3639145  77.6245499  57.8327713  72.8506927
  38.6602974  52.5377350  11.9865198  38.1346207  52.4969711  12.7854166
  38.0173836  52.5644150  11.2778711   7.3374968  62.0671425  12.7872200
   6.4099860  61.9495926  12.5819473   7.7640018  62.1427650  11.9336348
  41.8838043   2.0751858  11.6005917  41.4971542   1.2548262  11.9067717
  42.6581154   2.1949239  12.1504412  61.7809677   7.0566115  44.4737396
  60.9866676   7.5079150  44.7594719  62.4959831   7.6214890  44.7668266
  70.5698013  42.5256538  23.1322975  70.8710785  42.3449516  22.2418995
  69.6198120  42.4160767  23.0905743  24.6681061  51.1230965  13.1996756
  25.2642059  50.7692223  12.5396252  25.1143131  50.9693222  14.0324335
  49.3614120  65.1879578  36.0127907  49.7521286  65.5823059  35.2330132
  50.0353622  64.5946274  36.3444328  84.6025314  -0.1721313  22.4964428
  84.1239624  -0.1719726  21.6674652  85.2290573   0.5465342  22.4114494
  83.5403519  47.4131584  22.5426426  83.3654099  47.1792259  21.6311035
  83.3349609  48.3466530  22.5939999  40.4654999  71.5636368  12.1459093
  39.9524422  71.9787369  12.8392315  40.1922226  70.6464157  12.1621656
  72.5379944  57.5546074  40.8728447  71.8820267  57.6576233  40.1834030
  72.1721497  58.0226517  41.6233940  81.9541855  64.1083984  34.7772217
  82.7079010  63.5205269  34.7267532  82.3177643  64.9379501  35.0868721
  57.7123070   9.4310532  16.0940056  57.8820496   8.6078033  15.6360979
  57.1356697   9.1877956  16.8182621  54.1001396  41.2506371  61.3098564
  53.7601967  41.9767036  60.7868843  53.6001740  41.2881088  62.1252480
  58.1196747  21.6734848   2.4651659  57.8580513  20.7796116   2.6860166
  57.2972488  22.1619530   2.4298611  46.6035385  17.9645615  23.6081772
  46.1090279  18.6820335  23.2120399  46.7037811  18.2203693  24.5250988
  55.1702423   7.4775128  49.9624290  55.3408546   7.8716288  50.8178825
  55.8338814   7.8577404  49.3868980  40.4604530  38.8664436  88.8598862
  39.8002853  38.6096573  88.2160873  40.1897125  38.4300690  89.6676636
  16.8494377  63.5027657  42.6208115  16.4955387  64.3880997  42.7054749
  16.3034725  62.9702530  43.1992455  38.4805145  69.6157761  75.0534897
  38.8018608  70.2846222  74.4488297  39.2191963  69.4468307  75.6383286
  29.9533157  69.5991440  13.9642849  30.9008846  69.7128983  14.0378075
  29.5904350  70.1673584  14.6437578   0.2941031  28.9541893  43.1777344
   1.0035621  28.3268661  43.3168907   0.0180603  28.8067951  42.2731285
   9.6847229  52.0832100  49.4602470   9.1122084  52.0168571  48.6960106
   9.1153049  52.4057274  50.1587982  36.6612892  55.0510254   4.7680192
  36.2063599  54.3501358   5.2349520  36.3567009  54.9734955   3.8638916
  52.1732559  27.2822895  87.0506821  52.1985703  26.3571758  87.2951355
  52.0577431  27.2758675  86.1004944  43.9941406  52.0780144  15.0658808
  43.4267159  52.4887276  14.4135199  43.9765930  52.6788216  15.8108339
  71.7672348  13.6517448  38.8947105  72.5287933  13.2363396  38.4901199
  71.1807098  12.9247541  39.1037636  45.8574944  45.3742599  37.9551392
  45.6089134  46.0364037  37.3101540  46.3362274  45.8611603  38.6259384
  52.2816772  35.3360939  73.0183105  52.0267754  35.0753136  72.1333008
  53.1832619  35.6443329  72.9268570  10.6969872  43.5683289  35.4412956
  10.6115389  44.0866203  34.6411057   9.9239426  43.0038605  35.4447403
   9.5370302  38.3353462  50.6520538   8.8772326  39.0281906  50.6814117
   9.4594193  37.8946838  51.4982338  16.5429134  55.7735786  18.1193924
  15.7787333  55.2169380  17.9696751  17.1209793  55.2441063  18.6686916
  17.9190693  43.6578560  39.9651070  18.1286697  43.4592056  40.8777046
  16.9729271  43.8029137  39.9627686  13.6964436  62.1304703  53.0332375
  13.0746784  61.9326744  53.7336082  13.5541477  63.0573807  52.8413429
  44.4909134  70.5313492  41.1347466  43.6126938  70.3273697  40.8132553
  44.5326233  70.1171951  41.9967003   4.2058139  44.4755974   4.4522252
   4.6122193  45.1929817   3.9659917   4.6329770  43.6871223   4.1174521
  78.2036209   6.8847837  79.8021164  77.4769516   7.2831368  79.3230591
  77.7871170   6.4294014  80.5338135  14.6803684  50.1050797  77.5319214
  15.2507334  50.5533638  78.1563873  14.3618851  49.3374100  78.0067749
  30.1024342  56.6508636  14.1978598  29.8851166  57.5794678  14.2797070
  29.4050026  56.1988983  14.6727781   2.3184700  71.1808243  60.6571541
   2.2691274  70.2432632  60.4706612   2.9700019  71.5138168  60.0400238
   4.5235100  67.7905807  74.8056488   5.0862584  67.0211639  74.8925552
   4.1865182  67.7410355  73.9111023  74.9715042  70.4584885  78.8961411
  75.7458420  70.9539261  79.1629257  74.2334595  70.9748764  79.2199783
  17.5060444  58.8884506  77.8335648  18.2858086  58.3735313  78.0410767
  17.6782990  59.7487564  78.2162399  64.3216019  60.8243370  46.1414757
  64.0637741  59.9949112  46.5437279  63.8435898  60.8472939  45.3124924
  51.4143562  69.5077286  34.6760330  52.1733780  68.9294205  34.6006813
  51.2896729  69.6176987  35.6186829  56.5263252   3.3349583  78.8372116
  56.1888351   4.0934367  78.3607178  55.8143883   3.0862501  79.4267120
  25.7774658  27.0259418   0.4330100  24.8534222  26.9084702   0.6534053
  26.2000980  26.2225075   0.7365016  86.1807251  64.8495026  72.4141312
  85.4875031  65.5051880  72.4900055  86.1543961  64.3758163  73.2454910
  36.6968193  44.5136986  33.4866714  36.8657417  43.5877342  33.6606941
  36.4116821  44.5376053  32.5732384  80.9168930  15.6643448  23.3484440
  80.4536209  16.0068665  24.1128311  81.6942139  16.2176228  23.2717037
  79.9525757  66.4047089  84.3299332  80.0768890  66.8070068  83.4703217
  79.4038773  65.6392288  84.1590424  84.8170395  66.5318756  68.2489014
  85.7119980  66.7691269  68.0060272  84.5914612  67.1384583  68.9541702
  76.7380066  57.5584450  46.5091934  76.8990097  57.2947044  45.6032372
  75.8742447  57.9704323  46.4888115  83.1145172  51.3089828  74.2806625
  82.8402786  50.6455231  73.6475372  82.2952347  51.6660957  74.6234131
  63.1428604  48.2936287  51.6181946  63.8019562  47.6060333  51.5231323
  62.3688354  47.9463997  51.1748543  42.7612839  35.7008324  88.7046051
  41.9224930  35.2623558  88.8474426  43.2187767  35.1434555  88.0751114
  85.7129898  30.3475208  63.4976425  85.2521210  31.1858883  63.5288315
  86.3638077  30.4576206  62.8044319   0.8417697  40.8257484   9.9078932
   0.8184528  40.4219398   9.0403509   1.2823921  41.6642456   9.7700272
   8.1347284  49.9883270  44.0796547   8.1572428  49.3662415  44.8067970
   8.9131279  50.5311852  44.2046928  79.3414536  30.0085697  27.3007736
  79.7152557  29.2865906  27.8059959  78.5587158  29.6365013  26.8944283
  84.5568771  10.4581671  25.1808167  84.4117661  10.3394108  26.1194725
  85.4257812  10.0884743  25.0241241  73.5108337  56.2874069  62.5313187
  74.1473389  55.6381531  62.2320366  72.6915970  56.0331879  62.1065254
  19.4251919  62.7646179  67.6460648  18.8769703  62.9678802  68.4039307
  20.1703262  63.3605423  67.7227402  70.7405167  70.2890091  29.5825768
  71.1189804  71.1606750  29.4677105  70.6042404  70.2095718  30.5266895
  80.9039307  47.2104721  33.6733704  81.5190048  47.0837898  34.3957710
  81.1581650  46.5543213  33.0244789  51.0776749  40.3778152  59.3060417
  50.1818886  40.4333038  59.6387825  51.6083794  40.8131599  59.9731712
   1.1181446  58.5228539  72.2004852   0.1868019  58.3494072  72.3374100
   1.2340539  58.4732056  71.2516327  35.4113121  12.7807226  11.3128805
  35.7291069  12.0475931  11.8399086  36.1775017  13.3427954  11.1977396
  41.6492920  54.9258423  35.1391220  40.8447533  54.9710579  35.6557541
  41.6987076  55.7739487  34.6980934  20.1170788  36.7824173   7.0943475
  19.4795189  37.3604431   6.6752596  20.6151466  37.3568153   7.6759200
  63.5252113   9.6506662  22.9390717  64.2664032   9.0450001  22.9446278
  63.7273712  10.2701569  22.2379322  39.0017891  15.7990704  71.2370224
  38.7951813  14.8926487  71.4649353  38.9264717  16.2768593  72.0630264
  19.8252735  62.7631645  42.5218506  20.2083321  63.1548424  43.3067665
  18.8870640  62.9352226  42.6017799  14.4869452  42.3640976  15.4035263
  14.1405506  42.5644531  14.5339861  14.7858753  43.2078705  15.7425194
  24.3550053  57.6639557  67.9818344  25.0416088  58.3256836  67.8986282
  23.8861179  57.6991730  67.1480865  38.0918732  57.5864220  45.5197296
  38.6426620  57.0847626  44.9187279  38.4955750  58.4538956  45.5470848
  50.2248802  17.3321323  58.6440468  50.3606873  18.1481056  59.1256866
  50.0342255  16.6831360  59.3213081  71.4482193  39.0740814  21.6654854
  71.1985092  38.6869583  22.5045414  72.4049988  39.0934982  21.6859512
   3.5103292  64.3788681  60.0185890   3.8906054  63.5386963  60.2749748
   4.0451941  64.6682587  59.2793961  30.9901371  61.6886482  72.0972748
  31.6957703  61.2211761  72.5442505  31.4396820  62.2884674  71.5019913
  44.4057541  53.7803841  85.8383484  45.0732079  54.3807373  85.5062103
  44.7572975  52.9083595  85.6588364  79.4047165  33.8069420  58.4918442
  79.3765564  34.3480186  59.2809410  79.9440918  34.3059311  57.8784027
  17.1354332  55.1593628  77.7883682  17.0940685  55.7269554  77.0187225
  18.0338593  55.2511063  78.1056213  81.4328461  31.6245098  59.7073097
  80.6632385  31.2742119  59.2587204  81.7862396  32.2769508  59.1026115
  64.3859482  52.1285973  36.9813805  65.3420410  52.1242943  36.9357071
  64.1906662  52.3474083  37.8925476  80.4698944  22.3685760  31.4724483
  79.9089279  22.0404148  32.1751938  80.1538315  21.9235916  30.6861134
  35.5984879  54.5303535  87.2139282  36.0771370  55.2638359  86.8277512
  36.2763405  53.8914337  87.4342270  39.9656982  66.6552200  40.5468826
  39.2386971  66.9872818  41.0736046  40.3461952  65.9555817  41.0778770
  46.3042793  36.1179161   4.3471389  46.9805183  35.7596664   4.9221072
  45.7096367  36.5816307   4.9367142   0.7737922  59.6858330  89.1909790
   0.0449037  59.0671043  89.1448059   1.4137286  59.3493042  88.5637131
  75.3395233  23.1138611  62.7690697  75.1267624  23.4013691  61.8812027
  76.2464905  23.3906364  62.8995743  69.8517075  26.3550835  53.3423119
  69.3469772  27.1213417  53.6149445  70.0942307  26.5385628  52.4347038
  36.6034508  69.3506088  29.0201225  36.4819908  68.4306107  28.7854271
  37.4875145  69.5599747  28.7187424  42.5692444  39.0114136  21.8985519
  42.3843193  39.4155579  21.0507889  42.2899208  39.6637878  22.5409088
  70.5554276  16.6693134  28.2196426  70.9782028  17.1988182  27.5435390
  70.2725525  15.8776922  27.7618732  77.3058624  21.4275227  83.3284302
  76.5781555  21.0547619  83.8261566  77.7354813  22.0233307  83.9421616
  43.6369438  39.4641228  25.7666092  42.9756889  39.9871178  25.3133430
  44.1557999  40.1041031  26.2538986   6.1190815  52.0694084   3.4031317
   5.9405618  51.7961884   4.3029728   5.7768483  52.9618416   3.3514271
  81.2603226  47.1124382  12.9249821  81.9741135  47.4702034  13.4529343
  81.1682968  46.2089424  13.2274008  84.9650345  10.7596378  59.4912262
  85.4951096  10.4130926  58.7734795  85.5963974  10.9498882  60.1850662
  13.5573015  49.2009010   5.1395335  13.4366074  50.0947914   4.8191905
  14.3803015  48.9137917   4.7439704  12.8167238  67.9506302  77.7401505
  12.7462358  67.4412308  78.5474777  12.3192949  67.4476013  77.0953522
  77.2130966  24.5152493  31.2179775  77.3935547  23.5759029  31.1820068
  77.4202271  24.7646160  32.1186142  18.5588837  20.1230698  83.0553284
  18.8868370  19.2362022  82.9065170  18.2814236  20.1252499  83.9714355
  33.4680786  52.0597839  53.1350288  34.2095261  52.4406662  52.6644821
  33.7074356  51.1408691  53.2555962   8.7467451  12.2439423  74.2016678
   8.8565912  12.8607979  73.4780273   9.3622723  11.5366650  74.0090103
  46.3834534  25.1716118  81.3772354  45.6895866  24.5132179  81.4133301
  46.3211060  25.6314220  82.2144470  36.4298592  60.6135368  36.0355415
  36.0189018  60.2121849  35.2698631  36.4288139  59.9224129  36.6977959
   8.6469812  39.0839272  38.5311203   8.1343422  38.3805885  38.9295540
   8.2051630  39.8874474  38.8056793  78.8858948  50.5112114  33.8811531
  79.8051987  50.3456039  33.6721535  78.4848557  49.6423340  33.9025803
  65.7620392  46.5903130  66.1864090  65.9704132  47.4401093  65.7982635
  66.5944824  46.1178131  66.1894836  17.6938629  66.5131149  25.4609833
  17.4313583  66.8420715  26.3207016  17.1243458  66.9732056  24.8443775
  55.9505043  65.3554077  29.8717079  55.8382301  65.3298874  28.9214592
  56.8534164  65.0712280  30.0139217  71.6407166  40.9542809  40.6091766
  72.2969589  41.5104141  40.1893044  70.8606949  41.5060616  40.6669159
  86.6052856  18.3504848  38.3117790  85.9221573  17.9361725  37.7846146
  87.0240860  17.6246662  38.7744141  53.6543884  68.8019714  29.1673660
  52.9982414  68.2521210  28.7391491  53.2153893  69.6428223  29.2957401
  34.4857330  37.2534981   8.1815662  34.3287086  37.9854546   8.7780704
  33.8934326  36.5656548   8.4853458  33.4191322  61.9426231  25.5045910
  32.8313179  61.4052010  24.9736671  33.0801582  61.8594589  26.3958874
  13.3075476  50.8484077  38.9164658  13.4414206  51.5826836  38.3171768
  12.7263565  50.2544441  38.4414330  81.3354797  58.0272751  32.7776031
  82.0063019  57.6290627  33.3322754  80.8852844  57.2844315  32.3754349
  37.8889999  22.8368683  73.7903366  38.7799530  22.7203007  74.1202545
  37.9987373  22.9832268  72.8507843  76.0760574  40.7191811  81.9716339
  76.0427551  40.6468925  82.9255142  76.2474365  39.8271713  81.6696701
  16.2326088  66.1911240   5.0564747  15.8234186  65.9811783   5.8959494
  15.8150730  67.0083008   4.7842212  76.1787033  50.2325249  45.7201462
  76.1501236  50.4438515  46.6532898  75.2599640  50.2017670  45.4532928
   8.6820765   7.1204686   2.4542649   9.4176493   6.5095043   2.4108245
   7.9294977   6.6110101   2.1537509  46.2359276  49.5383186  86.4384460
  45.6468773  50.0990524  85.9336319  45.6986084  49.2167740  87.1624146
  75.0168686  55.5042534   5.7229586  74.0852051  55.6705437   5.5794921
  75.2404633  56.0368118   6.4862528  78.5576401  61.5206642  25.2364540
  77.9563446  61.1484642  25.8815422  79.4291611  61.3264160  25.5813446
  19.5873222  69.7333679  60.5220184  20.4617691  69.7314606  60.9113426
  19.0641232  70.2771072  61.1109581  37.2122269  40.1837502  22.1914463
  37.5538063  39.2926102  22.2651081  37.1967278  40.3572731  21.2502327
  54.3168526  17.7073040  58.1060562  53.7268486  17.5063744  57.3795891
  53.9295807  18.4768028  58.5233345  33.4427223   3.8369284  39.8722801
  34.1862488   4.4397559  39.8726463  32.6936417   4.3806834  39.6284790
  79.8621674  37.7981300  82.2561722  80.0172348  38.4723587  81.5946579
  78.9097443  37.7080078  82.2876358  83.0467529  56.6255455  88.0956039
  82.4165726  56.1630898  88.6480865  83.5458145  55.9298706  87.6675720
  44.2474289  39.3445129  74.0688934  44.8877869  38.7226105  74.4144440
  44.3366051  39.2767754  73.1182632  51.7801666  59.7949295  89.3613281
  51.6886711  60.3568535  88.5918503  51.3234825  58.9878197  89.1241684
  66.1611328  48.2689323  26.4854717  65.6752853  47.4487114  26.5716114
  66.7873840  48.1034775  25.7807312   7.5360875  26.8753262  83.4119186
   8.3998423  27.2106895  83.6521072   7.7193017  26.1189690  82.8546143
  49.6845131  68.9266891  87.0643158  49.6697311  69.8834381  87.0897751
  50.4473419  68.7131500  86.5269852  19.1571217  65.0157776  19.6119156
  19.9539604  65.3714447  19.2184887  19.4709854  64.4306107  20.3013344
  83.7816467  60.6053848  24.8184681  84.3065720  60.9005547  24.0744534
  84.3163223  59.9300461  25.2359200  43.2487335  69.3466949   8.0179405
  43.6900826  69.9763031   8.5880585  43.9582901  68.9204788   7.5372086
  28.6969395  48.1240616  78.8338623  29.3285141  48.8036461  79.0694733
  29.1601086  47.3014412  78.9919815  58.1167870  49.7697945  49.0762520
  58.4354935  50.6537476  49.2586899  58.1058350  49.7115631  48.1208878
  74.3820267  62.8470192   2.5049710  74.4774094  61.9092255   2.6713145
  74.1022034  63.2119370   3.3444760   9.3022814  48.1517372  24.8252983
   9.9431305  48.6432076  25.3391113   9.3043814  47.2767563  25.2134151
  29.8796692  31.0410709  19.4399853  29.5995102  31.1625519  20.3471699
  29.6969910  30.1200180  19.2541904  58.1679459  33.2015686  22.4176235
  57.4233093  33.7879181  22.5515709  57.7894020  32.4232330  22.0088062
  14.3126965   4.7477331  78.2742920  15.0080147   4.2466173  77.8480911
  13.7864828   5.0897751  77.5515671  80.9348145   8.9583702  54.3687935
  80.2152405   9.5410080  54.6116447  80.6935806   8.6275940  53.5035629
  28.2939358  55.4737511  73.7177963  28.0091209  54.6984062  73.2341156
  29.2178497  55.5732765  73.4882050  11.3474617  18.4259491  88.7772675
  10.9595222  17.7055798  88.2804794  11.1853533  19.2017021  88.2404633
  73.4876480  36.3878860  81.4176178  73.8104324  35.4887390  81.4774551
  73.8221817  36.8154182  82.2059937  33.8896599  27.8379040   3.2038236
  34.7482681  27.8616619   3.6262739  33.9543037  28.4766197   2.4938273
  67.4438248   1.9687953  10.4812059  66.8363266   2.6791260  10.6876326
  67.7967529   2.1977453   9.6214094  33.0276146  66.4498215  63.4359894
  33.3313446  65.8237152  62.7787437  32.3355217  66.9428329  62.9953232
  68.6599350  32.3158760  56.8573303  69.5710068  32.6054573  56.8090820
  68.2307816  32.9668732  57.4125443   7.0368924   4.0037470  87.7980652
   6.8112731   4.5711188  87.0608978   7.9931278   3.9628417  87.7849121
  73.6551208  65.3991089  86.7306671  73.4054031  64.4794922  86.8211060
  73.9973907  65.6401215  87.5914764  26.5884857  45.6201172  66.7480011
  27.3191280  46.2217331  66.8910294  26.9853230  44.8569069  66.3281708
  21.3973083  54.9581146  37.8016548  21.7451763  54.2384949  38.3283157
  22.1476707  55.5350418  37.6590271  37.6786537  66.3765640  58.0138016
  37.8487549  65.8254471  58.7777214  36.9337845  65.9607925  57.5795975
  75.6614914  38.2802849  64.4829636  76.3168411  38.7394104  63.9576454
  75.8057632  37.3539543  64.2897491  66.7938843   0.6394651  46.9942360
  65.9963760   0.8322417  46.5012398  66.4858322   0.4317852  47.8763962
  34.3823433  59.9774399  56.1927795  34.1227875  60.5943413  56.8771019
  35.0122833  59.3969841  56.6199608   4.1612496   8.1148796  19.6530304
   3.7071168   7.7974005  18.8725166   3.5091348   8.6459026  20.1101875
   2.9762263  33.5150681  41.9509392   3.6620996  32.8542900  41.8551216
   2.7758000  33.5182648  42.8869133  77.2811432  33.3431931  82.7809601
  77.8065186  32.8270111  83.3923187  76.3755493  33.1178055  82.9938812
  40.8458557  36.0119057  17.8237553  40.2313995  35.4048500  18.2362595
  40.8224182  36.7909126  18.3794804  33.3431892  63.2847328   1.5023634
  32.5535355  63.5754166   1.0460907  34.0610161  63.7108803   1.0340054
   9.7720366  34.2073822  39.4846497   9.0250759  34.6198540  39.9184113
   9.3925962  33.4747467  38.9993629  81.2944717  43.1593933  54.9245033
  81.3203812  42.7356834  55.7824249  80.6543121  42.6516724  54.4258575
  17.3072681  45.5784607  43.8094444  17.6390247  45.5780449  44.7073135
  16.4884491  46.0719337  43.8568840   9.9032040  17.1113663  27.4770679
   9.4327374  16.6083851  28.1418266   9.4153509  16.9548836  26.6685238
  42.1641998  35.2296104  55.2873726  42.7875633  35.9303703  55.4786530
  41.8837471  34.9171333  56.1475677  60.1028175  46.1857452  16.9050694
  60.5533180  45.5886002  17.5023136  60.2093887  47.0492287  17.3041573
  38.1113091  12.7312279  14.1356335  37.7003632  12.4412107  14.9500322
  38.0075912  11.9906893  13.5380735  70.7567062  63.6633606  48.6697083
  70.1617432  63.3721313  47.9787445  71.5378113  63.1216431  48.5572472
  73.3117599  50.2300568  46.0557137  73.1736832  49.2837677  46.0969849
  73.0012131  50.4796829  45.1853828  74.6589432  37.3333511  29.4772549
  75.6048203  37.3708000  29.6191425  74.4555054  38.1404800  29.0046158
  78.5595932  62.2564583  75.2768860  78.9953384  61.8221817  74.5435638
  78.8074036  61.7390976  76.0431519  78.9589386  30.8804436  58.0243034
  78.0768738  30.6634960  57.7224159  78.9900131  31.8369541  58.0055542
   6.1821060  33.5715790   3.7933648   5.4470930  32.9744072   3.6541708
   6.6763387  33.1793900   4.5131941  84.7604752  18.5242672  71.3619690
  84.7393188  17.7509594  71.9256897  84.7675476  19.2636528  71.9698257
  72.2946701  41.3588676  78.2665787  72.0821762  40.5478210  77.8047562
  72.7122192  41.9093552  77.6041183  65.1380920  24.4622478  68.1254196
  64.8918076  25.3498135  68.3858109  64.3602524  23.9348087  68.3070831
  39.6108322  66.1600952  20.1136589  40.1624603  66.7474442  20.6303387
  39.1765671  66.7333221  19.4819469  67.6115723  50.6675491  37.6443329
  67.3573532  50.3934517  38.5255127  67.6825867  51.6204262  37.7010460
  25.6956768  48.0399017   1.0821381  25.1180000  48.0890808   1.8437833
  25.6178455  47.1347961   0.7805420  74.8990707  45.4804001  89.1092224
  74.0161667  45.2858467  88.7948151  74.8907166  46.4223938  89.2789688
  55.3093262  33.1715317  41.1588707  54.7987785  33.3880692  40.3786850
  55.7007637  32.3208580  40.9604683  22.5907612  58.5210800  73.9718094
  22.4566097  59.4269905  73.6933060  23.4763165  58.3085442  73.6771011
   6.6043773  54.6497574  36.1151581   5.9195461  54.3630829  36.7193604
   7.3549566  54.0930252  36.3223076  48.4642296   7.1618366  84.7630768
  49.3206863   7.2300978  84.3411102  48.6206169   7.4329109  85.6676712
  62.8965073  10.6131725  78.7406769  63.5828857  11.1749144  78.3807297
  62.7719994  10.9303408  79.6351776  81.2057571   6.1584120  66.3992310
  81.9782028   5.7497158  66.7897873  80.7152481   5.4294167  66.0195007
  62.4379387  47.9249344  40.8055916  61.5430717  48.2183762  40.9768829
  62.3484612  46.9966316  40.5900002  83.2548294   3.4585185  39.5288506
  83.2135391   2.5047214  39.4595871  84.0291748   3.7021949  39.0216560
  69.3176498  34.8868752  38.8035164  68.8488541  35.0479774  37.9846687
  69.7964096  35.6990128  38.9691849  13.3308172  69.8300400  12.2511196
  13.5518866  68.9339676  11.9972973  14.1727352  70.2340775  12.4612560
   3.4830709  54.4845543  14.7086430   2.6497567  54.0756721  14.9423838
   3.4974830  54.4688301  13.7516804  37.2613564  24.4881878  22.5580826
  38.0139046  25.0772419  22.5041084  36.9280853  24.6062603  23.4475899
  71.3944473  27.7037754  31.3322678  72.1586914  27.5767536  31.8944302
  71.7563477  28.0163116  30.5030651  45.1855927  70.1691666  35.4634476
  45.6030846  70.5809631  34.7069092  45.8115578  70.2896576  36.1775055
  64.0924530   4.0727482  47.7562523  64.6433411   4.7971044  48.0530052
  63.4028625   4.0099506  48.4171257  65.6897202  33.4230499  55.1294708
  64.7658081  33.6005287  55.3058701  65.7478256  32.4682426  55.0948143
  66.8402634  31.4286804  37.4978676  67.6183853  31.9388790  37.2732506
  66.1065140  31.9709644  37.2084312   5.6886783  44.4843979  10.7388544
   5.8781691  44.7593117  11.6359329   5.1755352  45.2039337  10.3711805
  19.3496456  30.5785313  20.3545990  19.9409599  30.1258335  20.9559650
  18.4840317  30.2239170  20.5575638  45.3616028  25.3003674  88.4635162
  45.5641251  26.2150593  88.2671585  45.5824509  24.8284531  87.6605530
   3.6007426  66.6541977  80.4377823   4.0153537  66.4389420  79.6023178
   3.0291638  67.3954391  80.2375565  51.1185799  65.5349808  84.2008286
  50.9827576  66.3439713  83.7075577  51.7059288  65.7850800  84.9140625
  65.2412872  29.9389992  50.2691078  66.0001526  29.7720833  49.7101021
  64.7917938  29.0954933  50.3208961  61.3307114  30.5653820  35.2536621
  62.2213440  30.7722187  34.9704285  60.7695122  31.0836887  34.6769066
  84.5745316  34.0122528  14.8413467  85.4795303  34.1942329  14.5881834
  84.0474472  34.4082642  14.1473846  56.1530495   3.0255368  31.3634319
  56.5749550   3.6824808  31.9171963  56.1567459   2.2280087  31.8927402
  20.0582199   4.1759768  88.9572067  20.8438663   4.7206135  89.0058060
  19.4510136   4.6793361  88.4148407  80.9284973  22.6245461  56.1842346
  80.2432175  22.8402920  56.8167496  81.7459793  22.7350712  56.6697617
  68.2184067  34.9813805  63.9421425  67.3896103  35.4514084  64.0338135
  68.3557587  34.9201927  62.9968262  75.9533691  67.2536850  46.3932762
  75.9109879  66.3153763  46.5777283  76.3945389  67.6279907  47.1558342
  17.2766228  30.6477165   4.7642670  17.5353603  31.0427799   3.9316730
  17.5134659  31.3005638   5.4229989  57.9406853  18.9520817  28.7303543
  57.5139160  18.3863049  28.0869312  57.4416885  19.7683563  28.6998768
  85.5690536  55.1153107  36.3374557  85.3187027  54.2274323  36.0820541
  84.7425613  55.5410156  36.5653267  81.1016159  47.9585686  27.2331829
  81.7126312  47.8776093  27.9655323  81.2211304  47.1523170  26.7312851
  40.8222885  52.5407333  16.3888016  40.8857231  52.0905724  15.5464449
  40.0007973  53.0294075  16.3379536  64.5547256  61.0428543  10.9907732
  64.6553955  61.5557137  10.1888542  65.0539551  60.2426262  10.8275604
  67.4467316  14.5572500  38.4556694  67.2700119  15.2453918  37.8142204
  66.6186218  14.0834513  38.5329475  48.4167175   0.7205362  40.8597641
  47.8400726   0.7123296  41.6237297  48.3285294  -0.1552658  40.4836998
   4.7787642  12.5153818  -0.1221444   5.4046068  13.2002544  -0.3577332
   4.9104099  12.3832903   0.8167129  84.6131592  59.4147034  45.0601120
  83.9268570  59.6631889  45.6793709  85.3797913  59.2450676  45.6075859
  61.2102356  18.6191883  62.1309242  62.1214561  18.6540394  62.4219513
  60.9695473  17.6959000  62.2073402  24.2985573  17.0300312  77.2486343
  24.4245682  16.2248249  77.7506256  24.4355793  16.7685394  76.3380966
  68.5781479  58.2819710  23.4567146  68.3257751  59.1859779  23.2688160
  68.7188721  57.8886452  22.5954800  72.7364197  51.7397346   5.7432089
  72.9014130  52.5159988   5.2080274  72.5998688  51.0360641   5.1088338
  81.4185944  54.8911057  34.4851418  81.5756912  54.2711754  33.7729340
  80.7496033  54.4706802  35.0254402  18.1761189  49.0034370  75.9318466
  17.8933067  48.1506996  76.2621307  18.0373440  48.9520302  74.9861526
  65.1739120  44.4515495  56.7022247  65.7355576  43.7143173  56.4629135
  65.7703552  45.1979103  56.7607765  71.8303757  62.4745064  65.9253616
  72.2101059  63.2272453  65.4721298  71.2599487  62.0657425  65.2743912
  83.2853241  44.8985252  86.4267731  82.9282990  44.0368919  86.2114639
  84.0601807  44.7111435  86.9565964  67.6101151   7.8416181  80.2032547
  67.8106155   8.7549496  80.4078522  67.1842270   7.8759689  79.3467102
  11.9936142  58.9914742  40.0608673  11.2846546  59.3666611  39.5385208
  12.1776123  58.1491776  39.6450424  24.0865440  19.2060242  73.5572433
  25.0209312  19.3336639  73.7211380  23.7021961  19.1053047  74.4280853
  51.0869865  30.1621017  10.7726736  51.1912346  29.2227039  10.9239902
  50.1591377  30.2694759  10.5633888  66.7796936  40.9948158  15.5461941
  67.7179184  41.1775513  15.4955359  66.3651581  41.7559357  15.1398830
  58.5484352  23.5293922  63.3801765  58.7747459  22.6377983  63.1154594
  58.0769958  23.4216042  64.2062302  30.3359528  65.3720093  25.0266514
  30.4199295  64.4187851  25.0033703  30.4438305  65.6442795  24.1153545
  22.9379883  49.2161140  10.1033316  23.7759762  49.5841637  10.3835936
  23.0909710  48.9308357   9.2025290   5.6003675  55.5903854  16.3561935
   6.1183691  56.1487770  15.7764482   4.8285823  55.3591690  15.8393583
  65.4485245  13.5766783  19.6081657  65.9958725  12.7914171  19.6062183
  65.5647354  13.9518003  18.7352333  49.8499451  15.2555723  80.1788788
  49.1266098  14.6572742  79.9916306  49.4991112  16.1242962  79.9827499
  53.8434029  68.0960388  81.6528473  53.4347343  67.2341614  81.7327652
  53.2552681  68.5877533  81.0796585  19.3957157   3.0511758  17.5132446
  19.9492073   2.6307180  18.1713428  19.3261261   2.4049606  16.8105392
  79.6435165  30.9486542  68.4005051  79.8068619  30.1535416  68.9077988
  80.4437103  31.4645271  68.4994812  78.7090073  28.3931732   4.9464879
  78.5505371  27.4491882   4.9431009  79.1628571  28.5568790   5.7731967
  69.4900970  48.9989395   6.2826896  70.0862885  49.1295891   7.0200639
  69.7722778  48.1728745   5.8899860  69.9773026   9.7457638  43.8968773
  70.3726807  10.3597860  44.5156555  70.2673950  10.0516195  43.0375023
  32.6960297  45.1281929  43.9222107  33.1790390  45.9008904  44.2152481
  33.2705269  44.3922768  44.1334229  70.7403793   2.5527663  38.8312111
  71.3476181   2.9573336  39.4507408  70.3844681   1.7992241  39.3020935
  14.0324106  45.6394310  44.1435432  14.3871670  46.4987297  44.3715439
  14.7139587  45.0212631  44.4073448   2.5401795  61.5318871  43.6318054
   2.0040159  60.9461365  43.0973358   2.0276351  62.3381042  43.6913528
  38.2590866  32.4955254  12.8552713  38.1800079  33.4461060  12.9351339
  37.3557205  32.1790428  12.8570728  50.9593506  29.8486633  43.9087410
  51.2502174  28.9370804  43.9341164  51.2479477  30.2155075  44.7444267
  33.8075752  50.6605453  67.0927277  34.6027832  50.8674507  66.6017380
  33.3737450  49.9845161  66.5721512   5.6206980  33.0390968  59.5225449
   5.8984456  33.4297562  60.3510818   4.8197007  32.5619736  59.7393188
  84.3658600  52.5586739  36.3384781  83.9092407  51.8316154  35.9152603
  83.9026260  52.6827126  37.1668892  29.9006386  18.5064487   3.5826945
  30.8022709  18.4557972   3.9000695  29.8058777  17.7466488   3.0082772
  50.6094589  31.6793976  63.3521576  51.0645447  31.0368214  63.8964233
  49.6804886  31.5177345  63.5168190  66.9276886  38.7850456   4.8317814
  67.8002853  38.5918694   4.4890251  66.7693710  39.6960182   4.5841889
  79.1575241  27.6467056  37.1711693  79.9522400  28.1754379  37.2426453
  79.0765457  27.2195377  38.0239296  21.6345577  42.2985840   2.6666968
  21.6412907  42.2117157   1.7134707  22.4730873  41.9314842   2.9465842
  25.8486652  57.5936623  48.8063469  25.9811115  56.6590233  48.6477776
  25.9337406  57.9975357  47.9427032  81.4733887  30.9423199  74.4519196
  82.1917267  31.4744701  74.7940369  81.1864090  31.4050255  73.6646576
  46.7988167  27.0843334  52.5977592  46.1130257  27.5184193  52.0903206
  46.3846092  26.2866650  52.9269867  22.6896572  26.3762131  41.8422394
  23.1856632  26.1618862  42.6323509  22.3566074  25.5339108  41.5326691
  11.5231314  36.9261780  11.5351639  12.3065805  37.3295326  11.9089880
  10.8058538  37.4984512  11.8076458  31.3915558  68.8347168  73.5265961
  32.2619095  68.9581299  73.1477966  30.8300705  69.4363708  73.0377350
  72.5428619  52.3657227  83.8281631  73.4061966  52.2118034  83.4445038
  71.9326324  52.2463837  83.1004181  44.6787262  60.3174744  68.5646973
  44.9193649  59.4760933  68.9525146  43.7287865  60.3673935  68.6712723
  31.8287201  33.5994110  68.1635590  31.2742729  33.4892006  68.9360123
  32.7165451  33.6705666  68.5141830  35.7744331  67.0083160  31.9525223
  35.9063225  67.9411469  32.1218338  34.8704071  66.8419037  32.2194939
  13.1720533  41.6326218  45.8334007  12.8220463  42.5176201  45.7309036
  12.6445379  41.2458839  46.5322495  64.0869675  37.6903343  59.7958565
  63.6976509  38.4688416  60.1940918  64.8342514  38.0236282  59.2991600
  29.4332314  39.5539551  19.6262074  28.9205284  40.2436142  20.0477943
  29.6326962  38.9385452  20.3317013  28.4981384  -0.1374906  15.2238741
  28.1916275   0.7569521  15.3730583  27.7865887  -0.5569650  14.7401686
   3.1106818  44.0879974   0.9665492   3.0426147  43.1379013   1.0609901
   2.2361186  44.3647766   0.6931182  76.7817688  30.2752056  81.3059540
  77.3302689  29.5465927  81.0152588  77.2130356  31.0544510  80.9552155
  15.9434795  57.9853210  51.5793839  16.1721249  58.5886421  52.2864571
  16.0253582  58.5086708  50.7821159  12.7086515  40.6805878  35.6701202
  12.8074341  40.7919617  34.7245712  12.6234303  41.5718575  36.0086594
  70.6498795  45.6313171  10.2695169  69.7138519  45.7852516  10.1414814
  71.0473099  45.8596840   9.4292021  17.0000381  34.1225014  44.3713531
  17.8299103  34.1358871  43.8945274  17.0779228  34.8333282  45.0076675
  46.2650108  43.5330696  10.2758207  46.3103333  44.2804832  10.8720999
  46.1714058  42.7734261  10.8506355  81.3062897  42.9294662  82.7043839
  80.4195938  42.5721169  82.6563950  81.1793518  43.8640976  82.8674393
  50.1433525  22.0396042  20.5899048  49.9730492  21.6275368  19.7428932
  50.9025536  21.5705738  20.9361076  82.6707230  35.8641319  57.7257538
  82.2931366  36.6905937  57.4247322  82.5304184  35.2577553  56.9985313
  38.5065994  40.7778816  81.7123947  39.3157921  40.6368141  82.2038574
  37.9649124  40.0162811  81.9191895  83.4159546   2.9708414   3.1449587
  83.7828445   3.8532379   3.0902076  82.7123566   3.0435891   3.7898581
  43.6603851  60.0428085  59.8120766  42.7301903  60.0316277  59.5865974
  43.9572906  60.9173660  59.5606270  34.1145554  67.5606232  15.0213881
  34.7806778  67.3808212  14.3579245  33.3006935  67.2329941  14.6386013
  66.5463486   8.8155565  16.5844688  65.9996796   8.1573591  17.0136089
  67.1480789   8.3086586  16.0393009  76.0988083  69.9102249   7.3430371
  75.4525299  69.2522430   7.0868959  76.7106400  69.4379044   7.9076681
  56.3050575  11.8212156  -0.1191300  56.2091370  10.8791170   0.0204462
  57.1438522  12.0393572   0.2871607  58.4686432  45.7367516  88.4398956
  59.1231499  45.1793938  88.8608551  58.0659065  46.2200356  89.1613388
  55.2468796  16.4126778  37.5839119  55.2285728  17.3695679  37.5999260
  54.6602325  16.1738739  36.8662453  58.7321281  30.2698860   0.3796851
  58.6389694  29.3176498   0.4079654  59.1075745  30.4991627   1.2298051
  84.8310318  21.0800133  58.4920692  85.0719986  20.2111874  58.1706581
  84.2207260  20.9092407  59.2094231   0.9356290  29.2483501  13.1803179
   1.4493089  29.1899185  13.9858932   0.0763368  29.5584278  13.4661503
  34.3477974  36.7557335   5.5180020  34.5173759  36.9436340   6.4411321
  34.6120262  37.5529709   5.0588374  44.7481689  21.5529423  44.1332970
  44.0026512  21.2641792  43.6069412  44.4172401  22.3043442  44.6253510
  72.1989594  32.4667816  13.9499149  72.1390991  32.4807854  14.9051390
  71.2939987  32.5586166  13.6518517   0.8297383  24.1325550  34.3950806
   0.8783324  23.7408924  35.2671318   0.0243423  23.7784443  34.0180206
  64.1059418  15.3854246  88.1893997  64.8554611  14.8935719  88.5248566
  63.6799850  15.7359486  88.9716568  80.1558990   3.8830678  70.9836502
  79.8782959   4.7698884  70.7540436  79.7682114   3.7261102  71.8446350
   2.1070373  38.3790512  58.5890160   1.9724662  38.4987488  59.5291214
   2.3064115  39.2562866  58.2619972  64.1343460   1.9947227  15.2685595
  63.3636017   1.4851629  15.5186348  63.9653969   2.8705840  15.6157713
  77.3216858  57.6507111  16.8473511  77.6511002  57.2648926  17.6590557
  76.9000778  58.4646797  17.1229057  80.1465149  13.7835817  45.3365097
  80.5659409  12.9503708  45.1218567  79.8461380  13.6750650  46.2388573
  54.1400452  53.7760582  64.1964111  54.9724388  53.8500595  64.6631851
  54.3080368  54.1745834  63.3424873  31.9942665  35.9151535  62.0805740
  31.4709606  35.3829308  61.4813042  31.7732258  35.5833931  62.9508095
  49.6231995  64.6831360  62.1422386  49.8498383  63.7736588  62.3364677
  49.0854721  64.9596786  62.8842659  38.9295883  56.8113251  15.1211729
  39.6028976  57.4175758  14.8123894  38.9050293  56.1222687  14.4572239
  39.9624176  11.8051004  47.0536156  39.0886612  11.7713118  46.6642113
  40.4825134  11.1971684  46.5281143  62.9425201  54.6386414  27.3862629
  62.0120888  54.8484497  27.3055782  62.9944801  53.7023964  27.1939659
   8.7037268  48.1255760  52.1672401   9.0274487  48.8915558  51.6932030
   9.1623383  47.3858757  51.7688065  53.0367775  44.6999130   6.8526301
  52.2627029  44.4041481   7.3317561  53.3190956  43.9318123   6.3560934
  76.1514969   5.4733782  46.0591545  75.6759415   5.0443630  45.3478012
  75.8557892   6.3833003  46.0303612  61.3928795  55.4132042  81.4538727
  61.2537117  54.7678261  82.1469421  62.2268906  55.1621971  81.0568161
  81.1520538   8.7686291  39.4680786  80.5966949   8.6261663  40.2345695
  81.6014786   7.9333549  39.3393555   8.9525547  35.4901886  82.2868423
   9.0218830  36.2646370  81.7285767   9.8530903  35.1785088  82.3769684
  15.7198124  36.1552544  73.5211182  14.9676657  36.6386490  73.1793060
  15.9812784  36.6409721  74.3033905  27.0120716  70.1638107  10.4556837
  26.3137970  69.5447006  10.2427502  27.4133854  69.8087006  11.2488260
  34.0710945  42.5801926  69.3043518  34.7943840  42.6264915  68.6791000
  33.5085907  41.8822556  68.9686432  71.4151459  13.9964037   7.1820102
  70.5494080  14.3406982   6.9624929  71.7720795  13.6953030   6.3464465
  35.4433365   7.4747806  79.1198044  35.5035973   8.3684244  78.7821655
  34.7575417   7.5162907  79.7862854  59.6796913  43.1016960  85.9789429
  60.2214622  43.8907700  85.9878464  60.1551208  42.4785233  86.5283508
  15.9296474  21.6799126  78.8345337  15.6199732  21.1318855  78.1134186
  16.4590664  21.0912285  79.3724899  59.2375374  28.6776333  41.4365959
  58.8276520  28.6043301  42.2984886  58.8913689  27.9343147  40.9427567
  83.6357956  10.2159071  74.1179123  82.9851532   9.9890661  74.7823257
  83.2929611  11.0102177  73.7083206  54.3434486  51.8813133  37.2618446
  55.1606331  51.4566917  37.0008202  53.7500076  51.1570282  37.4605103
  53.2583618  22.9628792  61.7293434  54.1270294  23.3015404  61.5126495
  53.3014603  22.7753334  62.6669998  76.6219330  55.3365822   3.5175407
  75.9250565  55.7868996   3.0402429  76.3106155  55.3044968   4.4221320
  35.0191917  53.2768402   5.9690170  34.8825493  52.6599808   6.6880770
  34.1914330  53.7526932   5.9011045  35.0122643  58.6034584   5.4092531
  35.5819893  58.7766380   4.6598182  34.5182190  57.8226852   5.1591654
  71.7319260   6.9112725  70.3152084  71.0947189   7.6251421  70.3395538
  72.5812607   7.3499284  70.2658081  67.7562485  41.9353600  64.9818039
  67.3893433  42.5197296  64.3183899  68.6616516  41.7962341  64.7041016
  86.5576477  39.9308929  75.0567398  87.0555649  40.5419769  74.5137100
  86.4130173  39.1717033  74.4919815  14.6519938  69.8612518  46.9889603
  13.7090826  69.7050018  46.9366493  14.9439907  69.8715973  46.0774422
  26.3479195  47.0300102  56.2927475  25.4935684  47.4520912  56.3831100
  26.9303398  47.7292709  55.9960060  66.4236069  24.3434029  31.4680862
  66.5897293  25.2860470  31.4755573  65.5720901  24.2468719  31.8945065
  45.8113136   9.6294785   2.8537009  45.0265617   9.1172075   3.0485735
  45.5879402  10.5209732   3.1212354  53.7165947  64.0124893  57.9482727
  54.2868881  63.2644081  57.7711639  52.9986763  63.6489410  58.4665985
  22.9266376  54.6779785  49.8834534  22.0123920  54.7291145  49.6045761
  23.4296856  54.8614883  49.0900459  38.5132980  38.4505272  68.4169464
  38.9613609  37.9359360  67.7456284  38.0577698  37.8008919  68.9523926
  13.0945644  50.2084198  23.7611523  13.5048876  50.4340324  22.9263077
  12.7501535  49.3253365  23.6278400  10.5174446  52.0204811  62.7360458
   9.9470568  52.5375290  63.3048630  10.0464859  51.9727859  61.9040871
  83.8584061  49.7912979  30.0354748  84.0487518  49.9598465  30.9582920
  84.1220474  50.5942307  29.5860062  58.2998238  27.6604557  59.8845596
  58.4596138  28.2271671  60.6392403  58.3547058  26.7719440  60.2363663
  85.6351013  30.1249771  20.4040737  85.6583328  30.3984547  19.4870682
  84.7271194  29.8606892  20.5522652  30.4094887  31.0635319  12.7150688
  30.5980377  31.0489635  11.7767353  30.1893139  31.9763241  12.9009829
  60.5098839  44.5640182   1.0166076  61.1777992  45.0656967   0.5492341
  60.9553680  44.2452011   1.8015487   0.1926230  24.3121891  52.4465561
   0.7091486  25.0313187  52.0828476   0.5362139  23.5290947  52.0165062
  75.1532059  20.3603477  21.4529915  75.3749924  19.5402813  21.0119305
  75.9840775  20.6712914  21.8124371   0.1092003  58.5984268  30.4141788
   0.8748213  58.2820282  30.8937073   0.2795829  58.3558960  29.5040245
  81.0475616  13.5849438  55.2975845  80.4425278  14.1814251  54.8567047
  80.9143524  13.7547474  56.2301369  83.5822372  13.7003136  68.3008423
  82.9003830  13.0907907  68.0183945  83.5790863  14.3883457  67.6353912
  65.3962936  49.1755066  62.7235336  64.8901978  49.3370438  63.5197792
  64.9188538  49.6420288  62.0375023  50.1352959  54.2179642  11.8505259
  49.5749092  54.9231682  11.5266676  50.5960159  53.9020195  11.0732546
  72.9661789  44.5825577  37.8406754  73.2171555  45.1492767  37.1112404
  73.4056244  44.9625702  38.6014099  50.6636353  42.9497375  84.4175797
  49.8549080  43.1365891  84.8943176  51.3246536  43.4948387  84.8443680
  57.5217781  43.0301170  48.0100861  57.0403633  43.8502350  48.1190910
  57.8420067  43.0583839  47.1084824  73.1924896  51.8863716  60.1300011
  73.2184601  50.9427910  59.9712143  73.8910217  52.2411118  59.5800476
  77.6006393   3.1319783  45.5130692  78.2414474   3.5975125  44.9756012
  77.2351303   3.8052256  46.0869827  62.7194176   9.3769722  88.0541382
  61.8915710   9.3421555  88.5334015  63.3917885   9.3206911  88.7331009
  24.9974022  11.0859423  86.6000061  25.8197994  11.5651684  86.7011795
  24.8321743  11.0901260  85.6571884  66.0305328  61.6155052  85.7525253
  65.3258667  61.9369583  85.1900787  66.7057571  62.2919922  85.7008133
  56.9361420  30.3951893   5.4485068  56.4159660  30.8045120   6.1399560
  57.1296196  31.1084938   4.8402348   7.4336343  58.2267342  80.0319061
   6.9750481  59.0669289  80.0325546   6.8983502  57.6612740  80.5886459
   8.0234985  49.6417580  65.2745667   7.8229165  50.1683807  66.0483017
   8.9621058  49.7680359  65.1356354  83.3884964  24.8070736  75.5158920
  83.9654007  25.2436218  76.1426620  82.5048752  24.9971848  75.8310165
  14.8168001  55.9990692  41.1237907  15.6642685  56.0256462  40.6795769
  14.1903439  56.2927132  40.4623070  35.9819565  61.5270882  78.6550522
  36.6792030  61.7499199  79.2718353  35.5175667  62.3515091  78.5104675
  76.5144501  60.7765121  55.5213509  75.9886475  61.4078178  56.0124893
  76.8667755  61.2785339  54.7864532  18.3603230  28.2559376   7.2235279
  17.5463219  28.6445866   7.5438185  18.4154015  27.4119816   7.6717896
  35.1419716  32.6080360  18.4917526  35.9526443  32.4652557  18.9802780
  34.8027992  33.4376678  18.8277645  50.7358322  68.9583054  77.7993088
  49.9742928  69.5226974  77.6660919  51.4516029  69.4131165  77.3554001
  44.6615715  35.0336952  13.5914459  43.7194176  34.8650970  13.5790834
  44.8411331  35.4518318  12.7493343  78.6753387  11.5431108  30.6390362
  78.0049744  11.7454472  29.9864197  78.8785019  10.6188622  30.4950924
  44.5899696  67.5172577  36.4063454  44.5814056  68.4589081  36.2347145
  45.5159073  67.3029480  36.5201111  28.0125656  42.7437477  59.0140610
  27.1544418  42.6042442  59.4145508  27.9080219  43.5414810  58.4954834
  65.4526749  52.5581932   0.9711656  64.5304871  52.8117294   1.0103037
  65.8755646  53.2669754   0.4863745  39.6984444  28.5361519  16.2240868
  38.9411774  29.1213188  16.2051468  40.3061752  28.9101810  15.5861216
  37.7762184  59.4912720  22.0496178  38.4455414  59.1917038  21.4343987
  37.5359116  60.3632164  21.7362480  41.3438530  66.1791687   1.0819153
  40.8945465  65.8817291   0.2907866  40.8497124  66.9493484   1.3627739
  53.2113876  24.2906818  79.6333847  53.8236465  23.5752621  79.4614868
  53.6985855  24.8929996  80.1955948  31.1556168  22.6811390  16.1791229
  31.5329266  21.9680119  16.6942158  31.8971634  23.2541351  15.9841423
  46.0269470  22.9877357   7.8416729  45.7797241  22.1685543   7.4126554
  45.7283325  22.8845158   8.7452259  79.1231079  46.3992500  67.7475281
  80.0066681  46.0404243  67.6650467  78.9307327  46.3492355  68.6838608
  79.0562057  34.3000679   1.9142382  79.4220581  33.8866196   1.1322885
  78.4794846  34.9848328   1.5755352  26.9254513  64.3848648  45.0296822
  26.4189243  65.1894531  44.9187622  27.0967484  64.0847092  44.1370468
  58.5253258  56.6642189  15.9865704  59.4425659  56.4298401  16.1278915
  58.0331116  55.9062538  16.3019180  86.4864502  35.3906364  59.1778450
  87.1435699  34.7136955  59.0160484  86.5036240  35.9342422  58.3901711
  73.0689011  23.8005295  65.6785736  73.9649429  23.4675331  65.7281876
  72.9913864  24.3919640  66.4271851  36.7870598   4.6255131  82.0668411
  37.4050331   5.1523118  82.5736160  37.2029457   4.5263066  81.2104340
  52.8166313  31.3990097  84.5558243  53.6167564  31.9117985  84.4414444
  52.5671997  31.5446663  85.4683990  81.7165756  65.8522263  54.1001549
  82.3951035  66.4376068  54.4365501  81.2516861  66.3749161  53.4467735
   4.9491849  44.0857506  47.3214264   5.6253428  43.7863464  46.7136421
   4.1979280  43.5206108  47.1412582  17.5112324  51.6481705  35.6367722
  17.1018600  52.5112038  35.6985512  17.9709606  51.5409851  36.4694710
   0.3347579  37.8398590  73.4051971   1.1037116  37.4874039  72.9571838
  -0.1498163  38.3023033  72.7214127  13.8350630  63.4621468  83.2242203
  14.2060623  63.9931183  83.9289627  12.9109726  63.3688202  83.4556961
  31.9345512  46.6552162   5.1769285  32.1580620  46.8548355   6.0860090
  32.7789192  46.5199509   4.7468410  77.2017212  65.3117142  87.3292694
  77.5511169  66.0724945  86.8651886  76.9911957  65.6402283  88.2033310
  32.4401283   5.4052601  70.7099457  32.9960976   6.1130857  70.3841934
  32.2890091   4.8485341  69.9461060  27.6076317  38.1073952  88.8204117
  27.5802212  38.9735832  89.2268524  28.4996452  37.7974930  88.9769440
  52.3125572   3.5513515  31.1723957  52.8176613   3.3326039  30.3892918
  52.0795250   4.4726162  31.0575066  82.0688629  39.5341759  74.0019531
  81.6272583  38.6863861  73.9523239  82.5720367  39.5900574  73.1895905
  13.1130123  46.7050323  38.9503021  12.7036657  46.0419159  38.3944740
  13.2140827  46.2761192  39.8000374  46.4895363   5.7630658  47.6308212
  46.0624466   6.1547041  46.8689499  45.8928947   5.0681739  47.9089928
  39.4131012  65.5909348  82.5509262  40.2031021  66.0244827  82.2281723
  39.7317047  64.7868042  82.9609299  29.3572159  54.7763290  83.4473724
  30.1316051  55.3160172  83.6063995  29.3655682  54.6176796  82.5034485
  46.5015411  51.5736084  13.4763622  45.7931786  52.0034828  13.9555998
  46.0963478  50.7924347  13.0997705  37.5840988   0.4881978  60.5386391
  36.7071037   0.6302383  60.1823654  38.1021767   0.1938713  59.7895088
  24.6397476  49.0690575   5.5257645  23.9614315  49.0219612   4.8520412
  24.9960938  49.9538116   5.4454303  27.8666553  62.6721001  36.3728447
  26.9605675  62.8580208  36.6191559  28.1922359  62.1024208  37.0697632
  79.6285858  68.6913986  41.1449165  79.5803146  69.4292831  41.7527275
  79.4405975  69.0742645  40.2880020  82.6260757  13.8163033  81.7773361
  81.6737976  13.7344484  81.8293076  82.9237442  13.7290974  82.6828842
  66.9916763  61.2402611  35.9474487  67.8016357  61.4072037  36.4294510
  66.7406845  62.0951118  35.5974998  61.3837166  62.9003716  30.3793850
  61.7693634  63.4462357  31.0646172  61.8380814  62.0615005  30.4573517
   5.8923140  71.1385498  31.3680706   6.6608124  71.1796417  31.9372406
   5.9403653  70.2726669  30.9629002  79.1306305  39.6191101  40.6752510
  79.4661942  38.8569870  40.2032356  79.6218796  39.6274490  41.4967308
   8.6564178  66.9920959   4.0037432   9.0800285  67.6626358   3.4678688
   7.7748904  67.3312302   4.1590767  32.8863182  53.0867920  30.3843880
  32.4715004  52.3752098  29.8967285  32.2688370  53.8150864  30.3170452
  46.9343376  52.8860779  26.0500736  46.1649475  53.1861572  25.5661068
  47.1061935  53.5833626  26.6829205  48.9583473  49.4793243  16.6321526
  49.7463074  50.0208244  16.5860100  48.9438362  49.1537552  17.5321674
  55.4452705  65.2412949  83.0113678  55.1154480  64.8615494  83.8257675
  54.6586266  65.4344864  82.5013657  76.8998642  38.5351295  80.5101166
  76.2186279  38.1545219  79.9557877  77.5872040  37.8694496  80.5360641
  34.4112282   5.0274897   5.5054741  34.3334007   4.3172240   4.8685303
  33.5334435   5.1127729   5.8775663  40.1141968  62.2223396  23.7047024
  40.1186218  63.1695251  23.5666847  39.3635597  62.0673485  24.2780724
  30.6232910  34.2080078  77.9985123  30.3855896  34.3363457  78.9168015
  29.9085350  33.6838646  77.6370850  55.6775780  62.0747757  87.2318420
  55.5568314  62.8819237  87.7320023  56.1089478  61.4769402  87.8423767
  53.4159355  29.1702309  54.9007988  53.7008858  29.9461040  55.3835602
  54.2284698  28.7641563  54.5989304  77.3162994  38.5127716  75.5871811
  77.3833313  38.9977074  76.4097214  76.5787964  37.9171600  75.7197037
  38.1739120  49.7055397  52.6413307  38.0632629  49.3173370  51.7734108
  38.7035980  49.0697060  53.1223488   0.0018904  21.1458054   4.7462459
   0.8256503  21.4446068   5.1314330  -0.5284250  21.9390049   4.6698756
  44.3176880  14.2687569  79.7150497  43.9615631  13.3802824  79.7108307
  44.2640648  14.5439396  80.6302719  24.5150013  48.5889130  45.8665695
  25.1549740  49.0735321  45.3452110  24.3220367  47.8097267  45.3451614
  83.8337555   2.0496261  83.5284729  84.0331345   2.3833880  82.6537857
  84.1199417   1.1364534  83.5073700  24.3239822   2.4119627  14.6667452
  23.5669117   2.9966421  14.7017689  24.1709785   1.7796717  15.3689060
  60.5550156  55.9181709  30.4590149  60.4735451  55.8271408  29.5096416
  61.1786194  55.2375641  30.7122478  39.8055725  24.8785095  66.3336258
  40.1812363  25.3691998  65.6026459  40.1768875  24.0003700  66.2486115
  45.6842117  11.0533524  81.3404617  45.8634033  11.8497734  81.8403015
  46.4135513  10.4699087  81.5499649  40.8922615   6.5368667   6.4533157
  41.2255936   6.2757783   5.5948553  41.0747414   5.7868361   7.0193424
  44.0573616  35.9278030  41.8232956  43.8830948  35.3737869  42.5841713
  44.6558914  36.6002083  42.1486664  82.2264481   7.5519853   1.5664492
  82.7833710   7.5510540   0.7879461  82.8221054   7.3475518   2.2873032
  66.1250153  60.7794075  62.9526978  65.9643097  60.1967888  62.2104301
  66.0159531  61.6600952  62.5939064  14.2645292  46.1566124  47.5531845
  13.7276325  46.8827591  47.2358742  15.1136570  46.2838211  47.1300659
  32.8861656  59.8046532  85.5339966  33.4648056  59.0719070  85.7449265
  32.6126556  59.6416893  84.6313019  13.7056742  28.1777363  74.8753510
  13.0652971  27.9291916  74.2087326  13.4499617  29.0628815  75.1348877
  44.0482063  47.9965706  23.4576817  43.6888618  48.5951271  22.8028278
  43.7034531  48.3180199  24.2907753  47.3337288   0.4825015  35.9918213
  47.2504120   0.7040865  35.0643578  47.5556488  -0.4486053  35.9966202
  38.6480026  56.3573608  22.2931786  37.8560562  56.8696365  22.1300144
  39.3592300  56.9018135  21.9555988  12.6381454  55.8736496  47.4403114
  12.0158510  55.2719078  47.8488274  12.4652348  55.7964706  46.5020256
  41.9128036  31.3575535  57.7941132  42.4400330  31.6563740  58.5350380
  42.3708115  30.5812721  57.4718590  35.2335129  68.3868713  58.2974625
  34.5400543  68.0805511  57.7130661  34.9079895  68.1945801  59.1768303
  15.5488663  67.0827484   0.8248619  16.3152275  67.6260986   0.6412956
  14.8496284  67.4688416   0.2973856  65.8151016   9.4052782  73.1338043
  65.6775360   9.6057491  74.0596085  65.8994064   8.4522314  73.1050644
  57.8764267  55.9140053  59.9434700  57.1948242  56.5761490  59.8285179
  58.5473633  56.3496704  60.4690857  65.4774017   2.9362783  58.9206543
  65.6268692   3.7821710  59.3429756  66.2643890   2.7879434  58.3963661
  43.7235756  28.2182903  18.2590103  43.8524590  28.0132408  17.3329563
  42.8087502  28.4936295  18.3182945  23.1001072  61.6840858  32.3817329
  23.0174847  62.0743561  31.5116196  23.5680141  62.3420563  32.8959007
  15.1269026   0.9728904  13.4252777  15.5282164   1.7891282  13.7234974
  15.6031275   0.7501176  12.6253939   4.8582416  37.1180305  45.3543587
   4.9736662  36.1781807  45.2143822   5.1576128  37.2651024  46.2515640
  40.1737785  29.9612331  80.8080826  39.3566666  29.7172050  81.2428436
  40.5648270  29.1272831  80.5476303  62.2729187  27.2047443   1.4442406
  62.5575027  28.0309868   1.8348397  62.9410896  27.0074368   0.7878478
  78.4155197   9.5017395  85.3662186  77.6605301   9.6780691  85.9275818
  78.0359573   9.1815529  84.5479050  71.1045990  67.5493469  39.8594360
  71.6145477  66.7433624  39.9405212  71.0377579  67.8815689  40.7546387
  47.3959770  66.8313446  36.9446297  48.1337662  66.2263641  36.8678551
  47.3676109  67.0577316  37.8742409  20.3159866  44.8505325  54.8199730
  19.9847851  43.9525871  54.8049011  20.8826656  44.8838997  55.5906830
  45.6791267  31.3638172  56.0248413  45.9357491  30.6698227  56.6320877
  45.3578491  30.8992023  55.2520866  46.2812729  54.2277946   2.3285439
  46.3177414  53.2871666   2.5021081  45.3473854  54.4374390   2.3400247
  28.3767548  30.2362022  75.4511719  27.4465542  30.1947861  75.2292633
  28.6462307  29.3207359  75.5255737  78.4562531  58.3218422   2.4495049
  79.0466766  58.7012749   3.1004016  77.8606415  59.0356178   2.2214701
  55.5680885  55.6113167   3.3949494  55.3989563  54.7104683   3.6708097
  55.1608200  56.1500053   4.0733137  48.1846619  39.6718025  57.8087845
  47.5014305  40.1303368  57.3197365  48.9526634  39.7080536  57.2386169
  30.9991989  38.0945930  28.3569260  30.6074047  38.6113892  27.6529026
  30.2526741  37.7047195  28.8118267  65.0426254  12.6488543  54.5956383
  64.3712234  13.1466656  54.1291199  65.5921478  13.3155689  55.0076408
  71.4038925  66.7810440  65.5010605  70.6275940  66.4203949  65.9294510
  72.1392059  66.3428040  65.9294205  14.7511978  41.6923828  56.7589149
  14.5629091  40.8119240  56.4340057  14.5778198  41.6429405  57.6989861
   7.8322630  41.1977768  35.0167160   7.9856133  41.7519188  35.7819901
   8.1547194  40.3350105  35.2772598  40.0477867  55.6580315  57.8318405
  40.6631432  55.1697044  57.2849350  40.4343338  56.5304794  57.9069672
  59.6243896  27.2698994  20.6521358  59.5609512  28.2011623  20.4401016
  59.8040543  26.8449974  19.8134403  78.6381836  24.5619011  27.4687519
  78.4262314  25.3493614  26.9675388  79.0640640  24.8895836  28.2608891
  20.0167332  25.5994244  19.6930637  19.8488884  25.3877029  20.6113415
  20.0671120  24.7490444  19.2565441   2.1091411  49.6475945  86.4464722
   2.9168427  49.2836533  86.0839844   1.4796506  49.5969238  85.7271652
  37.3490334  40.6798439  69.8480301  38.0865555  40.1248093  69.5945892
  37.7115822  41.2750282  70.5041885  42.8001556  63.7753105  64.6430054
  43.4300499  63.6291122  65.3487625  41.9669228  63.9191551  65.0916214
  28.8730431  54.1049080  49.8894234  29.6284294  53.6406441  50.2500954
  29.1756229  54.4332924  49.0427589  73.4994507  23.5637798  77.7187119
  73.9859772  23.7650986  78.5180893  72.6307068  23.9374905  77.8665390
  51.5314789  66.0341797  67.2179565  50.8901825  65.7908096  66.5503159
  52.0130424  65.2257767  67.3934708  39.1690979  50.4857445  40.7604446
  39.3658714  49.5673180  40.5760460  39.9681854  50.8257370  41.1630630
  74.2188950  46.2279434  75.7246017  73.9817657  46.3730850  74.8086700
  73.8326340  45.3791428  75.9404068  53.6392212  58.0767937  21.5293808
  54.0908813  58.9176788  21.4576607  54.2556648  57.4419212  21.1644592
  25.9573441  33.7479324  73.0127106  26.7319927  33.4206543  73.4699173
  26.2996635  34.3903351  72.3911209  82.8812408  40.2358055   6.0809560
  83.3086166  39.6884842   5.4221501  83.2946625  41.0937080   5.9844074
  84.2731781  42.2159576  29.7797241  83.9624786  43.0361290  29.3962975
  83.6656876  42.0424614  30.4988060  79.7825775   4.2711039  80.5158844
  80.4635010   4.5574584  79.9071426  79.2622528   5.0575080  80.6803970
   6.5947795  34.5831833  87.6173935   5.7706952  34.1532326  87.8459854
   7.2544885  34.1320152  88.1441345  77.8652725  15.0659962  26.8986626
  78.7353134  14.8799067  26.5456257  77.9851456  15.8545685  27.4278259
  85.8185730  26.7142010  62.1835213  86.6450424  26.9764500  61.7780457
  85.1458282  27.1456070  61.6567078  24.6533909  45.1938171  40.4745293
  24.5922222  44.2391090  40.5065727  24.9022827  45.3876762  39.5708122
  10.9137716  37.7480659  14.9317579  11.5489817  38.4485626  15.0802441
  10.5603132  37.9260483  14.0601950  74.9218826  67.5539474  25.9442978
  74.3776932  67.0228653  26.5257015  74.2957077  68.0507584  25.4176865
  32.3702812  38.3762512  11.7284231  31.4742870  38.6645164  11.9025717
  32.7884674  38.3606720  12.5893011  46.1824265  68.7817764  30.7016106
  46.7196083  69.3194351  31.2834911  46.1345024  69.2837601  29.8880138
   3.0056858  69.9533844  19.9227562   2.3572950  70.1117401  20.6088638
   3.2462771  70.8270111  19.6143360  28.6364765  54.3890686  34.0774002
  29.0077248  53.6733055  34.5932350  27.7254734  54.1330376  33.9333420
   2.9500036  34.9516487  52.3117561   2.2081747  35.1398735  52.8866425
   2.5637224  34.4964638  51.5635414  43.4380951  33.7143364  43.7596855
  43.7406273  32.9983597  43.2010422  42.6365776  33.3810921  44.1631088
  45.6945534  19.2834225  16.0509014  45.1613197  19.2562523  16.8453541
  45.1462936  18.8759117  15.3803959  28.9193192  56.6530876  53.6579018
  28.7231541  57.4496689  54.1510620  28.4366703  56.7543221  52.8375168
  77.1079865   5.2087755   9.1986046  77.9803391   5.3050265   8.8165426
  77.1844482   5.5957861  10.0707340  52.8787193  64.5790710  55.3148575
  53.4899788  63.9278946  54.9705200  53.0777740  64.6234512  56.2500801
  52.3344765  48.6203957  61.6128159  52.3193550  47.9479713  60.9317513
  51.4347687  48.9451523  61.6487732  46.4245758   5.4038897  13.0321102
  46.5008011   4.6649733  13.6357861  46.3005638   6.1648288  13.5994062
  20.3191433  54.2246437  21.0899982  20.7674313  53.9859047  21.9013386
  20.0692520  53.3873825  20.6991329  43.3143883  12.9538965  71.1198730
  43.3927879  13.5198116  71.8878708  42.3929214  12.6951771  71.1060562
  56.4622269  39.8491135  71.1523514  55.7982674  39.2051926  70.9058685
  57.1866684  39.3265076  71.4962997  74.8441544  59.5407944  58.0077362
  74.5615921  59.4149818  58.9135857  75.0418091  60.4753342  57.9460983
  16.3336735  66.3237076   9.8458824  15.8280668  66.1598434   9.0498028
  16.8924103  65.5519638   9.9378567  43.9899292  28.4888401  74.8413315
  43.2606964  29.1087685  74.8296509  44.3464699  28.5551167  75.7271729
  81.0599060  15.8740330   6.7044611  81.9980392  15.7116365   6.6056395
  80.9355240  16.7654648   6.3787160  50.0978584  53.1508217  18.5398884
  50.9601479  53.5111313  18.3328476  50.1013336  53.0533791  19.4921093
  39.2831535  28.4918861  76.9343796  38.7511520  29.0500546  76.3672333
  38.8981209  28.5980453  77.8042755  23.2398663  33.4385681  62.1789131
  23.1947098  34.3843842  62.0388260  23.5338154  33.0858116  61.3390388
  25.6117210  10.5109663  49.9651985  25.1249409  11.1535292  49.4490700
  24.9494781  10.0970755  50.5186996  60.7297401  44.5465508  35.8576622
  60.5219765  44.1429901  35.0149269  60.5123177  43.8754730  36.5046654
  13.1045637  51.3372726  67.2779617  13.1394939  51.8962479  66.5017166
  12.3920765  50.7235374  67.0992966   8.1733246  36.0648117  10.9739656
   8.0746031  36.2640190  11.9049883   8.4899731  36.8808861  10.5866842
  46.8242760  54.3743973  15.2593412  46.8757324  53.4315758  15.4164133
  47.3319817  54.7638664  15.9712238  20.8680897  69.9335785  71.5433884
  21.4851398  70.4645233  71.0398254  20.5026360  70.5386429  72.1888123
  45.1227379  18.8944893  74.2696609  44.3556900  19.3432064  73.9139633
  45.6746559  19.5979290  74.6114120  63.6564102  31.8513374  49.2130356
  63.1667519  32.1063957  49.9949646  64.3245239  31.2464733  49.5355225
  28.8870716  31.6662025  77.5095215  28.5908699  31.1469212  76.7619629
  29.7857876  31.3745289  77.6627121  72.0888672  25.8080921   3.8100538
  71.9812698  26.5263462   3.1865430  71.3219910  25.2526073   3.6701903
  12.8569784  23.3373814  70.9277039  12.7258558  22.7933846  71.7043076
  13.7731743  23.1969051  70.6887817  69.0746536  53.2046700  35.7089767
  69.6205902  53.9885139  35.7704010  68.2791672  53.5008965  35.2666168
  11.6880198  44.5860214  78.4885101  12.1136236  43.8472900  78.0533447
  10.9601278  44.1932106  78.9702835  10.9689693   8.5970840  78.3867493
  11.5046387   7.9823713  77.8853378  11.5963020   9.0722351  78.9316559
  23.9513741  35.9666557  24.4463043  23.8645363  35.7501717  25.3746490
  23.9527149  36.9235611  24.4226151  28.5337009  70.8116837  48.4739838
  28.8949165  71.4830170  49.0528374  28.1247311  71.3039627  47.7622032
  46.4267387  13.3000364  82.9392242  46.6081619  12.8385448  83.7579727
  45.6633835  13.8434696  83.1346664  66.3447266  29.6795826  22.0852127
  66.4504929  30.3849525  22.7235699  67.1916733  29.2336407  22.0785007
   5.8457398  62.3540001  43.5055466   5.6262970  63.0792732  44.0904045
   5.0997529  61.7579956  43.5727501  27.8935184  27.4239674  83.0135956
  27.7081089  26.6634140  82.4627609  28.4622574  27.0858116  83.7052689
  45.7439384  68.0062408  45.7684937  46.3603401  67.5521317  45.1939774
  46.2987099  68.4862595  46.3833466  49.5383682   2.5978022  44.1708488
  50.2237244   2.0469370  44.5490875  49.8451385   2.7867460  43.2840424
  85.6263809  41.9350281  85.3100967  85.7686768  40.9922409  85.2256241
  84.7531891  42.0119591  85.6946030  52.5410271   3.3991733   5.1687207
  51.8095741   3.2306230   4.5747538  52.5609894   4.3518224   5.2597871
  65.7581635   6.6865797  44.9475021  65.3858109   7.2903261  45.5902100
  66.5565796   7.1200943  44.6461182  43.4584198  49.3078384  15.6757259
  43.7451859  49.2528305  16.5873013  43.6561775  50.2077446  15.4163208
  66.5291519  66.9805450  26.8360176  66.8683243  66.6666412  27.6742630
  65.7938919  67.5462341  27.0718613   1.8680435  44.1376190  26.6411457
   1.6630918  43.3290329  27.1106339   1.0947994  44.6883354  26.7637539
   2.0245807   6.7864356  83.0940933   2.5139234   7.4888339  82.6658249
   2.6927598   6.1506786  83.3501816  20.0189590  52.3863678   1.0828602
  20.8434772  52.8709297   1.0428755  19.3441410  53.0495033   0.9375854
  14.9328880  51.7689743  52.8241005  15.8411331  52.0242043  52.6623001
  14.4133110  52.4683685  52.4277229  49.9899254  61.5151787   5.5752730
  49.1652260  61.0292702   5.5754466  50.3978195  61.2944031   4.7379489
  84.7363663   6.4891019  27.9080982  84.7502670   5.5388598  28.0224628
  84.2413864   6.6259117  27.1003189  35.5507278  58.7249374  19.7046375
  34.9009705  59.4115486  19.5542526  36.3928337  59.1559906  19.5587521
   9.5019226  57.5733032  78.4437561   8.7255869  57.8243904  78.9442444
  10.1354008  57.2979813  79.1064224  58.8671036  59.2721596  16.5032310
  58.7092667  58.3411407  16.3466301  59.4912796  59.2905655  17.2286968
  67.6812897  20.1388817  17.1489830  66.7780685  20.4044476  16.9760723
  68.2124405  20.8539696  16.7986126  72.6875839  69.8850555  46.0548019
  72.7555923  68.9835892  45.7402153  73.5516815  70.2622299  45.8895645
  53.1821632  34.8414955   5.5983825  54.0382385  34.5656815   5.9259367
  53.3766365  35.3174667   4.7909999  13.9778948  67.3134995  11.2733335
  13.2088909  66.9715805  10.8173103  14.6316786  66.6188202  11.1944342
  41.5570145  56.4490700  83.4337921  40.9300232  57.0303459  83.8641739
  42.3374710  56.9889908  83.3088608   7.2678833  56.0288429  49.9930229
   7.9684982  56.4008560  50.5287247   6.4664145  56.4178123  50.3431396
  36.7221107  34.7743835  65.3946686  36.2499695  35.6038208  65.3215027
  36.9790421  34.5650253  64.4966736   7.2470331  39.6669083  48.6818771
   6.7482014  39.7593422  47.8701782   6.6399651  39.2440567  49.2892456
  31.8357258  24.8900547  79.7652740  32.7907791  24.8739204  79.8272629
  31.5962582  23.9954014  79.5234451  43.0997429  56.3803520  12.4814529
  43.7310295  56.7472229  11.8624887  43.0950165  55.4422951  12.2910252
   7.6244855  67.8049088  35.7067566   8.5384903  68.0360107  35.8723412
   7.6628366  66.9183960  35.3477974  48.7001801   8.0412455  87.4417114
  48.1275711   8.3472738  88.1450500  49.1421890   7.2756338  87.8087234
  15.9548178  47.2525444  63.8182297  15.0873518  47.4950600  64.1421509
  15.9028425  47.3854828  62.8717346  74.7236252  17.4520435  64.0452499
  74.3435898  18.1594124  63.5242653  75.3879395  17.0649300  63.4751091
  80.9214859  51.3590851  64.4758072  81.3005981  50.8016815  65.1553726
  80.1579895  51.7588768  64.8922958  12.3743248  40.8003845  61.6707687
  11.4316692  40.6431122  61.7246056  12.7522840  40.2184067  62.3300705
  16.7773743  36.9446678   8.1492596  16.2702637  37.0223656   7.3411546
  16.1647301  36.5685196   8.7812481  23.7204494  54.5114250  19.5084019
  22.7632961  54.5183754  19.5019035  23.9648838  54.3379326  18.5993443
  22.9392319   0.6166288  80.2924500  22.1415958   1.0549707  79.9960327
  22.7247982  -0.3158100  80.2640228   3.7735035  61.9192696  66.3724594
   4.2028832  61.0858040  66.5653229   4.4915771  62.5485420  66.3044891
  51.6902771  32.5212708  19.7609138  51.0660248  33.1578255  20.1092472
  51.2672997  31.6730862  19.8947201  73.0251236  15.4203911  16.8674030
  73.5843277  15.5438795  16.1004124  72.7793503  16.3074646  17.1299458
  60.7960815  64.2176590  76.1575012  61.7479782  64.1548691  76.2361069
  60.5981522  63.8117943  75.3135071   3.1612775  65.9063873  54.0328102
   2.9021597  65.6378098  54.9142647   3.7183692  65.1939011  53.7193871
  40.3795242  12.3148327  71.1652908  39.7071228  12.8974276  71.5184021
  40.1348610  12.1951132  70.2476654  40.3276482  67.7494812  38.1464272
  40.2775917  67.5390396  39.0788651  40.9199753  67.0908279  37.7837067
  79.5200729  19.0097923  21.4483147  79.1383133  19.1616936  22.3128471
  80.3703766  19.4481010  21.4815960  70.0891342   3.0869608  59.4792290
  70.3182449   3.3488619  60.3709412  70.9074097   2.7557135  59.1091805
  13.4466009  18.5844917  14.3843222  13.9625788  18.0262356  14.9660006
  14.0433655  19.2917519  14.1396074  83.2840271  35.2371407  21.9057579
  83.8587646  35.2466621  22.6711464  83.8332672  35.5565071  21.1898193
  83.6410141  39.0307770  25.5673027  83.0256882  39.7269402  25.7974453
  84.1937180  38.9336243  26.3427448  39.1127586  33.7120094  22.6561050
  39.9590759  33.6482544  22.2134838  39.3337860  33.8702316  23.5738983
  65.5726395   9.4754753  46.2124863  64.8798447  10.0342693  46.5646515
  66.2496719   9.4781418  46.8891335  57.0144920  61.7901878   9.1845503
  57.5190201  62.1684532   9.9046869  57.6338997  61.2163925   8.7336330
  50.3037605  16.4177589  82.9217453  50.1759224  15.7673531  83.6122971
  50.2868080  15.9113569  82.1096497  85.2948456  46.0518456   4.4772096
  85.3628845  46.6769676   5.1988931  84.4795074  45.5794983   4.6455474
  75.1475677  48.5895233  58.7871170  74.4867783  47.9068451  58.9034348
  74.7007294  49.2727013  58.2872849  18.6395779   1.5350505   2.6963673
  18.1095428   0.8139217   3.0358796  19.5010185   1.1472408   2.5422409
  13.8165779  60.3274727  72.0099945  12.9913282  60.8116188  72.0382309
  13.6040192  59.4701157  72.3787537  73.7202606  30.7285671  32.4023781
  73.4970932  30.9881973  31.5085011  74.3681259  30.0321941  32.2948456
  16.1499767  48.3404808  61.3737068  15.2415419  48.4238701  61.0838318
  16.6448345  48.1854057  60.5691566  48.5049667  53.4373245  50.4942398
  49.4342728  53.6228104  50.6291924  48.0666161  53.8603134  51.2325897
  18.1956902  65.2337265  36.9973106  18.7149677  64.5800323  37.4655724
  18.8337364  65.8889923  36.7148972  48.0090408  21.9232388  74.4841156
  48.8029823  21.9080944  73.9496460  47.2951469  21.9952412  73.8505554
  42.9906425  22.4988251  87.5451279  43.1033478  21.8578129  86.8432465
  43.1006203  23.3468227  87.1149673  63.5062561  68.8110580  70.4987869
  62.5671158  68.9481735  70.6230850  63.7546654  69.4478989  69.8287430
  80.5351334  26.4269333  51.8639755  80.9417648  26.4608040  52.7298470
  80.8410110  27.2203732  51.4245148  55.8001785  56.7978401  65.6553726
  55.6475258  56.5015793  66.5526810  55.7136116  57.7500954  65.6995544
  82.2314224  47.5751724  87.1791840  82.4564972  46.9442406  86.4954453
  82.8814545  47.4262733  87.8658600   6.9245458  39.0782471  19.2588482
   6.3809338  39.1881027  20.0390091   6.3315644  39.2507286  18.5275097
  36.3825684  54.3780022  50.7349358  36.9389076  54.9142647  51.2998581
  36.6183586  53.4762611  50.9528847  80.6202087  57.2345734  10.6878290
  79.9046860  57.0248871  10.0875902  80.8748169  58.1272774  10.4544106
  37.4468994  55.0302010  19.5008602  37.3710175  54.7559090  20.4147739
  38.3878632  55.1340294  19.3592949   7.9214644  12.6243057  82.7406464
   7.1911983  12.6571379  83.3585968   7.5913463  12.1055059  82.0070953
  85.1525269  59.9862709  86.0223999  85.9762268  60.4727364  85.9892731
  85.4170914  59.0664062  86.0134125  24.1102543  52.0057640  29.5968285
  24.7384224  52.7081490  29.7650318  23.5763760  52.3304710  28.8717289
  82.1028442  35.3987885   8.9877949  82.0320892  34.4839554   8.7151976
  82.2354507  35.3569374   9.9348402  35.5473480   6.5440669   8.3660126
  34.9600868   6.9768119   7.7462645  36.4226608   6.6858521   8.0055122
  35.7957230  44.7065735  37.1038589  35.5467567  45.3169250  36.4098015
  36.1003456  45.2668839  37.8176422  57.2744865  62.9870605  11.9353771
  56.9431496  63.8367920  12.2259016  58.1957893  63.1465607  11.7304583
  69.1411438  36.2713089   5.8568029  69.7260971  35.6147842   5.4786010
  69.1006699  36.9641800   5.1976190   2.3817670   2.2259855   5.0914660
   1.9168121   1.8635904   5.8456006   2.3947344   3.1700258   5.2491093
   4.1238475  55.2629128  34.4343872   4.6751013  56.0293083  34.5924683
   4.7334089  54.5859528  34.1404648  80.0906372  50.0592918  73.5733948
  80.3870010  50.5433159  74.3441849  80.8054733  50.1510849  72.9434586
  73.1159821  18.1107655  17.6578445  72.6008377  18.7944794  18.0860844
  73.9530106  18.5305004  17.4592457  16.1860657  44.7018661  71.9660263
  16.8601570  44.0973473  72.2764969  15.7217302  44.9704895  72.7587814
  44.0680428  69.6190491  50.6866264  43.8371429  69.2796936  49.8218994
  44.9853134  69.8799820  50.6044197  83.1164932  39.2658119  16.8493729
  82.8494110  38.7918129  16.0618267  83.6603851  39.9832344  16.5242367
  47.7936554  62.9645996  39.0895615  48.6349678  62.6446800  38.7638702
  47.2683983  63.1024055  38.3013039  58.2950287  53.0597115  88.4264603
  59.1423950  52.8807793  88.8341217  58.5057373  53.2621002  87.5149384
  54.0035095  22.0827599  66.3625488  53.9864273  23.0313988  66.4891357
  54.0616455  21.9687176  65.4139404  70.0522995  30.9851170  30.6543694
  70.0239716  30.2546616  31.2723217  69.3060760  30.8365803  30.0735817
   6.7544813  47.2936745  77.3349533   7.5328269  47.4620171  76.8038483
   6.9800725  47.6277618  78.2031250  85.9278946  26.1317692  71.2952271
  86.0390778  27.0763741  71.1875534  85.5313568  26.0344219  72.1609650
  37.5893173  29.9971466  75.7372360  36.7339287  29.5675945  75.7320328
  37.7473831  30.2271976  74.8216400  34.8698349  64.0293808  85.2988892
  35.0168762  63.4378891  84.5608139  35.6865082  63.9981995  85.7971878
  74.4362411   1.4069602  27.8559990  73.6365356   1.0568925  27.4633770
  74.7577744   2.0434756  27.2174873  74.6413498  59.7145882  46.1775093
  75.3106003  60.1589279  46.6979904  74.9930344  59.7117310  45.2872620
  21.1297550  17.2938843   5.6051269  21.2222328  16.4064007   5.2586417
  21.7724686  17.8094025   5.1179008  81.5270386  38.9149666  63.8547249
  80.9975967  38.2206421  64.2469559  80.9876251  39.7016525  63.9347076
   1.4637668  28.8184643  73.6182327   1.9526567  29.5999775  73.3604431
   0.5450355  29.0808773  73.5607452   6.1586199  69.3662033  15.8221855
   5.4274855  69.0256882  16.3376694   5.8842630  69.2512665  14.9123783
  14.6692200  18.7903385  53.1527710  13.8182735  18.6202049  52.7488213
  14.5037746  19.5047913  53.7679291  59.0671310  27.3942242   0.1382911
  58.5707855  26.8899593  -0.5063727  58.7819366  27.0483646   0.9840326
  70.7502975  59.2397652  83.5105438  69.9889526  59.2175636  84.0902786
  70.3800507  59.2196083  82.6280746  73.2410660  66.4153976   2.4815571
  73.6233673  66.0291748   1.6935774  73.8300476  67.1360855   2.7050197
  84.9260330   1.7019897  63.8065033  84.4595718   0.9260700  63.4957161
  85.8434677   1.5312532  63.5934525  31.5221901  55.6663132  30.8039284
  30.7500496  55.2722855  31.2098541  31.5451088  56.5588226  31.1490860
  12.8011141  47.2340584  52.8270569  13.5378742  47.1588478  53.4334908
  12.9957895  48.0153122  52.3093910  62.6944580  33.8041153  21.9280510
  62.3022995  33.0780907  22.4131622  63.4788170  33.4288139  21.5278473
  27.4803467   9.7331276  87.5708466  27.6466808  10.2516928  88.3580322
  26.5664501   9.9156876  87.3524551  51.9971657  51.6116791  62.0042191
  51.6916733  52.2170639  62.6798058  51.2422829  51.4960365  61.4271469
   0.2152650  67.8905792  39.8220024   0.0070856  68.7604141  39.4810104
   1.0174952  68.0175629  40.3284950  69.4729462  43.1300430   8.0411034
  70.1063309  42.8198738   8.6882935  69.1562195  42.3335266   7.6151028
  18.6195183  29.9282742  86.7569885  18.5262108  29.4030952  87.5517960
  19.5476513  29.8607159  86.5328598  18.2853737   1.5039395  23.7030811
  17.7810574   1.4348577  22.8924484  19.1971111   1.4117976  23.4265347
  78.3838196  56.4861145  66.9810181  78.4649734  57.2323418  66.3870544
  79.2866821  56.2246056  67.1618118  25.8884087   6.6090512   2.7777700
  26.6235371   6.1710229   3.2066631  25.1751766   5.9717469   2.8148420
   5.3669529  67.1781311  60.0573769   5.2023563  66.4963531  59.4059792
   5.9209056  67.8137054  59.6041412  52.3201141  44.9519691  69.2759171
  53.0378723  45.3761292  69.7461777  52.6703491  44.7899895  68.3999405
  51.2778778  59.3028412  22.1091919  51.3779297  59.6622581  21.2276917
  52.1684074  59.0779533  22.3786545  82.0358200  28.5412731  33.4174042
  82.9566498  28.4197407  33.1860085  81.8718948  29.4722424  33.2668800
   4.8550105  42.9914207  68.3738174   5.6740246  42.9765129  68.8690186
   5.1035194  42.7156258  67.4915390  66.8358536  29.9443207  43.5908394
  67.2269440  29.6152439  44.4001503  66.0177994  29.4549732  43.5039024
  86.1542130  54.1292915  22.4608421  86.1243668  53.8440132  21.5476284
  87.0814285  54.2971039  22.6291676  15.6617088  39.1122360  10.2865887
  15.4715672  38.2104836  10.5452738  15.0831461  39.2747421   9.5415449
  37.4027557  32.8572884   4.5386672  38.3027992  33.1190796   4.7326150
  36.9873428  33.6540909   4.2088580  67.2036667  30.3732700  62.7935486
  67.7528305  29.7611542  62.3036842  66.5913086  29.8149872  63.2726822
  81.5187988  38.2186813  39.7533302  81.1993256  38.8642426  39.1229210
  82.3994827  38.0011177  39.4478951  76.5134430  62.0751038   7.8357868
  77.2560959  61.5008545   7.6488700  76.8238297  62.6473312   8.5375338
  30.1478081  26.7599907  14.6802225  29.2452869  26.5314503  14.9026108
  30.3007298  26.3370323  13.8352652  43.0601196  40.4167671  88.9005966
  42.2837105  39.8901176  88.7107010  43.5886230  39.8650284  89.4772263
  82.6623154  71.0747528  11.9752798  81.8284531  71.5447540  11.9777269
  82.6776123  70.6184921  11.1339550   7.8372416  46.8614731  19.3598976
   7.9850965  46.8128853  18.4154339   8.6153212  46.4585037  19.7451763
  53.4225883  56.9167938  17.1912079  53.6341553  57.6531105  17.7650623
  53.7919388  57.1607513  16.3425045  19.0158863  20.1994896  27.0007019
  18.6535034  20.8478889  27.6044331  19.7029648  20.6696815  26.5283928
   5.3677626  17.9918270  62.8256226   6.1754441  18.0103130  63.3389816
   5.6126428  18.3680515  61.9802094  67.3694687  23.9657612  78.6275101
  66.7214890  23.6632309  77.9912491  67.9628372  24.5196228  78.1201859
  15.3304119  42.3221817  78.1777420  14.5189257  42.7145767  77.8556442
  16.0248890  42.8422470  77.7734375  43.7890816   2.5618622  33.5809326
  43.1739044   2.6185670  34.3120804  43.2591591   2.2548044  32.8453140
  31.6139450  50.7033348  29.5861187  31.0748253  50.3122749  28.8986225
  32.2601509  50.0291901  29.7963161  26.4681072  22.5967731  15.5503778
  27.3511925  22.8473911  15.2791214  25.9773808  22.5250072  14.7316780
  29.5368214  70.3254242  44.7120743  30.2435951  70.2126389  44.0764809
  29.0052776  71.0371017  44.3554077  66.2866440  44.6461983  77.9471283
  66.7522507  45.4013939  78.3064575  65.3962250  44.9634018  77.7962112
  26.0449619  54.4084930  76.7799225  26.0132828  53.5078735  77.1025925
  26.9777927  54.6218071  76.7563934  10.0413971  61.9723282   1.1506590
  10.4288816  62.2220154   0.3117650   9.4359818  62.6846504   1.3563242
  22.8426476   7.2399006  19.3012161  22.9787884   7.6121731  20.1724854
  22.7405052   8.0004606  18.7290726   8.6042891  51.5852165  67.1198425
   9.0313244  51.0658607  67.8011169   8.2066116  52.3175049  67.5908432
  58.6143227  54.7472000   9.1624279  59.5411720  54.8002396   8.9292507
  58.4472542  53.8106842   9.2685366   4.6870451  58.1254272  34.7874756
   5.1173697  58.8953590  34.4156456   3.7819571  58.1859436  34.4818840
  14.3222580  43.4682159  18.4927826  13.6995039  42.8547211  18.8826923
  15.1276674  42.9607430  18.3927002  55.4399071  11.4916925  64.1850967
  54.6227722  11.9879465  64.2326050  56.1198311  12.1281033  64.4062729
   6.8557310  28.2886162   2.5462296   6.8272052  28.2761459   1.5895361
   5.9675126  28.0544262   2.8154044  63.8656387  36.7042732  12.9063110
  64.6552887  37.2405357  12.8348866  63.8434944  36.4315338  13.8235655
  81.2590637  68.0028992  79.2951660  81.6889267  67.8376846  78.4560242
  80.3411331  68.1523895  79.0687180   4.1708908  57.1790733  40.4240685
   4.7691159  57.7512856  39.9435120   3.9746397  56.4696732  39.8121300
  69.7071533  32.4874763  71.8783646  70.1990814  31.6666451  71.9001083
  68.8005676  32.2194862  71.7282944  67.1994553   8.8891506  87.8182907
  67.0192261   9.2978067  86.9716797  66.9982529   9.5698376  88.4604874
  37.6701088  68.3220673  37.5092239  37.3474350  68.6158981  36.6572990
  38.5261116  67.9371033  37.3213425  31.9439392  43.0808487  54.5001183
  32.3690643  43.8811913  54.8082657  32.6328316  42.6084366  54.0326958
  85.8129578  51.5156631  47.1146202  85.0565033  51.0566063  46.7495422
  85.9726181  52.2364845  46.5053902  36.6056709  45.8717880   6.2199230
  36.3754463  45.9411888   7.1464286  36.5490303  44.9356308   6.0285254
  32.4258919   2.7537880  77.3012390  32.6918449   2.8052621  76.3831635
  31.6093521   2.2545118  77.2864227  86.4158249  42.2031097  31.9131737
  85.9761963  42.1703072  31.0635357  86.8406143  43.0607224  31.9300976
  76.7766266  44.0932007  85.5962372  76.7309113  44.9872093  85.9351959
  75.8859253  43.9028091  85.3019104  64.4012756  13.1846638  57.4035873
  65.2451553  13.5563955  57.1468353  64.0427399  12.8222818  56.5934258
  60.8962250   1.4753783  57.6945992  60.8400230   0.7027687  58.2568703
  61.2678299   2.1546526  58.2573853  22.1459789  49.6709938  80.8100815
  21.8090477  49.7898369  79.9220581  22.9067249  49.0999641  80.7031937
  83.0384369  48.6085739  38.8272743  82.9932327  47.6756020  38.6180992
  83.6905899  48.6661415  39.5255699   2.1791587  45.8726082  23.8068867
   2.1892445  45.0722504  24.3318176   2.0331111  45.5694847  22.9107742
  31.0201836   4.4970107  32.9423218  31.3359776   4.0505209  32.1567307
  31.4152298   4.0134263  33.6677971  44.9590263  45.7449341  41.5310326
  44.5665436  46.3578987  40.9093666  44.2728157  45.5898018  42.1800880
   4.4486542  40.6842880  49.7648582   3.9360995  40.8610840  50.5536957
   4.0765939  41.2661133  49.1020775  66.7581100  38.3402023  47.4029961
  67.0709229  37.8054047  46.6733589  67.4822311  38.3383675  48.0289993
  10.6963110  42.6088982  88.7809143  10.0725832  42.2671814  89.4215622
  10.8253765  41.8882217  88.1643143  59.6184883  28.9825249  15.0015459
  58.7323761  29.3438492  15.0234661  59.9398994  29.0818920  15.8976774
  35.6919289  38.9155807  40.7370529  36.1605339  38.0809326  40.7348366
  35.1303749  38.8770370  39.9628410  10.7250023  30.0282459  25.7181931
  10.9241838  29.9456882  26.6507931   9.7981491  29.7990532  25.6500282
  62.6682472  61.3827057   4.5553870  61.8432808  61.5765457   5.0004597
  62.4397087  61.3610039   3.6261234  57.7118301  34.8478355  30.4748268
  58.2664337  34.6620293  31.2325363  57.6295624  35.8014565  30.4663200
  62.2392883  28.6795750   5.3098874  61.4162636  29.0731373   5.5996571
  62.8306236  29.4225330   5.1891909  40.3773041  67.1484070  79.9750443
  40.5794907  68.0827942  79.9273300  39.4468689  67.0932465  79.7571411
  79.1119461  19.2857895  26.8467674  78.4669647  19.4951286  27.5223484
  79.8834534  19.8000069  27.0846424   8.1989632  29.6363430  24.7910404
   7.4063830  30.1403866  24.6066761   8.5119934  29.3588161  23.9300976
  18.0611801  49.3309364  51.0126457  17.1661835  49.0956764  50.7679710
  18.4472046  48.5124588  51.3245926  76.1617432  64.6590729  47.1389389
  76.7088242  64.2613449  47.8162537  75.2743378  64.3650436  47.3445778
  65.4568634  67.0246658  12.0582151  64.6070328  66.8376923  11.6593895
  65.6164856  67.9474792  11.8603029   2.8368225   5.1139011  14.7291965
   3.3691461   4.5783849  15.3174868   3.4110336   5.2954741  13.9851913
  28.0530701  63.9338608  42.5083771  27.7180271  64.8221283  42.3860703
  28.0626736  63.5581703  41.6280365  25.0440102  32.2387505   2.5912752
  24.2552147  32.4169464   3.1034083  24.8671532  32.6291389   1.7353839
  37.9537201   6.6354017  74.2686081  37.1167793   6.9816980  74.5781937
  38.1838226   5.9595232  74.9061584  16.7546005   3.2919686  57.1993790
  16.8379841   4.2199626  56.9800491  17.3881721   3.1544280  57.9035835
  58.4927216   3.7781963   2.0281744  57.6468468   3.4292192   1.7472113
  58.9967384   3.8649006   1.2190512  62.8920937   1.7827914  54.9697189
  63.3369255   1.6887122  55.8120422  62.0882454   1.2719300  55.0649986
  14.8207026  35.5696983  67.5032959  15.7001867  35.8603401  67.7446823
  14.2434816  36.2644501  67.8201065  28.9526424  65.4489288  63.3647499
  29.0058804  64.5015411  63.2388077  28.2049332  65.5711365  63.9497528
  81.1706924  33.0808067  56.2726097  81.3295135  33.4687157  55.4120674
  80.3674164  32.5722351  56.1615181  72.9098282  52.2337532  36.3239250
  72.7948685  51.5615082  35.6522827  73.8518524  52.2444496  36.4933205
  23.5727043  13.7165899  12.5708981  24.3566418  14.2223644  12.7850647
  23.0893993  13.6632843  13.3954010  77.5010757  62.4959259   4.2165065
  76.5801697  62.7352448   4.3208389  77.6865616  61.9262543   4.9630337
  31.4977512  69.4634857  16.9889488  31.8411102  69.4734039  16.0955067
  31.3231335  70.3831863  17.1886578  35.2295456  34.7112160  30.6170826
  34.3761635  34.3294983  30.4115047  35.2737617  35.5022583  30.0799313
  -0.1519877  27.9020405  40.6762085   0.4365095  28.0551701  39.9369850
  -0.2547880  26.9508896  40.7074738  12.6490812  24.7663746  75.0079727
  12.0514326  25.4480152  75.3152466  12.7166548  24.9144821  74.0647202
  80.2568665  69.0183334  61.9782410  79.4494400  69.0084305  62.4922409
  80.0195160  69.4694366  61.1680565  21.4404774  38.2103653   8.9093361
  22.2481194  38.0865669   9.4079571  20.7647209  38.3365059   9.5754232
  11.1810303  55.1568756   9.7723551  10.2719202  55.0080338  10.0323505
  11.1240940  55.7807312   9.0486183  72.0205154  31.4848728  23.1498718
  71.6754532  30.6127319  23.3410187  72.1305008  31.8925056  24.0089245
  72.3350525  40.2528687  14.5901327  72.4130707  40.6140862  13.7071466
  73.1731873  39.8174896  14.7457190  72.5508423  56.8712578  84.0251007
  71.8723450  57.3788452  83.5798721  73.2302856  57.5119667  84.2350540
  53.5471230  69.5079727  84.1144791  53.9787750  70.3230820  83.8585434
  53.7618484  68.8928146  83.4132614  83.8285217  14.4019632  21.9899673
  84.4593735  14.9544563  22.4514980  83.4569016  13.8419733  22.6715412
  21.1174908  38.2514114   2.1850331  20.9001713  37.4654617   1.6837490
  21.8718948  38.6250496   1.7295086  34.3622284   3.9914978  71.9606552
  35.2479668   4.3460760  71.8833466  33.8341141   4.5370774  71.3778458
  84.2831116  69.4300919  36.8474541  83.9146500  68.9358292  37.5796928
  85.0188522  68.8976135  36.5451584   6.6515365  35.5355225  20.9704132
   7.3714175  35.6472855  20.3495159   7.0001359  35.8573532  21.8017578
  41.2924271  55.9711494  77.7028732  41.5897446  56.8727074  77.8254471
  41.5744820  55.5159683  78.4962769  62.5371246  26.1022091  37.6131859
  62.7753487  27.0041008  37.3985367  63.1443748  25.5662136  37.1030998
  12.6910658  39.9222832  78.3108521  11.7995605  40.2262192  78.4813614
  12.7081547  39.0275459  78.6505356  18.0106697  10.1951790  69.2251816
  18.0917244  10.0974836  70.1739273  18.1102734   9.3065948  68.8835297
  18.7799072  23.7526627  71.3941956  18.8988113  24.6889725  71.5536270
  19.0009708  23.3377571  72.2279892  86.6243057  65.9116516  33.6075249
  87.0834656  65.3855743  34.2622375  86.5520325  65.3364487  32.8458481
  56.7092896  55.0191650  83.4070663  56.0820274  55.4989243  83.9479980
  57.5628204  55.3688736  83.6628342  59.6330490  32.1667366   5.9691458
  59.8256035  32.9472733   6.4886808  58.9852066  32.4594727   5.3281784
  22.0225792  53.0869522  52.2612610  22.5799637  53.6162338  51.6908073
  21.6293869  52.4384346  51.6772614  74.3837433  11.7867136  82.1159058
  74.9925537  11.0876598  81.8773499  73.8390198  11.9057817  81.3378754
  21.4732914  62.3711433   2.2403958  20.5437260  62.1975937   2.0920062
  21.9269390  61.7400131   1.6817273  32.4387817  30.0324001   6.1875710
  33.0435066  29.3010597   6.3127899  31.8091354  29.7144547   5.5405097
  21.3047256  43.4860802   5.1783981  20.4083538  43.7907677   5.3195224
  21.2695332  43.0159454   4.3453517  74.9119492  12.5296173  27.8202229
  75.4042130  13.1468334  28.3614712  74.1756744  12.2627583  28.3706036
  11.8936596   0.6719430   0.8765721  12.8113918   0.4056096   0.9319293
  11.7268791   1.1293501   1.7007049  29.7536850  11.7609072  88.7388077
  28.8411255  12.0470572  88.7786407  30.2333298  12.5316114  88.4351883
  29.8236370  63.8691101  34.9821053  28.9842491  63.5853729  35.3442574
  30.4756699  63.5331154  35.5970802  82.0875931  37.4247742  12.0197706
  82.2644501  36.4985466  11.8552933  82.7828903  37.8880119  11.5526409
  33.1759644  50.3035316   7.4168978  32.2698135  50.6066284   7.3598642
  33.3734283  49.9726067   6.5406966   6.5651350  57.7109947  61.0042725
   5.8783641  57.9375229  60.3771667   6.3202319  58.1741447  61.8053627
  35.1770401  65.0868912  37.1922379  35.9408646  65.4005356  37.6764221
  35.3975449  65.2378616  36.2730980  24.2089062  24.1702614  78.1002884
  24.3668938  23.7588367  78.9499969  23.8332253  25.0243549  78.3138809
  73.1062469  58.5059509  48.5753937  73.4365616  58.6273804  47.6852341
  73.7728043  57.9718246  49.0074196  22.0369949  29.9511223   9.5753298
  21.3791561  29.9747276   8.8804035  21.7476158  29.2467175  10.1552467
  21.9513397  10.5143518  23.0137596  22.4761372   9.8833370  22.5211716
  21.6379280  10.0238400  23.7736301  86.3849030  58.0063934  22.1840420
  87.0600967  58.6819687  22.1212273  86.6520615  57.3410645  21.5498505
  66.4551544  54.9214630   0.4219923  66.1203003  55.7679596   0.1261029
  67.3625870  54.9033012   0.1179152  43.5692368  57.3653526  53.4261780
  43.3822975  56.4433594  53.6028595  43.5938034  57.4260292  52.4712181
  62.6009674  39.3977928  25.5767689  62.8201675  38.6416359  25.0323334
  62.5685081  40.1326103  24.9642181  12.5123053  41.7559204   9.3345003
  13.2185965  42.2366257   9.7661333  12.9603634  41.1569786   8.7372217
  18.9225597  28.4299717   4.5704250  18.9191570  28.4128380   5.5274658
  18.2527351  29.0737705   4.3400168  83.1225815  56.9764404  34.5637321
  83.2588425  57.3425140  35.4376030  82.3684692  56.3952293  34.6624451
  42.7521744  36.0194473  68.2733154  43.4604721  36.5904312  68.5708542
  43.1303177  35.5292702  67.5432663  33.0340424   9.3215485  84.2492523
  33.5547371   8.5739775  83.9555817  33.6496773  10.0544748  84.2557449
  78.1423111  55.8643913  49.6372681  78.2965317  54.9324722  49.7921066
  77.2127457  55.9884262  49.8289833  82.4295349  46.7364540  35.8635864
  82.1908646  46.0205269  36.4524193  82.9771881  47.3126564  36.3967857
  37.2185516  19.7056789  73.1393051  37.1402588  20.3968639  73.7968521
  36.3620377  19.6829262  72.7125702  27.7335529  14.6226835   4.1559582
  27.4504356  13.7283888   3.9653978  27.5073719  14.7544584   5.0766697
  79.0966110   6.3669348  70.1497726  79.5747223   6.7644238  70.8775406
  78.7939682   7.1099834  69.6277466  70.8380966  42.1936874  69.7671738
  70.6163177  41.5688896  70.4575958  70.9216690  43.0323563  70.2209167
  37.6488495  65.9688950   9.3724222  37.3892746  65.4102936   8.6397457
  38.5601654  65.7313232   9.5435905   0.7172714  37.7212791   5.9921908
   1.2862324  37.4431915   5.2744274  -0.1506185  37.7946968   5.5951910
  19.8192406  58.4384804  15.3792496  19.1828156  59.1531334  15.3576593
  20.6472950  58.8619347  15.6056271  69.0396271   3.5429347   8.7332830
  69.6882401   3.0693004   8.2125130  69.4024963   4.4240141   8.8241396
  64.2869415  38.1938171  56.2453156  64.6966248  37.4368248  55.8265686
  63.4861374  38.3415794  55.7422104  27.8054543  25.6502533  18.5934219
  27.9070396  25.3070793  17.7056484  28.6531315  26.0462379  18.7955933
  49.2250710  43.4556732  13.5289154  49.3999367  44.3961372  13.4944696
  50.0575371  43.0669518  13.7974796  67.9494705  35.0186806  36.2258911
  68.1010895  35.5694313  35.4578285  68.5603638  34.2891502  36.1218567
   3.8983212  44.0313606  54.4984665   3.5167251  44.6520195  53.8776627
   4.6073694  43.6111107  54.0117760  72.6285324  25.4890461  67.8613968
  72.0006104  25.6186199  68.5721436  73.3907700  26.0082760  68.1175842
   4.0935860   1.2133065  71.1022110   4.7471647   1.4143689  71.7720184
   3.5788260   2.0162332  71.0212021  50.5402756   2.3834515  82.6986771
  51.2058868   2.7263920  82.1023712  49.9831810   3.1367857  82.8945541
  86.6628799  39.0356789  66.5714340  86.7630005  39.7106590  67.2427063
  86.3134766  39.5026703  65.8124390   6.8599834  10.2328444  11.0636950
   7.5950336   9.6364660  10.9213400   6.3218102  10.1416464  10.2773848
  52.2245102  48.1046562  40.1742859  52.0021172  47.1813393  40.0548820
  52.3248596  48.4438133  39.2848282  26.6341667  15.9816523  15.9680538
  26.4200573  15.2812891  16.5843983  26.8663864  15.5259628  15.1589479
  72.5052567  49.2269135  60.5735817  73.0465088  48.4389877  60.5240517
  72.0545120  49.1553574  61.4149780  36.5224457  20.8629341  88.3674469
  37.0475616  21.4141407  88.9476700  36.6543312  19.9741096  88.6973419
  64.3548355  57.5283737  81.5664368  65.2371368  57.2413902  81.8018570
  63.8949776  56.7219734  81.3330231  84.4730148  47.1360092  88.4891357
  85.3729935  47.3133888  88.2156296  84.3745041  47.6134987  89.3128662
  41.8791656  70.0356140  40.6932755  41.5047379  70.7022095  41.2691956
  41.7663574  69.2145462  41.1721878  37.6608810  66.6762238  66.6391678
  38.0392609  67.4852142  66.9835510  37.4275055  66.8868637  65.7350693
  31.8931122  13.2793951  13.8033009  32.0156937  12.4309368  14.2291231
  32.2252922  13.9155054  14.4367456  32.7410088  43.8352470   5.1576161
  32.2036324  44.4799576   5.6178474  33.2143707  43.3780251   5.8526745
  78.7497025  60.3568916  38.1400414  77.9282761  60.3127022  38.6294670
  79.3596191  60.7934952  38.7346916  53.7692947  18.8053265   0.3540639
  54.4255104  19.3790188  -0.0415261  53.9021950  18.9037971   1.2968646
  45.3159752  43.2540474  70.8525162  44.5134735  42.7648392  70.6711349
  45.8548508  43.1282921  70.0714722  31.8450718  52.1558342  63.5128517
  31.0571175  51.6664696  63.7492409  32.3049431  51.5860481  62.8963318
  21.5992355  31.2421474   5.5519547  21.2788773  30.9146671   6.3924074
  22.2851181  30.6239414   5.2997313   0.9606938  27.4804802  69.0180588
   0.7063556  27.0425472  68.2058029   0.1789466  27.9645462  69.2841110
  32.8389702  46.7140350  36.2997971  32.8604927  47.6704636  36.3315811
  33.4877586  46.4818077  35.6354370  52.8549347   2.3474989   9.0985088
  52.7179489   1.8708488   9.9172096  52.6828384   1.7014176   8.4135323
  58.2939224  21.9741039  59.7403641  58.5353737  21.5849724  58.8998222
  59.0181236  21.7501392  60.3248367   3.3422692  66.0116272  44.5453491
   3.3516629  65.6071014  43.6778755   2.7213740  66.7357178  44.4652519
  13.2846689  43.0626068  12.8178530  13.1794491  43.9969788  12.6386604
  13.9677143  42.7777405  12.2107859  66.4471436  21.8088665  26.3659592
  66.7082520  21.5226288  25.4906750  67.2467194  22.1706371  26.7481022
   1.1652559  62.8162155  60.2375679   1.1331582  62.2764206  59.4477425
   1.8826473  63.4298401  60.0793037   5.4932690  35.3498611  42.4925117
   5.4745860  35.0718155  43.4082489   4.6169472  35.6991272  42.3303223
  31.4333839  28.5937595  10.1991653  32.1416054  28.9427052   9.6579723
  31.8069420  28.5431557  11.0790091  53.4295883  68.7011490  65.0500031
  53.9738159  68.0289536  64.6398697  53.0461769  68.2668762  65.8119965
  33.8551369  11.3683453  80.4780045  32.9011078  11.3059874  80.5245743
  34.0613174  12.2036848  80.8974457  12.5462799  30.0652008   3.7925248
  11.7572889  29.7238407   4.2134752  12.5063820  31.0102158   3.9394541
  76.8935699  11.1735363  47.8641281  77.2012177  10.3422880  48.2255287
  76.7138519  11.7165222  48.6316566  69.6569290   0.9972302  52.2529526
  68.7164993   1.1206522  52.1241455  69.9691544   1.8460059  52.5665245
  51.6843796  45.6365471  73.8525162  51.8701477  45.7513237  72.9205551
  52.3268623  46.1912918  74.2948990  61.8973618  15.3079796  11.4943829
  62.8262138  15.5078115  11.6107311  61.5927200  15.9500732  10.8531809
  48.7056351  16.5688133  54.2842216  48.6470490  15.6621304  54.5854301
  49.2084770  17.0154476  54.9653244  12.9258175   0.1312546  66.3011398
  12.3703070  -0.4221950  65.7521973  13.3949633   0.6895664  65.6811218
  32.0633011  18.6631565  11.5174084  31.2277622  18.8145962  11.0756264
  32.1849251  17.7144089  11.4811001  67.2593460  27.8648548  83.3384552
  67.1187057  28.5631046  82.6990051  67.7427902  28.2852058  84.0496597
   5.5942678  40.4806252  39.3550720   4.8760056  40.9579811  39.7703552
   5.6784763  39.6785431  39.8706322  35.5045776  55.3967590  75.5505524
  35.1120224  55.1367188  74.7171783  36.2120781  54.7670479  75.6888809
  56.0575562  45.0377769  35.3342285  56.4608192  44.2022400  35.0986710
  55.3190498  45.1256218  34.7316322   4.4212389  18.4449177  79.5111389
   4.8624473  18.2487392  78.6846466   4.1411872  17.5913506  79.8416290
  41.7257843  39.7249146  59.4246902  41.3092422  40.0653381  58.6329575
  42.2701721  40.4470596  59.7383499  72.3815536   0.5555279  26.4289017
  72.8601227   0.5772165  25.6002045  71.9282379  -0.2874932  26.4217033
  80.6315536  38.1043625  52.2391510  81.5625916  38.2801552  52.1031685
  80.2371597  38.2203484  51.3747253  85.4527817  24.3004284   7.4891119
  85.5726929  25.1377869   7.9370918  85.8239746  24.4395981   6.6178598
   2.7893374   9.7305841  34.7705574   2.5590148   9.6564074  35.6966667
   3.7381620   9.6060877  34.7490044  29.9609642   7.6571746  75.8650131
  29.2377319   7.3498554  76.4115677  30.3770828   6.8563929  75.5459137
  53.9542503  41.0713234  70.3521576  54.5009575  41.8201370  70.5901184
  54.5234489  40.5203094  69.8149185  47.7521896  56.3949127  56.5836563
  47.7098503  55.4697113  56.8254089  47.2036552  56.8371124  57.2315788
   1.5577279  36.8092499  54.5203171   1.1008940  37.1145096  55.3041229
   1.9084173  35.9530640  54.7656670  77.9724426  68.5779495  63.4077797
  78.0949554  68.3747025  64.3350983  77.0371170  68.4438934  63.2547340
  62.9014244  16.3043499  75.9275589  62.8915787  15.4411640  75.5139847
  63.5683136  16.2350292  76.6107025  53.2376595  27.2206726  72.6568527
  52.2893295  27.3062115  72.7547607  53.4399033  26.3607540  73.0254593
  22.5139408  66.4068146  15.7319241  23.0433922  66.0159912  16.4270306
  22.2382469  65.6641998  15.1945677  56.6082611  51.4431458  26.9772739
  56.9183502  50.5412903  26.8952217  55.6632996  51.3852921  26.8360786
   4.4614854  70.2751083  41.7687454   5.2287321  70.5585861  42.2659416
   4.8159552  69.7078171  41.0840836  58.9710464  46.7146606  44.9705734
  58.6494141  47.5852814  45.2046700  59.2605095  46.8024521  44.0624237
  70.6200180  -0.2849292  86.9724960  71.0289917   0.5138240  86.6393814
  69.6881790  -0.1733672  86.7841873  38.8302193  50.8519020   3.2428792
  38.3902588  51.1036186   4.0548558  38.1466408  50.4328499   2.7200511
  49.7434731  63.0990524   2.0035815  49.2808990  63.8309937   1.5955127
  50.6399727  63.4150848   2.1160192   0.3612230  20.1930027  23.4874439
   1.0926738  19.9999504  24.0739098  -0.4135462  19.8973198  23.9654961
  38.2400246  59.2152405  24.9949055  37.5515862  59.8484497  25.1982040
  38.4227219  59.3503456  24.0650673  28.7455559  43.5592346   2.8500850
  29.1331425  43.8805847   3.6641748  27.8293171  43.3918076   3.0707793
  76.1550064   5.6105394  67.1997299  76.5091705   5.2514133  66.3862000
  76.5342407   5.0639224  67.8879318   5.1131706  57.5339127  85.1405258
   5.7246008  58.0552292  84.6203232   5.4114618  56.6314354  85.0274277
  30.7771244   4.7987051  65.6215439  31.5392075   4.3476958  65.2581558
  30.0310802   4.4231277  65.1540070  17.5186939  52.2218666  17.6535358
  17.1564865  52.5277061  18.4850998  16.9620571  51.4831963  17.4070549
  43.9671516  24.0925732  81.8253784  43.2362671  24.1370010  81.2088852
  43.7940331  23.3081989  82.3459702  20.8044147   2.1657772  85.7870636
  21.1314163   3.0518472  85.9425659  19.8536682   2.2441173  85.8656387
  46.7633858  48.6271439   6.2098575  47.3400993  48.8084068   6.9520020
  45.8852921  48.6000328   6.5899200  83.5900497  67.0315399  56.1975441
  83.6279984  67.8802719  55.7565804  84.3651199  67.0185089  56.7590752
  79.6989975  62.2497520  48.3903503  79.0077209  62.7001495  48.8756485
  79.8725357  62.8167458  47.6389275   6.5818543  61.5817070  82.4724274
   5.6259503  61.6006813  82.5184708   6.8034935  62.2466850  81.8205719
  86.6363068  15.3813848  38.8916931  86.1656494  14.5934095  38.6200180
  85.9651794  15.9361153  39.2892990  76.4312439  68.3442383  55.9915924
  76.9574509  67.8430099  56.6145821  76.7224426  69.2489243  56.1055031
  11.9322433   4.3947940  72.3626251  12.7628756   4.0624280  72.0223083
  11.3304634   3.6538630  72.2911148  63.3795853  44.6909103  33.6334572
  63.0845642  44.3723068  34.4865036  64.2568207  45.0370636  33.7973747
  15.2189178  38.9615669  48.7181473  15.6877861  39.3936081  49.4321022
  14.8592644  38.1675758  49.1136971  13.4768829  61.0119133  66.9766541
  12.7856951  60.9882011  66.3148880  13.1192255  61.5575142  67.6771011
  25.1546135  29.3988514  13.5238466  24.8655758  29.5040359  12.6174107
  26.0593834  29.7112961  13.5245237  42.6871033  47.5038681  33.0354614
  43.2450714  46.7678947  32.7839775  42.3545990  47.2674141  33.9013481
  44.1698380  41.1976242  14.8254786  45.1026993  41.2973671  14.6356001
  44.1432495  40.6812897  15.6310368  84.8250885  11.6269217  31.8744888
  85.0534821  12.3078623  31.2417259  85.5237656  11.6629677  32.5277786
   9.2205324  30.1768894  56.2485428   8.4579926  29.6063118  56.1525879
   8.9838800  30.7758789  56.9566650  11.4941330   4.2484894  88.8287735
  12.2162609   4.1176271  88.2142563  11.8733568   4.7695789  89.5365143
  27.5198231  13.1238813  77.9185867  28.2054825  13.7882624  77.9871521
  27.7254162  12.4952250  78.6105118   7.3930449  27.4671345  26.5005703
   7.3122253  28.1130733  25.7988148   7.9718299  27.8805466  27.1411400
  55.4795570   5.4179730  70.9759598  54.9796753   5.9730983  71.5744400
  54.8292236   4.8247619  70.5999298  63.5756340  39.2989082  39.0113068
  63.4552727  38.7314568  38.2498970  62.7172546  39.6992149  39.1497650
  53.3365860  58.4489212  24.5402508  53.8775024  58.1951294  25.2880707
  52.8875122  57.6430550  24.2850151  80.5227280  32.8679810  26.4510078
  80.0486755  32.7740707  25.6247597  81.2151108  32.2085648  26.4061775
  30.7311897  67.8988647  86.9631577  31.4916687  67.4639587  86.5774612
  30.0001869  67.3078613  86.7826462  36.9086838   5.0370870  10.8817482
  37.8312721   4.9873281  11.1319323  36.8527603   5.8146024  10.3262539
  24.8941078   8.3528299   5.5639820  24.6057415   9.2651634   5.5908899
  25.2189255   8.2305164   4.6719251   6.7871017  49.4566803  29.3422585
   7.0110078  49.4313011  28.4119606   7.1023030  50.3095894  29.6412945
  71.8869095  58.0971603  59.4702301  71.3606339  58.6968575  58.9414291
  72.2267227  57.4594917  58.8424263  75.2490997  32.1604767  44.3191833
  75.1087189  33.1070824  44.2977028  74.4363708  31.8059349  44.6797371
   9.2502346  60.7160454  85.3791199   9.9035292  61.0342369  84.7560654
   9.7372150  60.1299095  85.9583664  72.8079376  58.5750580  31.6612492
  72.7527313  58.0170441  32.4370117  72.7182617  57.9705582  30.9245186
  79.6521835  65.9564438  66.2700882  80.2481766  66.1960754  66.9797363
  80.2272720  65.6666794  65.5618973  55.0734978   7.1031294   2.7485297
  54.8026619   7.0189857   3.6627502  54.3417702   6.7424846   2.2477913
  61.6571350  24.4146137  67.4591217  61.7052498  23.9490242  66.6241760
  61.9145508  23.7633648  68.1116867  74.8489914  64.9863510  65.9456482
  75.1760254  64.2070923  66.3951263  74.3550034  64.6436310  65.2008286
  52.6707916  61.0004807  24.0360031  53.3791847  60.9679871  23.3930779
  52.7655830  60.1909790  24.5379524  63.4934959  34.4344254  56.3458176
  63.3737869  35.2727661  56.7920113  62.6126137  34.0637665  56.2920914
  61.8085709  13.2474670   9.4426842  62.2077904  13.8691425  10.0512695
  61.9272881  12.3941383   9.8597784  22.0017262  30.0019035  62.1138840
  21.6780872  30.9024315  62.1371078  22.8448467  30.0386791  62.5655785
  23.0118809  29.4182930  77.8287888  22.5686302  30.0402660  77.2518005
  22.3034019  28.9047470  78.2168045  25.3911362  54.0056915  53.3505135
  24.6699963  53.6506653  53.8702698  26.1694546  53.8563766  53.8873177
   6.6274161  60.1562157  34.3317947   7.4345131  59.7140198  34.5950203
   6.6729851  61.0118408  34.7584763  55.9475098  18.8337708   7.5785322
  56.7856865  19.1406765   7.9242158  56.1281166  17.9480247   7.2637873
   4.4170251   2.1028886  73.8816757   5.3702021   2.1521485  73.9541855
   4.1053944   2.9265101  74.2568588  50.0818901  63.0436516  77.8594513
  49.8594398  62.1144867  77.9177551  50.2805977  63.1847305  76.9337921
  59.2843552  38.4154205  44.8070030  58.7845993  38.4313812  43.9907799
  60.1786537  38.6335983  44.5445862  22.1284409   0.8326992  70.1556778
  22.1058655   1.2098613  71.0351486  22.4526119   1.5411015  69.5995178
  41.3579140  54.3739166  22.6128120  40.6369972  54.9907112  22.4860401
  42.1116104  54.9259720  22.8211555  55.0815811  66.5770111  68.5286942
  55.7374649  65.9368362  68.8047867  54.7559433  66.9540176  69.3460388
  78.2040024  22.0388069  17.5580673  78.1694717  21.8793678  16.6148720
  79.1259384  21.9215050  17.7872124  75.0146255  11.2892952  36.3273277
  75.5998535  10.6311302  35.9524117  74.1368637  10.9971943  36.0814667
  65.4205551   3.6563911  27.0328674  66.1961136   4.2171283  27.0506039
  65.7242813   2.8400040  26.6360111  77.3469467  58.1679840  27.5164967
  76.8384628  58.7513809  28.0798149  76.8842697  57.3310890  27.5586090
  60.2428894  36.1593590  27.6270714  59.5528259  36.8118591  27.5075340
  61.0257263  36.6725578  27.8271427  78.6857376  34.5853386  10.3743076
  78.8320694  35.3763008  10.8931475  79.0720749  34.7835732   9.5212679
  59.9159622  60.2263870  46.2526512  59.6735611  60.5341797  45.3793030
  60.3954086  60.9586449  46.6401558  86.9138947   7.4854193  32.6658516
  86.1816254   7.2905302  32.0810089  86.5632324   8.1277266  33.2828712
  42.4289589  29.7677650  87.7594223  42.0553360  29.7341022  86.8787918
  43.0561905  30.4900532  87.7260361  35.0275650  11.1397762  84.3479843
  34.8639565  12.0655508  84.1679688  35.4393196  11.1329241  85.2120667
  54.4002876  47.9871559  70.1067505  53.9953766  48.7536964  70.5125809
  54.7428703  48.3102379  69.2733917  53.6520195  26.0164089  52.0045280
  54.3290291  25.3651676  51.8207512  53.8103523  26.7128773  51.3672752
  75.5569077  59.4550972  50.8424797  74.9039383  58.7654266  50.9617462
  76.1131821  59.1378136  50.1310616   5.8561349   8.8266983  29.9100285
   5.3712177   8.7943182  30.7346745   6.2513738   9.6984148  29.8986607
  40.4970474  36.8229103  22.3526249  40.5569153  35.8783684  22.2094936
  41.2757454  37.1797333  21.9253826  74.7630005  10.6196690  51.2147522
  74.0487213  10.0032625  51.3762627  74.3605194  11.3253450  50.7085304
  47.7089539  54.8896103  64.2470779  48.0250702  55.2503929  65.0754089
  46.8775215  54.4709473  64.4699478  72.0922928  45.6628723  87.0202866
  71.3036423  45.4374313  86.5269012  72.5741653  46.2558594  86.4437485
  35.5403290  37.2296333  67.3814621  35.9907379  36.4151840  67.1577835
  34.8817444  37.3354568  66.6949463  51.6987686   9.6733828  36.7869377
  50.9886055  10.1754341  36.3871346  52.4417191  10.2768097  36.7984352
  19.4473000   2.9843869  71.4699707  20.2099762   3.3340867  71.0092468
  18.7072048   3.1907969  70.8991089  38.7275810  40.8166428  24.2704449
  38.1586075  41.4224930  24.7452602  38.1934090  40.5111961  23.5372372
  11.9730625   3.8622050  75.7610397  11.5819635   4.4775591  75.1408691
  11.5806246   4.0897074  76.6039352  80.7150497  48.6175423  31.0934353
  81.5163879  49.0919304  30.8719864  80.6352615  48.7121277  32.0426025
  37.9816208  65.1086578  48.2627106  37.4868355  64.9336472  47.4622154
  38.8672676  65.3067551  47.9583778  70.0646515  13.0004663  50.7156563
  70.5237045  13.7013836  51.1784897  70.7015076  12.2874260  50.6684952
  70.1853561  29.1089821  11.3793964  70.6996613  28.4106445  10.9743681
  70.2396393  29.8365955  10.7598305  24.8975124  42.6929893  15.8613672
  25.1686726  43.5640907  16.1510067  25.1709061  42.6493683  14.9450788
  27.1209869  48.4409943  66.9438934  26.5548611  48.0895805  66.2566986
  26.5156593  48.7550163  67.6156082  63.0733376  44.9955902  28.9252605
  62.5387383  45.6977081  29.2960205  63.4247437  44.5344391  29.6868954
  65.3414154  36.6068840  80.4441147  66.0982437  36.4284554  81.0023270
  65.0151443  35.7410316  80.1990051  50.9633179  36.2287331  22.9664536
  50.6017685  35.5026131  22.4582558  50.9677849  36.9678879  22.3582897
  32.4974937  57.8829460  57.7036209  33.1073761  57.3036728  58.1604767
  33.0257759  58.2964363  57.0208511  46.9224243  62.0458069  69.1520309
  45.9941101  62.2493896  69.0379410  46.9940987  61.1188698  68.9242554
  79.1891556  44.7703590  70.1090546  79.0806808  43.8565292  70.3724442
  79.7650528  45.1449814  70.7755585  33.7224350   8.8839207  75.9652023
  33.5033646   9.6393890  75.4197540  33.9481316   9.2601280  76.8159409
  80.9052887  43.4862900  44.4876251  80.2945633  44.1695480  44.7640457
  81.4573669  43.3339348  45.2545853   9.7050228  66.6848297  51.7661095
   8.8241730  66.3674393  51.9651070  10.1448927  66.7189865  52.6155701
  45.6871109   7.3537583  15.6496172  44.7449608   7.2198882  15.5463448
  45.7935982   8.3048897  15.6651831  41.7199783  25.9803925  84.0657730
  41.3341217  26.7641544  84.4570084  40.9776268  25.5145111  83.6809387
  27.5506229  29.7619781  70.1123505  27.2818298  29.2695885  70.8879318
  27.1565437  30.6264591  70.2290039  34.6697350  43.2079277  45.1501770
  34.8248062  42.2996063  44.8910751  34.6945496  43.1916504  46.1069183
  12.6329546  58.8780899  58.8492241  13.3247089  58.3947258  59.3009644
  12.3826876  59.5682602  59.4634399  83.5386658  55.9391670  30.2826691
  83.7767563  55.0433426  30.0438271  83.5421982  56.4171371  29.4533520
  72.6777649  68.3402786  19.7600136  72.5091934  68.0265884  18.8715248
  73.6321945  68.3589706  19.8303642  19.3085651  25.0194225  79.1635132
  19.7210464  24.2428436  78.7853394  19.2278957  25.6290188  78.4299469
  67.5797272  36.2916527  21.8060322  68.4682922  36.3507156  21.4550343
  67.5561829  35.4480057  22.2576256  66.8415070  41.1833000  69.7214737
  67.4698410  41.8153534  69.3722916  66.0123062  41.4132919  69.3022461
  60.7199478  69.0683746  24.9102917  60.3909683  69.3119583  25.7755489
  61.4213638  69.6958008  24.7353840  57.5812111  15.3410168  36.5837440
  57.8827972  16.0315609  35.9934654  56.8725700  15.7459679  37.0838165
   1.0772414   4.7743502  37.0132408   1.3849243   5.5299525  36.5126152
   1.3713380   4.0164204  36.5079880  64.5757446  48.9374504  13.4762068
  65.0297852  48.3060188  14.0342169  63.8146629  48.4606400  13.1450806
  71.8166733  28.0758724  57.8164978  71.9973450  27.2925415  58.3360939
  72.1571808  28.7976513  58.3450050  85.0720673   9.0796194  79.1900101
  84.5120697   9.5908804  79.7741699  85.0502472   8.1937523  79.5519409
  22.5394745   6.7070775  72.2086334  23.1392479   7.2020488  71.6505051
  21.7278061   7.2143173  72.1970062   2.2250211  65.9746399  62.0302086
   2.5789955  65.2235947  61.5539093   2.9974763  66.4558716  62.3267937
  33.4702148  29.0415592  86.5292892  32.5484390  29.2042809  86.7294846
  33.7245178  28.3382320  87.1266937  75.2784882   0.3630911  65.6118622
  75.9292679   0.8781670  65.1349792  75.6753922   0.2104933  66.4694214
   3.9395089  27.9566555  75.7411804   3.3882437  28.7328968  75.6422577
   4.2832165  27.7934608  74.8628540   9.7724714  66.7561188  15.4044304
   9.7931175  67.3655548  14.6665993   9.6417303  65.8974228  15.0022230
  53.4096298  56.2793159  62.2058983  52.6871948  56.8074570  62.5455780
  53.8803329  55.9870682  62.9864502  28.6536083  18.3487759  81.6464310
  28.7397900  17.4485741  81.9601822  28.4150124  18.8519573  82.4249573
  68.6404495  29.1730938   5.4613857  68.1175385  28.9361191   4.6954656
  69.1046219  28.3685703   5.6927304  16.5475616  29.3974705  75.1065979
  17.1761532  29.4199276  74.3850708  15.7217073  29.1399822  74.6968460
  54.2103844   1.1964813  74.2395020  54.9966278   1.7410244  74.2785645
  53.5435028   1.7052760  74.7006226  73.2820511  28.7510452  77.9065704
  73.8661575  28.2355118  78.4626999  73.4826660  28.4625568  77.0161972
  63.9466782  50.1501694  39.0749855  63.6923943  49.3407402  39.5181503
  63.1869888  50.7245522  39.1708527  27.3734627  44.8343201  57.4545975
  26.9639683  45.3918381  56.7929916  26.6667919  44.6314125  58.0675201
  45.3047638  34.2395477  32.6880035  44.9510384  33.7769547  33.4476814
  45.4649734  33.5516701  32.0419426  46.7678070  71.4341812  54.7556229
  47.3451691  71.7238159  54.0492287  47.3175507  70.8680191  55.2973557
  81.1172333   7.1174245  32.6727486  81.6181107   7.1321235  33.4883118
  80.2267151   6.8929443  32.9426003  46.9493942  60.9303513  85.1409607
  46.7079544  61.7531166  84.7155228  46.4232864  60.9106789  85.9403687
  33.6425552  63.6811638  67.6925583  34.1415024  64.4874649  67.5615768
  32.7531166  63.9023743  67.4165115   4.0073943  54.5783730   6.0761342
   4.3559504  55.2249641   5.4624076   3.5922911  55.0997429   6.7632260
  15.8075457  66.8229980  75.6447144  16.7490673  66.7760315  75.8107376
  15.5279083  67.6295090  76.0778122  82.4516602   7.4505343  83.6370468
  83.0554810   7.8888111  84.2366638  82.5547714   6.5190306  83.8317337
  14.2344294  44.5448036  21.2541542  14.2000399  44.4027481  20.3081779
  14.4103022  43.6780510  21.6202736  73.6315918  35.1205330  73.5615845
  74.1570129  35.0991478  72.7617645  72.8448181  34.6203232  73.3447571
  51.3794785  11.5733833  12.0092182  52.1033783  11.1917629  11.5126619
  50.6461067  10.9764900  11.8605127  54.9722099  64.2185745  63.8456764
  54.8438721  65.0175247  64.3569794  55.0670853  63.5274277  64.5010757
   6.9122438  35.2958908  23.8645077   7.3186216  36.0521927  24.2877026
   7.1654539  34.5513535  24.4102020  15.2093687  12.8233814  17.2706203
  15.7336493  13.6237793  17.2436810  15.0107622  12.6982746  18.1985950
  60.4567032  22.9537888  80.4981537  60.8902054  22.2021046  80.9022293
  59.7570915  22.5708103  79.9689026  72.3180008   5.9608493  16.6908550
  73.1301956   5.4660873  16.7993698  71.7760239   5.6976457  17.4346371
  31.8921547   8.4653311  20.9145813  31.6998329   9.3907747  21.0655727
  31.0425911   8.0297813  20.9836349   2.1569839  64.6009369  87.5595093
   2.8523521  65.1129684  87.1465759   1.4668777  65.2383652  87.7430038
  52.4272804  28.5808220  35.5403175  51.6158142  28.2009983  35.8772049
  52.2547569  29.5216827  35.5050049  83.9135361  33.1413269  29.7510662
  84.7248077  32.6873169  29.5231686  83.5251541  32.6052437  30.4424438
  80.8659744   4.6763158  37.6175308  81.7589645   4.3441477  37.5254745
  80.9760971   5.5845785  37.8988914  38.7294617  45.5368729  35.5323677
  39.3268394  45.9189339  34.8894043  37.9215317  45.3784218  35.0441360
  11.5101013  34.9760323  78.5760956  12.0968370  35.0307884  77.8217926
  11.9935808  35.3973694  79.2866898  12.5524931  68.6287155  66.4071884
  12.6342421  68.5696793  65.4553146  13.4276762  68.8731995  66.7080383
  11.8028488  44.8013611  26.5992317  11.5586252  44.9751434  27.5082893
  10.9822960  44.8768082  26.1121674  31.4602203  70.1312103   2.2703750
  31.3893547  69.8872070   3.1932359  30.7800922  70.7929230   2.1446805
   4.8170590   7.0799952  66.0622025   4.8737550   7.9679399  65.7092590
   4.4514184   7.1938481  66.9394608   8.1951551  62.2116547  87.5617142
   8.0956612  61.8518295  86.6803207   8.0232000  61.4712524  88.1435013
   4.5243993  43.6396904  13.5742531   3.6176939  43.9449234  13.6050634
   4.5267601  42.9640427  12.8962183   5.0551748  22.5931473  14.2301035
   4.7761765  23.3215084  14.7849770   4.8289900  21.8097744  14.7315006
  22.7191601  12.7530775  67.4739761  22.5253429  13.6617546  67.2438202
  21.9965038  12.4911165  68.0443954  82.5626984  55.8806076  68.7894440
  82.2197037  56.7661743  68.6696243  82.4777451  55.7158737  69.7285233
   2.4475586  26.1385517  26.2623348   1.5269893  25.8763008  26.2594929
   2.9218314  25.3508186  25.9963036  40.4129562  11.7605677   0.4958448
  40.1160812  11.8652611   1.3998011  39.6233406  11.8827219  -0.0312435
  27.2500782  51.9329987  65.7007599  27.2219963  52.8836288  65.5923920
  27.8315182  51.7942276  66.4483566  77.5188828  21.2524986  22.3906765
  77.2677994  20.6570454  23.0968094  77.8484955  22.0309601  22.8396549
  19.6430779   8.2560854  85.5547333  19.9920025   8.0231113  86.4150848
  20.1052399   7.6808224  84.9450531  50.8112488  33.8379860  25.9531326
  51.6955681  33.8375931  25.5867882  50.9410172  33.9715042  26.8920498
   0.4746711  41.3221588  80.2752762   0.1809367  40.4162102  80.1792984
   0.5406283  41.4536362  81.2211075  48.6328468  26.2098064  70.2592926
  49.0746613  25.4755650  69.8327637  48.3022385  25.8460007  71.0806122
  66.4263992   2.5541310  30.1847191  65.8390045   1.9872557  30.6845608
  65.8638000   2.9599741  29.5251694  49.9222908  28.5680790  36.5588799
  49.9841309  29.4924126  36.7997398  48.9907227  28.3621693  36.6364212
  34.5374069  49.5901222  76.5533981  35.3247414  50.1337852  76.5257187
  33.9048996  50.1096954  77.0495911  21.9174595  54.9985886  67.9404984
  22.8685646  55.0680466  67.8579865  21.7672462  54.8667603  68.8766022
  29.6749420  67.4219055  58.6381683  30.0508690  68.2426682  58.9563713
  29.2546024  67.0369644  59.4071732  48.3407288  52.1742401  29.1251049
  47.5005569  51.7965279  29.3852539  48.4092674  52.9807167  29.6361141
  68.2800980  61.5088501  79.2584152  69.0762329  61.7448616  78.7822800
  67.6386566  61.3196564  78.5735931  57.1258011  50.5491714  11.0872717
  56.8445206  49.8907242  11.7225351  56.5976448  50.3719940  10.3088808
  44.2050591  60.3939171   1.7850213  43.2890282  60.6067123   1.6065830
  44.1670494  59.7312622   2.4747143  77.7148743  47.7628365  46.2791138
  77.7211914  47.6780090  47.2325287  77.2571793  48.5873528  46.1150436
  13.9663773  56.2243347  69.6928635  13.5595388  57.0895271  69.6464386
  13.6471205  55.7674713  68.9146729  70.7742691  36.2483711  58.9078026
  71.2973938  35.4785080  58.6844482  70.4579926  36.5755653  58.0656967
  49.8769417  33.3601952  37.6161575  50.4515839  33.8618240  37.0378952
  49.2762451  32.9082184  37.0236092  35.3061256  50.9512138  69.9893265
  35.6619759  50.5799255  69.1820145  35.1796036  51.8790207  69.7908325
  81.8505630  66.5426788   6.1218600  82.5939331  66.6637573   6.7125912
  82.2478638  66.4060593   5.2617936   0.3503267  66.4435730  58.9199181
  -0.2636077  66.8218079  59.5494080  -0.0476934  65.6102219  58.6682625
  17.7540340  17.6544437  85.8664398  18.4872875  17.2117271  86.2937241
  17.9701176  18.5851917  85.9234314  41.3292656  12.1278515  13.8568325
  40.5305634  12.5976801  14.0967684  41.7481804  12.6864204  13.2020464
  56.6633186  11.0098095  19.3011589  56.1619148  10.4309769  18.7268944
  56.1699715  11.0194960  20.1213703  38.3999329  37.1268768  19.4493446
  38.7782288  38.0014839  19.3588753  38.2848816  37.0120850  20.3926468
   7.7440543  31.8563156  21.2941608   8.0607281  31.4083958  20.5097389
   7.4423513  32.7080345  20.9782810  13.7801104  38.0512390  30.4917984
  12.9141855  37.6608887  30.3733425  13.9615459  38.4885254  29.6598759
  48.6537399  46.0928383  13.2530794  48.7910080  46.5204353  14.0983896
  47.7072983  45.9586067  13.2034569  64.0819473  41.3145943  30.0571098
  64.2622681  42.2018166  30.3678360  63.1463432  41.1904564  30.2166901
  64.1275635  71.1490555  39.4953156  65.0424805  71.1847076  39.7743874
  63.7107277  70.5520172  40.1166267  52.0011292  18.5453968  31.2480736
  52.0561638  19.4497585  31.5568333  51.5526962  18.6071301  30.4046707
  25.3849373  40.4415588   5.2526321  24.6978092  40.8883476   5.7470703
  26.0592842  40.2456779   5.9031067  45.0819016  49.1705894   8.5735569
  44.6644020  50.0241165   8.6894035  44.5668678  48.7429161   7.8894029
  17.9081097  25.1275978  81.4366074  17.0985165  24.6369896  81.2948532
  18.3325787  25.1423054  80.5787964  43.8638840  47.4025116   3.3723295
  43.8683548  46.8933754   4.1828790  44.6777725  47.1583710   2.9316363
  11.8756447  52.2908096  84.0028229  11.7566586  53.0330238  83.4102020
  11.5176105  51.5428162  83.5247574  55.0745544  14.2693872  32.4606018
  54.5052910  14.5624008  31.7490444  55.5486755  15.0568333  32.7277527
  29.9125805  24.6692352  71.6570892  30.3787460  23.9357471  72.0582352
  30.3456039  24.7952557  70.8127899  47.5505447  58.5859947  36.7641830
  46.9896927  58.6801643  35.9942436  47.8964233  57.6957016  36.7011108
  53.4219589  28.8744183  20.7610054  53.5257912  28.3754539  21.5712433
  53.3252563  28.2084332  20.0803127   8.1413479  30.9144211  18.6192265
   8.3576288  31.0146770  17.6921864   7.9162893  29.9888878  18.7139320
  44.1276093  32.9653282  34.7757301  43.2243767  32.7268028  34.5671539
  44.1007538  33.2222404  35.6974144  73.3100891  30.1887207   0.3709748
  73.9075928  29.4416790   0.4049010  73.8751984  30.9392834   0.1878370
  68.7018127  70.2867737  18.2759762  68.2264786  70.4931412  19.0807762
  69.2006683  71.0803986  18.0822411  41.0174217   5.8900914  23.5899105
  40.3064804   6.5171890  23.4574604  40.7559433   5.1210933  23.0834484
  20.8872395  23.8977718  15.6967268  20.4899349  24.4175568  16.3954449
  20.5039158  23.0266266  15.7987003  13.9454832  31.0310192  69.2095032
  13.2292233  31.2915401  68.6304245  14.1030235  30.1111641  68.9967117
  32.8080406  71.4175186  85.1549530  33.7070389  71.2773590  84.8576508
  32.3273773  71.6533051  84.3614807  49.1758308  63.0597496  85.5013428
  48.6332436  62.3784599  85.1042557  48.9614105  63.0237160  86.4335175
  61.2303658  42.4762955  37.7169609  61.3174248  42.0349770  38.5618820
  61.9483414  42.1268349  37.1891136   3.1060939  17.8248405  23.9622192
   3.4419742  17.0511837  24.4148464   3.0915544  17.5744228  23.0384712
  79.2526855   0.9808440  70.7616730  78.8202515   1.3264371  71.5425720
  80.0701065   1.4752949  70.7019196  63.7025604  18.5118904  63.5968513
  64.4758682  18.4756012  63.0338974  64.0066528  18.1835346  64.4429855
  77.6641693  21.8401985  59.7380409  77.2907410  21.9903278  60.6065140
  77.3787918  20.9570084  59.5040245  74.8635941  67.2320175  85.0881195
  74.3230286  66.6280136  85.5972443  74.2443085  67.8755264  84.7437210
   8.0819044  44.3554153  62.3669243   8.5518293  44.9588242  61.7913399
   7.6445408  43.7474670  61.7708168  11.0363731  11.0935955  15.8125734
  10.3009014  11.2276659  15.2147951  10.6879215  10.5217829  16.4965649
  66.3981781   4.6237741  17.1656342  67.1486206   5.1643648  17.4122658
  66.4741669   4.5272775  16.2163486  27.8681698  53.8979492  54.3242302
  28.4824409  53.2297096  54.0203209  28.2702866  54.7276421  54.0670433
  78.2444305  23.0004692  63.0416489  77.9421310  22.1032486  63.1825256
  79.0458603  23.0674725  63.5607300  47.1103783   0.5741473  63.3462677
  46.3502998   0.8626798  62.8410339  46.9197235   0.8481899  64.2433624
  32.0369110  45.4588509  47.5767517  31.3363800  45.2830696  46.9485893
  32.6713104  45.9827919  47.0876198   1.0264488  16.0717525   7.2424517
   0.4859570  15.6306829   6.5870452   1.8488001  16.2574234   6.7891345
  78.7271347   2.1896961  51.8984146  78.0758286   1.5072854  51.7360649
  78.3427200   2.9818535  51.5229836  72.2328262  43.6101112   6.8696136
  72.9678879  43.1809692   7.3075018  71.5674744  43.7007408   7.5517659
  47.5228462  48.8703613  71.3859329  47.5872345  48.3703537  72.1996155
  48.2157211  48.5136375  70.8301392   2.6995232   5.0653191  55.1929321
   1.9361814   4.5068831  55.3402100   3.4448266   4.4655485  55.2250328
   3.2320254  66.7698135  17.1197128   2.7466681  66.2548141  16.4751682
   2.7595074  66.6326904  17.9407825  20.6068153  35.9261398  65.8439026
  20.2357216  36.3144913  66.6361847  20.4347153  34.9888000  65.9333801
  33.0953751  55.3249016  79.2329712  32.2952614  55.8488617  79.2718735
  33.1558075  54.9155464  80.0961151  68.5146027  23.3494873  85.3853455
  67.9132080  23.4023647  86.1281586  68.2491989  24.0675354  84.8107147
  67.2959442   7.2543120  29.4347267  67.2543945   6.5192981  30.0464935
  66.4088745   7.3224368  29.0815849  27.4510803  33.8881149   0.9714290
  27.7582340  33.4161835   0.1973693  26.5510960  33.5862732   1.0945165
  48.0817680  12.4155293  14.0821457  47.7650337  12.5580311  13.1901789
  47.4776688  12.9131718  14.6331902  60.1662750  23.5998325  19.8900833
  59.7520561  24.0353260  19.1451015  60.7357216  22.9395065  19.4951992
  50.6231308  47.9918594  78.4350204  49.9050179  48.4661293  78.8540878
  50.8744164  47.3246269  79.0736771  21.1564732  20.5777321  83.9132385
  20.3394737  20.4277821  83.4375763  20.9356899  21.2435284  84.5645523
  71.5613174   4.2530398  87.1492691  71.0410538   3.9707100  87.9014969
  71.5784378   3.4909747  86.5703125  11.2185831  55.0889015  35.5230865
  10.3219051  55.0866356  35.1881332  11.5908670  55.9115105  35.2053566
  61.1265335  35.5040436  23.9551716  60.9785423  35.0297394  24.7733212
  61.4956894  34.8494987  23.3622742  80.9230728   3.7827039  76.4168930
  80.1306381   3.9591668  76.9239807  81.6382294   4.0824904  76.9780655
  79.1311340  55.3925476  13.1292791  80.0570831  55.2899551  13.3490868
  78.6671753  54.9188881  13.8196545   1.7422881  20.1849003  87.4026337
   1.8375278  20.3403759  86.4629593   1.8016354  19.2340450  87.4953003
  67.3787079  14.1350155  52.5072327  68.0010223  14.8327208  52.7125778
  66.5629196  14.5933790  52.3056793  35.2296104  51.9288940   8.4172277
  34.9458008  52.4994049   9.1315136  34.4674530  51.3803749   8.2315445
  70.0149841  36.9363136  80.0701675  69.5521927  37.1478119  79.2594147
  69.5985336  37.4859352  80.7340393  84.0179977  37.9790497  88.3038712
  84.1064529  37.3983383  89.0596390  83.3311996  38.5965385  88.5553665
  12.1448288  34.7674294   7.2392116  12.9593849  34.3355408   7.4965105
  11.5633717  34.6490784   7.9902987  53.4003944  64.1084595  47.6594849
  52.5874557  63.6086502  47.7339859  53.3109131  64.8090057  48.3055916
   8.3157806  38.0622711  63.7075996   8.5017929  37.2263756  63.2799225
   7.6036119  37.8665352  64.3164825  43.7996902   4.0911479  47.5901299
  43.8744850   4.3583632  46.6740303  43.5328255   4.8867149  48.0506554
  43.3743820  32.1678200   2.4322038  43.2558441  31.3411617   1.9644282
  43.0503235  31.9917927   3.3155112  54.0346184  63.8367424  26.3128262
  53.9979362  63.4232597  25.4503174  53.1219177  64.0348969  26.5224552
  77.9855194  53.4765663   1.7944546  77.8843842  53.2298317   2.7137620
  77.7528076  54.4046860   1.7685713  28.0711594  33.5672531  81.7705612
  28.4442234  34.1238251  81.0869827  27.6802521  32.8339272  81.2955322
  43.6919556  19.7969704  78.3012009  43.4861870  20.6511192  78.6810989
  42.8862953  19.2899151  78.4013901  10.0696211  38.0890007  23.4225616
   9.5740490  38.6510239  22.8269367  10.9192657  37.9780998  22.9959030
   8.4241762  43.2831726   4.9351707   8.2360353  44.0337524   5.4986115
   8.6293821  42.5728340   5.5430675  47.8492088  31.0486984  74.3365784
  47.0572739  31.3217335  74.7997437  48.3882446  31.8387299  74.2975311
  12.6493101  34.9196777  32.7531853  12.1808138  34.2231064  32.2932625
  12.0065966  35.6236610  32.8401451   0.9929944   8.0568371   6.8128076
   1.7174159   8.6807880   6.7666430   0.2168889   8.6004963   6.9481835
  71.0413361  60.1255836  25.1346436  71.9348450  59.8053780  25.0107327
  70.9368591  60.1824837  26.0844212   6.2516809  26.3052006  65.2341919
   6.6747217  25.5470676  64.8310699   5.6817489  26.6540089  64.5488129
  30.4886017  70.5391159  86.5356674  31.2185173  71.0994339  86.2720413
  30.8099976  69.6476746  86.4004974  58.1376343   3.0341294  13.6352568
  57.4387474   2.9845045  12.9830847  58.6210251   2.2145417  13.5311384
   4.7875524   3.0285068  34.3272324   5.3415947   2.4133377  34.8076897
   5.0170503   2.8901851  33.4083061   2.3301330  44.6847878  10.2857990
   2.7934990  44.2942047   9.5448751   2.9270508  45.3572273  10.6140509
  34.8802109  61.5114670  32.8767853  35.8112526  61.3223648  32.9935493
  34.8185654  62.4640503  32.9475975  78.2257233  19.1142025  24.3148937
  77.9932022  18.1920891  24.2059422  78.4668884  19.1929607  25.2378616
  55.1086922  49.7978134   5.8248034  54.6775169  49.5707932   6.6486850
  55.6117134  50.5866470   6.0271506   0.5985741  31.6657963  14.5405159
   1.1644396  31.1630669  15.1264267  -0.2831190  31.5368576  14.8901215
  70.2365646  67.8284073  12.2212143  69.9449005  68.6334610  11.7933750
  69.6295242  67.7121353  12.9521151  67.5084610  59.4608727  33.9581718
  66.8274231  58.8370209  34.2096252  67.3146515  60.2462196  34.4699326
  53.8119125  52.0289612  44.1023216  53.3048859  51.9668770  44.9118309
  53.5140610  51.2872353  43.5756721  12.3008471  10.5635958   9.6970921
  12.8123369  10.0143032  10.2911348  12.9375038  10.8814363   9.0568752
   7.3416953  25.1126328   0.4476354   6.7000561  25.7596703   0.7406784
   7.0827174  24.3025570   0.8868831  62.3752327  35.7253571  70.6719208
  61.4838295  35.4538383  70.4530487  62.8160973  35.8042831  69.8259659
  20.7467632   6.2455435  17.0230217  20.4306736   5.7192736  16.2886105
  20.8880005   5.6131601  17.7275600  40.7009315  48.4898338  10.0743790
  41.3750305  48.6999626  10.7206535  40.7254257  47.5355110  10.0043764
  51.2225952  28.7107582  23.4470482  50.8139191  29.0915337  22.6697273
  51.9014549  29.3391933  23.6929188  33.2419624  65.2630615  23.5858898
  33.3482132  65.9984894  24.1892872  33.2675514  64.4876404  24.1465206
  12.1841984  53.1600342  56.4098053  12.1509008  52.4072113  57.0000458
  12.7997227  53.7635612  56.8258820   6.2572441  44.6092606  26.3625336
   5.9844623  44.7441216  27.2700768   5.5265532  44.9413300  25.8409462
  67.7058792  61.5498085  49.3130760  68.4022369  61.1668510  48.7795296
  67.6951447  62.4742928  49.0651970  77.2707825  32.4252167  65.9975281
  77.4642792  32.4500885  65.0604172  76.7721329  33.2258568  66.1604614
   7.3433337  18.3018608  65.2885590   8.1978903  18.5957623  65.6041336
   6.8569198  18.0827522  66.0833054   3.5176890  10.3953438  84.6301117
   3.8956385   9.7546711  85.2325439   2.7906606  10.7826767  85.1175919
  72.6245880  35.1829834   3.3359587  73.1186142  35.7170067   3.9580479
  72.1403427  34.5644722   3.8829327  26.1867123  59.4634933  76.3702316
  26.6049976  58.7106171  75.9525604  26.2397976  60.1603508  75.7161636
  26.1132259   6.4411573  83.5653152  26.3040485   5.6439061  83.0711365
  25.4984684   6.9239979  83.0128860  69.5637970  49.0736885  49.5907402
  69.3917465  50.0149269  49.5643501  69.1627502  48.7797394  50.4086533
  77.8519745  66.5297394  41.9245491  78.3482208  67.2802048  41.5977745
  76.9399719  66.7398682  41.7237320  79.8527069  68.5501633   7.0374436
  80.2945862  69.1133347   7.6729035  80.3872910  67.7566910   7.0081429
  17.9100666  10.0194693  84.0788651  17.9915829   9.6775475  83.1885452
  18.6586685   9.6496782  84.5469208  46.1781693  18.1610851  68.4182358
  45.9591560  18.0168571  69.3388138  45.4856873  18.7373142  68.0947266
  58.5981369  49.4511147  67.5663147  59.3168869  49.8016548  68.0923920
  58.9878464  48.7219543  67.0839462  67.8718491  29.0208092  25.3183651
  68.5105820  29.6077442  25.7230320  67.9711075  28.1952572  25.7925434
  31.6071148  34.0347786  12.3140202  32.0369225  33.6933670  13.0981989
  31.8799286  33.4417381  11.6139412  70.1011200  24.3989182  46.8210487
  71.0577393  24.3730717  46.8422546  69.8300629  23.5848732  47.2454185
  40.5425797  63.7778206  48.0672760  40.5944824  64.7333145  48.0910339
  40.1032524  63.5414352  48.8841896  44.1028862  33.1502762  58.2369576
  44.0664520  32.8061333  57.3445091  43.7301712  34.0293922  58.1700630
   6.1814795  19.0675869   2.1093907   6.8298669  18.8738308   1.4324244
   6.3200965  18.3927765   2.7739556  21.3602695  53.0901604   8.4066601
  20.8374157  53.8599167   8.6310034  21.1584473  52.4549942   9.0937290
  52.8759460  67.9725189  62.3031197  52.1210251  67.4941635  61.9603386
  52.5148964  68.8068008  62.6028557  75.0644531   6.3803678  70.3103256
  75.8730774   6.0446086  70.6971512  75.3163300   6.6534414  69.4281540
  21.4040127  37.6382904  21.2347698  20.9412346  37.7924767  22.0583572
  20.7556381  37.2162704  20.6710854  75.4115601  28.6861668  47.5583458
  74.9604034  28.2153130  48.2590485  76.3389130  28.6258087  47.7876968
  50.5798454  34.2380295  69.1399994  51.3505363  33.6722679  69.1867218
  50.2028923  34.0586281  68.2786331  45.2282524  34.4871025  69.9028854
  44.6306419  35.2081909  69.7050781  44.7591057  33.7025070  69.6190872
  10.7670574  32.8569641  27.7101212  10.7756443  32.7751846  26.7564602
  11.1953869  33.6954498  27.8824749   4.9874387  53.3465004  38.0223579
   5.3131990  52.9880943  38.8479843   4.4009433  54.0562248  38.2841797
  38.0244255   4.9126744  85.6887970  37.7139168   4.2979188  85.0240479
  38.8220177   4.5106225  86.0329361  69.9173279   5.7469816  85.2373886
  70.0499954   5.0667491  85.8976288  70.7859116   5.8876743  84.8605728
  59.9472504  29.4848557  17.7634983  59.9936028  29.7849312  18.6712646
  59.7585068  28.5488091  17.8300056  66.7453918   3.5491264  80.2352371
  67.4976044   3.8802788  80.7258911  66.9426498   2.6237850  80.0901031
  64.9556427  52.3399124  31.1553116  65.7739029  51.9852409  30.8076153
  64.6597672  52.9584618  30.4874153  85.5765915  22.7875595  37.3913498
  86.5155945  22.9577599  37.3169289  85.1684341  23.6472015  37.2881012
  34.1576691  24.1923409  67.4619217  34.8592834  24.8154583  67.6508484
  33.7660027  24.5118713  66.6490707  53.5831718  71.2733154  40.9827080
  52.8377342  71.4133606  41.5666084  54.3157005  71.0868912  41.5699730
  82.0521088  41.7562904  75.4475708  82.9853058  41.7793655  75.6593399
  81.9237823  40.9081154  75.0228806  10.4998255  39.1891861  54.0748863
   9.9109249  38.4347038  54.0884628  10.3631220  39.6149826  54.9211960
  46.8684464   3.3681500  14.5145292  47.1812859   2.6543503  13.9587841
  46.5966873   2.9386966  15.3256702   6.0984545  17.8985577  83.0009308
   6.6947174  17.1731796  83.1867447   5.3624191  17.7624245  83.5975494
  83.7279968  16.2100697  34.4135857  83.1437988  16.8103256  33.9502945
  83.6905060  15.3996162  33.9056587  55.0666122  38.0587769  16.9889030
  54.4752655  38.3300400  16.2867908  54.4881325  37.8538971  17.7234917
  80.4877930  21.4831638  19.2386284  80.1984100  22.1465874  19.8650169
  81.1158142  20.9506607  19.7267494  46.8811188  44.2510796  51.0869827
  46.7448311  43.3913383  51.4851036  46.9413300  44.8520660  51.8295631
  38.4286423  30.5797920   5.4761686  37.9485512  31.2496147   4.9892616
  37.9061890  30.4367237   6.2653489  76.7720642  42.3924217  79.8193970
  76.4505310  41.7647514  80.4666061  77.6452637  42.6311378  80.1304779
  60.7615662  58.5193443  70.7767410  61.2155266  57.7641411  71.1506653
  59.8804054  58.4771805  71.1482315   0.2935882  61.3074799  49.1397324
   0.3428984  61.9377975  48.4210510   0.9132125  60.6192360  48.8976250
  55.5973625  34.1221695   7.3373356  54.9513245  34.4527969   7.9614758
  56.2618523  33.6997223   7.8815999  82.0591660  32.5744820  20.9587345
  82.4235153  33.2254715  21.5584793  82.6182022  32.6237984  20.1833191
  59.1751976  11.8030357   0.0149117  59.3857918  12.4549150  -0.6536202
  59.5502968  12.1570959   0.8212449   1.1880624  22.6230068  47.3491936
   1.7574328  22.1963062  46.7089005   1.2934465  22.1042233  48.1466827
  72.4792633  12.3484812  23.0067883  73.1705246  12.0721903  22.4050827
  72.9424820  12.5913572  23.8084526  64.2599335  39.7331810   6.9672370
  63.9764442  39.0331192   6.3792043  64.9313202  39.3278313   7.5160193
  35.2451477  22.2302723  75.8649063  36.0036354  22.5619049  75.3843384
  35.4920120  22.3095646  76.7863159  73.7712708  23.7321854  70.9774246
  73.9219284  23.3401146  71.8375549  72.9773788  23.3052959  70.6553497
  50.8632889  12.1065321  84.3389969  51.3396492  12.8672495  84.6715927
  50.5282249  11.6720514  85.1233368  77.6259689  49.2060966  67.0099335
  77.0896988  48.4135132  66.9884491  78.5200882  48.8870659  67.1323700
  82.9455872  44.7011337  70.8955231  83.8322525  44.7883949  71.2454529
  82.9599304  43.8765488  70.4096375  52.4698486  37.6029549  59.9262276
  52.1576576  37.0953217  59.1771774  52.0478172  38.4566498  59.8296394
   3.0366476  43.3624878  77.4507675   3.4904439  44.0253372  77.9712753
   2.7213385  43.8366585  76.6813736  36.2087593  22.5707684  78.3859329
  36.5702858  23.4567719  78.4089508  35.5568504  22.5598106  79.0867386
   0.3587942  65.5026321  53.7473564   0.8420567  64.7857513  54.1581764
   0.7811286  66.2959366  54.0768089  21.2646694  49.3162460  73.9965210
  20.6604729  48.5747566  74.0335693  22.1340961  48.9161682  73.9801102
  58.2981339  70.1067810   4.9122949  59.0452042  70.1996002   5.5034842
  57.8848267  70.9701462   4.9112301  19.6741371  27.7305393  13.9489708
  19.6588364  28.5016041  13.3820019  19.1628513  27.9873257  14.7163563
  41.4748802  68.8720856  67.1169128  41.1739769  68.1422577  67.6582413
  41.7266045  68.4669037  66.2870407  26.7522221  66.7501984  56.9625816
  27.3263512  66.0255814  57.2106628  26.7622471  67.3341675  57.7209396
  23.7626114  46.6318283  30.2540531  23.1277447  45.9443359  30.0527325
  24.1630268  46.3542633  31.0779800  54.7329559  12.9133835  68.8979721
  54.2207756  12.6978960  68.1185684  54.2847672  13.6691399  69.2776947
  23.8835087  61.9810295  35.9478722  24.1686020  62.4723587  35.1774483
  22.9294491  61.9540939  35.8752213  83.9643097  64.5966110  53.2623940
  84.7460403  65.0834503  53.5233917  83.3042603  65.2711868  53.1026764
  65.3313370  36.1710472  54.6897507  64.8713684  36.2763329  53.8569374
  65.4063797  35.2236366  54.8038177  63.8790817  13.6926479  39.0212593
  63.5686913  13.0362806  39.6450119  63.7413559  13.2915668  38.1631203
  47.6256866   5.9670634  32.8140984  46.8702126   5.7829084  33.3722878
  47.8484879   5.1210060  32.4257965  76.5153351  31.1622334  78.1430817
  77.4036636  31.5161896  78.1003571  76.0120392  31.7043419  77.5355911
  28.8613548  51.7596588  47.5909805  29.2928581  52.5961571  47.4168930
  28.6196117  51.4301491  46.7254066  76.6631699  66.0829315  63.8527184
  76.1415024  65.3624115  63.4992447  76.1008453  66.4827881  64.5161438
  72.3499298   5.0836802  27.7159958  71.7872696   5.3707132  28.4351978
  72.2867813   5.7852054  27.0678406  51.7777748   0.9402720  24.7457180
  51.0646591   0.7926228  25.3669243  52.4670334   1.3531131  25.2660217
  35.7253418  23.8632965  83.7967224  36.4530411  23.3550701  83.4384003
  36.0304756  24.1427460  84.6598740  72.4048996  13.4385157  41.7690506
  73.1923676  13.9737511  41.8672981  72.0901794  13.6351757  40.8867188
  74.0413895   0.7240319  84.7258606  74.8742676   1.1178381  84.4661255
  74.2825623  -0.1271104  85.0914001  26.8352604   6.0178895  17.2395763
  26.3922234   6.2410803  18.0581951  26.1247368   5.8335738  16.6252346
   5.4775181  36.9636803  26.6623402   5.6019716  37.5921249  25.9511452
   6.2756920  37.0334854  27.1860561  64.5437546   6.7032347  11.2665319
  63.8276711   6.9889336  11.8338299  64.3913116   7.1606293  10.4396219
  64.1572342  12.4531136   0.1624376  63.9814911  11.5712624   0.4905937
  63.7753220  13.0340376   0.8203920   4.8957486   5.9041791  12.3102283
   5.1719642   4.9894629  12.3670721   5.7137899   6.3988004  12.2613440
  32.6576347  36.3038330  27.5060921  31.9180908  36.8760834  27.7106285
  32.6992073  35.6937218  28.2424793  81.3028641  23.7606964  13.7378511
  81.2017212  22.8697662  14.0728769  82.1326218  23.7444725  13.2609015
  81.8138885  10.2573147   0.0586175  81.4056244  11.0907774   0.2929093
  81.6941833   9.7061958   0.8320328  72.1264114  69.5171280  65.2993851
  71.2573776  69.1259842  65.3889465  72.6377563  68.8592834  64.8282166
  63.3187523  46.3435936  43.3769493  63.5266113  46.9466057  42.6632233
  63.5845375  46.8098755  44.1695213  47.7299652  26.9569588  16.7749596
  47.4220009  27.5098209  16.0568161  48.6085815  26.6859875  16.5088100
  57.1342735   1.4766079  38.4030800  57.9925880   1.6649464  38.7826347
  56.6958809   0.9348607  39.0592461  17.3337288  33.8060875  83.4804993
  17.5210152  33.0995903  84.0985794  17.2422390  33.3666916  82.6350479
  27.4269562   4.9690228  81.1535187  26.7532043   5.3836088  80.6146240
  28.0876732   5.6504912  81.2771606  55.0626755  26.9886780  54.4246063
  55.0885315  26.4573650  55.2203865  55.0210342  26.3509026  53.7120438
  43.5646973  51.2567139  49.3207359  43.5169106  50.3041420  49.4016876
  42.6858253  51.5181313  49.0460014  21.8854103  45.2686348  57.3946114
  21.7428417  45.2790565  58.3410759  21.7709713  46.1799583  57.1251106
  59.7162552  67.6315994  41.4289131  58.8804932  67.2146683  41.2193909
  59.9847336  67.2284088  42.2544975  69.4177017  36.8039627  53.0718384
  68.8527679  37.4619751  53.4769363  69.1831894  35.9852219  53.5087624
  74.8559799  21.7869682  17.4801788  74.9752426  21.1608105  18.1942768
  75.5355988  22.4456768  17.6232185  46.5226860  45.5429344  19.6030445
  46.1483574  44.6974258  19.8504906  46.5289688  46.0490646  20.4154606
  62.4877853  46.0261993  60.3432198  62.8613396  46.4282494  59.5589714
  62.4805031  45.0884590  60.1513443  23.6506004  52.5584564  76.8996658
  23.0542336  53.2760162  77.1134109  23.6495285  52.5230026  75.9431229
  15.9808254  60.5359344  65.8551941  15.0951710  60.5591621  66.2175598
  15.9583673  59.8263931  65.2131119  20.9886436  64.1236572  14.6729565
  21.2582951  63.2062073  14.7155285  20.3573780  64.2210846  15.3858681
  59.5397606  13.5511446  56.6904526  59.9685745  14.0211954  57.4055748
  59.0191269  12.8761024  57.1257591  49.8942490  59.1352310  12.3912210
  50.8488159  59.1846542  12.4421425  49.5979538  59.2962112  13.2870598
   0.6253921  51.2618942  20.2669888   1.1842176  51.0429611  21.0126514
   1.1532832  51.0420685  19.4993687  40.8347702  38.8447571  74.2043228
  40.8053513  38.1932449  74.9049606  41.7127724  39.2212830  74.2640991
  46.9625626  41.6331100  20.1653919  46.9052963  41.0198059  20.8980656
  47.8740730  41.5788269  19.8782845  70.7387543  65.4424515   7.2177210
  70.7309723  66.3542252   6.9264488  70.6251297  64.9336014   6.4149823
  47.3249016  51.9594803  89.2844467  47.3210182  52.6276512  88.5990524
  46.4202385  51.6488991  89.3212967  73.6744080  29.2330379  84.4003677
  72.9322586  29.5443745  83.8821793  74.1095352  28.5941925  83.8357697
  84.1477585  47.4517403  81.7787247  83.9963608  46.8242188  82.4854965
  85.0174713  47.8090973  81.9579315  47.0010147  16.9838467  88.3410416
  47.2304802  17.8662167  88.6325912  46.9883118  17.0429668  87.3857498
  32.3138390   3.1538780  30.4329872  32.1194687   2.2426219  30.2137508
  32.1350136   3.6376138  29.6266041   6.2784758  62.3736687   6.6740041
   6.4086909  61.4476280   6.8782635   5.8891320  62.3736153   5.7995648
  38.4420433   1.3637227   0.8394036  39.0903435   1.7230755   0.2337608
  38.9611206   0.9852447   1.5490142  40.0980873  52.0762215  78.0772476
  40.9138947  52.2464600  78.5481033  40.1813316  52.5762863  77.2653122
   0.4624963  38.0160255  31.6571960   1.1256707  38.5208130  32.1279602
  -0.2573239  38.6325607  31.5231266  18.5850239  40.1171341  77.5521774
  18.2100048  39.4273224  78.0996704  17.9487591  40.2356644  76.8469467
  36.3498878  61.7862663  40.8459892  35.4658966  61.9957390  40.5444679
  36.7974701  62.6316338  40.8814201  15.2885265  69.1535950  64.3299103
  15.1874113  68.4132614  64.9281845  14.5231810  69.1049042  63.7571068
   2.0150645  59.4235573  86.5679016   1.8679564  58.5571251  86.1885757
   2.9398232  59.4229698  86.8149872  56.9511223  40.5078888   3.6635840
  56.5873375  39.6438293   3.4704676  56.9275627  40.5697136   4.6184945
  54.9332657   4.3006773  46.5580750  54.1471062   4.5021105  46.0505219
  54.6690369   4.4273458  47.4693184  31.7389050   0.7626377  29.2211037
  31.8163357   0.6993412  28.2691422  31.2510509  -0.0210033  29.4743557
  40.2475967   3.3210976  22.1074753  40.7852440   2.8883910  21.4442024
  39.8710022   2.6030905  22.6162701  24.8271523  10.6799335  13.2045546
  25.3285770   9.8645945  13.1994448  24.6326694  10.8357220  14.1287508
  65.7516937  22.9843769  65.9716492  65.8230896  23.4654007  66.7961197
  66.5514374  22.4600410  65.9302444  19.0535069  34.4174690  78.3195648
  18.9490776  34.0252075  77.4526978  19.5813255  35.2010612  78.1658707
  54.9699936   9.8182449  34.8902550  54.6186142   9.0060129  34.5255051
  54.9132881  10.4478207  34.1714706  17.5275230  13.9588909  58.3726425
  17.0115395  13.1557846  58.4434586  17.5726795  14.1324329  57.4323883
  83.4213409  23.6478405  57.6273689  83.8385391  24.2757111  58.2172432
  83.9000015  22.8311787  57.7694283  32.6553116  26.3500690  15.6581535
  33.0995178  26.9569321  15.0660172  31.7615471  26.2962952  15.3197355
   2.7466052  24.7415562   6.4966044   3.3552527  25.2962723   6.0086794
   3.1142356  24.7014618   7.3794813   2.7549007   7.1805272  36.8347473
   3.2599607   6.7710729  37.5372391   2.7611628   8.1136951  37.0477982
   3.6252828  67.9011078  25.5577660   4.2061625  68.1031418  24.8242874
   3.2288949  67.0614700  25.3251324  39.5939140  61.9582024   6.3643999
  38.9769783  61.4118309   6.8513288  39.6745262  61.5280876   5.5130849
  12.4705229  26.0178814  66.5787582  12.6088953  25.2356243  67.1127625
  12.9998121  25.8696327  65.7951050  58.6127510  56.2294846  74.1223526
  58.1004944  56.1651955  74.9283905  59.5063896  56.0132599  74.3886108
  27.4130783  54.3327141  64.6557693  28.3078594  54.3386230  64.3158264
  26.9097652  54.8338776  64.0140991  73.8824081   9.2227116  88.6065826
  73.4010315   9.3806200  89.4187241  73.3265152   8.6206503  88.1118622
  53.7271118  43.4325142  43.8600998  53.4625473  44.3067818  44.1462708
  53.6708145  42.8947105  44.6499329  79.8484116  69.3739243  33.1773109
  80.7566605  69.4967651  32.9012108  79.4083786  69.0219574  32.4035416
  13.7456093  47.5240631  79.1075974  14.4290924  47.2929802  79.7366333
  13.1260948  46.7955399  79.1486435  13.4833384  43.9148979   7.5977087
  12.9471207  43.1418571   7.4213223  13.6146555  44.3163719   6.7387514
  51.2997398  13.0333576  29.5175152  51.7909241  13.5170975  30.1815662
  50.4295197  12.9188175  29.8993931  76.9518661  19.5487099  58.3575516
  76.4673004  19.7948875  57.5696220  76.3491211  18.9856853  58.8432846
  37.7676392  51.3732834  74.1815186  38.4476738  50.8213272  74.5676956
  37.3263245  50.8039207  73.5512009  23.5849476  40.9891090  51.3547516
  23.3407917  41.7605705  51.8660927  24.3119793  40.5999069  51.8407326
  18.7105961  11.4252043   0.6250464  19.0973701  10.7312622   1.1589780
  18.6520138  12.1767778   1.2149080   3.6908059  59.3782883   9.7077999
   2.8326313  59.2404099   9.3068542   3.6101079  58.9987679  10.5828333
  17.6692429  37.0090942  68.1602325  17.7805500  36.2745056  68.7637405
  17.2764435  37.6999779  68.6937332  71.3916016  42.8750038  36.2536697
  71.9465103  43.2127686  36.9566803  71.4606247  41.9233780  36.3302841
  41.3360519  63.9663544   6.5461450  42.2171211  63.5926704   6.5636635
  40.7611427  63.2170448   6.3904243  31.4863396  60.4517555  55.6512337
  32.2287903  59.8739243  55.8276100  31.7923183  61.0278435  54.9507065
  83.1627960  70.2878494   9.0331020  83.3176422  70.3183899   8.0890036
  84.0364761  70.3384399   9.4208717  59.2595596  10.4157591   9.5880079
  60.0579185  10.6632452  10.0544930  59.5288963  10.3470173   8.6720591
  50.0895233  50.2602310  54.7442551  50.4167213  50.5160141  53.8818474
  49.4112701  50.9054108  54.9441223  22.5015945  54.6768761  70.8208237
  22.9424019  53.8545456  70.6070786  22.2366028  54.5759888  71.7350616
  17.5657978  49.3616104  20.5536327  17.5288372  48.4335861  20.3220406
  16.6643658  49.6686897  20.4569187  43.7486382  67.2637558  66.9132385
  44.1832619  66.4764023  67.2409744  42.9771843  66.9365311  66.4506302
   5.4780254   6.3499455  74.5116119   5.5656352   7.0540786  73.8691483
   5.3989511   5.5541930  73.9855347  33.7491264  56.8267403   3.6532476
  33.3803253  55.9868584   3.9267726  33.9949341  56.6936302   2.7377744
  32.4922142  38.6403656  56.4376373  32.5763664  39.0761032  55.5895348
  32.6927986  37.7221870  56.2561226  46.2446175  21.5206738  80.7791672
  45.2902756  21.4468460  80.7753830  46.5473213  20.6938572  81.1546326
  17.4158020  22.1202278  75.1718521  17.7295017  22.9825134  75.4444046
  16.6229324  22.3022442  74.6674118  13.2851601  70.1729889  75.9796677
  13.1208363  69.5646973  76.7002335  12.8382130  69.7815857  75.2291565
  79.3474426  41.3365517  23.4226818  80.0742035  40.8615189  23.8256607
  78.8294296  41.6541023  24.1623154  24.9845829  28.5206223   9.4071350
  25.5333729  28.2634773   8.6662302  24.5852718  29.3466034   9.1341248
  37.8450165   1.0292346  34.4640694  37.8202744   1.4400390  35.3282776
  37.1127052   1.4236251  33.9903488  79.3706894  17.2807674  72.5685730
  80.1978683  17.3565998  72.0929108  79.0001221  16.4489841  72.2735367
  24.2033596  21.3837090  10.1710396  24.8331966  21.5384426   9.4670544
  23.5371284  20.8206711   9.7768888  48.6133385  14.3119135  67.5388489
  48.7746620  13.9263067  68.3999634  49.3992920  14.1055584  67.0329590
  63.7212753  65.0830536  16.2685413  63.2614555  65.1685867  17.1036949
  63.1087761  65.4320984  15.6210499  12.9194412  38.5979576  52.8809509
  12.8802509  37.6477051  52.7727089  12.0356789  38.8446083  53.1536407
   8.7666225  31.9871025  10.0105896   9.6471157  31.8033352   9.6831865
   8.1846113  31.6985588   9.3075695   5.5501475  52.6292381   7.5614204
   4.9209871  52.1766891   8.1231956   5.0491576  53.3434906   7.1676135
  72.1387405  39.3659859  87.6918564  71.6295013  39.0698433  88.4463120
  73.0439911  39.3755684  88.0027542  10.7102289  36.9741821  69.1762314
   9.9100027  36.5650253  68.8468933  10.4244537  37.4823914  69.9353638
  27.2563210  63.7167244   0.5341126  27.5160923  64.6331558   0.4397679
  28.0581341  63.2219009   0.3653503  80.6221924  57.6382179  25.9758205
  80.5810089  58.5906487  26.0619183  81.1318436  57.4915771  25.1789646
  40.3150101  13.2695999   4.7133436  40.6622276  13.9913597   4.1891923
  41.0053864  12.6068106   4.6954045  35.2376213  10.1811390  78.3023071
  34.5377312  10.4760094  78.8849258  35.9635239  10.7798920  78.4777832
  37.2043839   9.9265404  70.3829346  36.7235718   9.2107058  69.9674454
  36.5498085  10.3764114  70.9171371  73.0603714   2.8588133  78.3970490
  72.5557861   2.0631986  78.5662231  72.9692154   3.3750784  79.1979141
  79.4133072  32.6114731  21.2200546  79.0471878  31.8349724  20.7966900
  80.3604050  32.4757614  21.1914616  12.7499199  60.6331406  10.7825680
  12.4307785  59.7885551  10.4646778  13.6987982  60.5230293  10.8436995
  54.1795044  32.8238297  74.5770493  54.9193954  32.6108093  75.1457520
  53.6321487  33.4059486  75.1040878  70.7005157  59.9477806  57.7031975
  70.9066772  60.6912308  58.2697792  69.8125076  60.1229782  57.3917847
  51.2728539   6.3328290  31.5618591  50.8680878   6.3882952  32.4274902
  51.7396660   7.1625109  31.4621296  56.7131119  35.7945366  62.4314728
  55.9624901  36.1777382  61.9776535  56.7441483  34.8895607  62.1211662
  18.4955673  39.3518524   5.8748679  18.5853443  39.3218651   6.8273764
  19.3897209  39.2562027   5.5468874  55.9294510  30.0695171  78.5631332
  55.9812126  29.7873764  77.6499252  55.6998672  29.2758007  79.0463943
  60.9276733  66.5120926  47.3048210  61.3927536  67.1759033  46.7956238
  60.0424690  66.5075607  46.9406433  28.1805897   3.6132724  20.0891991
  27.3005772   3.4490426  20.4280777  28.3666401   4.5194764  20.3349876
  61.1671181  69.3687592  21.4886169  60.7422142  68.8326874  22.1581802
  60.4430389  69.7532349  20.9945374   2.6862273  47.7793732  33.1178551
   3.0699515  47.9250832  32.2531242   2.9794915  48.5267525  33.6390533
  84.5699387  13.8886137  60.5904655  84.8019028  14.7252626  60.9935112
  84.3903656  13.3080950  61.3300476  71.9262009   9.6211529  28.5812683
  71.5055847   9.4326735  27.7423496  72.4114685  10.4320669  28.4290581
   2.8769662   3.6699502  70.5074081   2.5737996   3.6480193  69.5997467
   2.3920431   4.3934236  70.9044800  59.1927109  44.4654350  66.8407059
  59.2870026  43.6270294  66.3885803  59.0588837  45.1023483  66.1388092
  80.4611053  35.8082619  54.1149788  81.2954788  35.9310837  54.5677109
  80.6073227  36.1700821  53.2409439   7.4122367  22.4509068  82.4852905
   8.1050978  22.5988541  83.1289368   6.8891759  21.7399063  82.8555832
  12.5770206  30.6324425  24.1265736  11.6841917  30.5081158  24.4484921
  13.0645714  29.8879528  24.4790802   1.0307992  32.9451180  33.2798119
   1.3640465  33.6409416  33.8463860   1.8087757  32.4466820  33.0297241
  21.7115612  28.6224918  87.9917526  21.5018520  28.5059738  87.0651093
  21.2262325  27.9275150  88.4363861   2.1701694  11.9543324  10.1619616
   2.6839015  11.3004179  10.6359940   2.4822285  12.7942305  10.4987440
  21.1087723  34.1070366  72.9248047  21.9948025  33.7477036  72.9702377
  20.7085915  33.6637306  72.1767654  58.5382309  35.1885986  72.7932816
  59.0829735  35.2988167  72.0139618  58.9327583  34.4512138  73.2589493
  67.2057419  33.5869598  58.9271431  66.5931244  34.2634354  58.6384964
  67.2091904  33.6584663  59.8816643  79.2690048  33.6210899  72.4426193
  78.7992554  32.8004761  72.2937622  78.7147369  34.1069679  73.0533142
  85.3903046  43.7484627  88.1469574  85.9126205  44.4033508  88.6101456
  85.9628067  42.9836311  88.0877762   4.7384562   5.2706285  68.1473160
   4.8679829   5.1054215  67.2134171   3.8096828   5.4885979  68.2254257
   6.6283526  53.2356796  71.7191238   6.4007854  53.2917480  72.6471863
   6.4899955  54.1217957  71.3846359  56.9982071  32.4523392  73.5104065
  57.1409035  32.9142570  74.3365402  56.6600151  31.5954552  73.7704239
  64.7952728  70.2895279  27.6134148  65.2549591  69.6471634  28.1540604
  63.9701653  70.4432983  28.0736141  49.5304031  26.0703316  83.3342972
  49.3537903  26.1513252  82.3970261  48.7005043  26.2955494  83.7547455
  40.6544876  26.4054527   8.3070755  40.2555771  25.8076344   8.9393053
  41.3745041  26.8154068   8.7863922  24.2766666  25.1287384  68.4717560
  24.3805504  25.1072540  67.5204544  25.0964890  25.5034351  68.7938232
  63.6879807  22.9949398  48.2791634  64.3553391  23.1687603  47.6153488
  63.1461258  22.3036232  47.8987617  46.2652168  21.6384983  63.8619537
  45.3209724  21.6990623  64.0067596  46.6258583  21.4207478  64.7214584
  85.1753387  32.5665855  58.5665016  86.0130768  32.5902557  59.0289612
  85.4106750  32.6328583  57.6410522  72.8447418  20.9903107  27.3231201
  73.4166870  20.2273922  27.4072018  72.2762070  20.7828674  26.5815220
  76.9516830  10.2383900  70.8907471  76.9729156  11.1626835  71.1386642
  77.6799164   9.8447256  71.3712997  80.5814590  50.8158112  22.9720135
  80.4204254  50.6286087  23.8968143  79.8959579  50.3356209  22.5075436
  12.9900093  52.4131241  88.4654236  13.3229027  53.2606163  88.7606735
  12.1378260  52.6124115  88.0777359  65.1186905   1.6634388  23.2327728
  65.5262909   1.7625170  24.0931664  64.2045288   1.9113662  23.3708344
  85.2633743  48.7545204  14.5618114  85.6813889  48.8603935  13.7072439
  85.6100464  49.4744339  15.0888548  71.5824814  28.3540306  22.8450966
  72.1384277  28.1904068  22.0832672  72.1234589  28.1046772  23.5943623
  55.3531151   4.4442692  75.6173859  54.5274162   4.7348552  75.2300720
  55.9360962   4.3147736  74.8693161  34.0288162  43.4707565   2.5771744
  33.6576080  43.9022789   3.3467362  33.2720566  43.1043243   2.1197054
  36.1181297  52.3576469  65.7104492  36.7153091  51.6127968  65.6410828
  36.2604675  52.8545876  64.9048309  80.1256027  64.2366028   6.2960520
  80.8015976  64.4708633   6.9319620  80.0366287  63.2872391   6.3798428
  19.4488678  35.5618210  69.9803925  19.4668465  36.1631966  70.7248688
  20.3354969  35.2032928  69.9406433  30.7968807  46.0784912  11.3919430
  31.2528877  45.2531700  11.2272110  30.2574749  45.9042892  12.1632576
  15.6347227  31.4816380   8.6448021  15.8165722  30.5460091   8.5567122
  16.0657597  31.8815613   7.8894877  47.2050858  37.1492882  15.1734791
  47.6871643  37.6270523  15.8484402  46.3345642  37.5473175  15.1738272
   9.7724991  47.1968765  68.0631561  10.4928808  46.5752029  68.1670914
   9.6604824  47.5812225  68.9326172  42.6117516  20.6514339  14.9111099
  42.2181511  20.0856991  15.5753803  42.9573631  20.0460281  14.2551632
  38.5511322  62.1463966  79.5179367  38.6768951  62.6696014  78.7263107
  39.2840538  62.3885193  80.0840073  42.9292488  41.8463631  70.5272675
  42.8462868  40.8943977  70.5830154  42.4746056  42.1722984  71.3039856
  30.3125324  51.8036041  34.5449867  30.2853470  51.6411438  33.6020660
  29.6443253  51.2220116  34.9075966   3.3978548  69.2480469  54.5006256
   3.6339006  69.6444168  53.6619377   2.7986748  68.5381470  54.2698402
  63.8658066  47.5710869  74.1991348  63.1796265  48.1076736  74.5959549
  64.6602783  47.8048058  74.6791611  55.3465652   0.2774399  83.5457077
  54.9084930   0.9434265  84.0755997  55.2802963   0.6036637  82.6482544
  66.3480911  51.2853432  50.4583015  66.5812759  51.5796471  51.3387833
  66.3435745  50.3300438  50.5184288  76.4249496  55.8847008  82.8227921
  76.2609177  56.1057320  83.7395706  76.3636551  56.7204819  82.3602524
  77.6318665  13.1792402  76.7419968  76.6856079  13.0606194  76.8241653
  77.9717178  13.0095205  77.6205902  37.1033897  56.5215759  66.6066437
  36.4309235  56.1957664  66.0084152  36.9140434  56.0881042  67.4387970
  77.5541382  47.0686531  88.2131119  78.4489670  46.9136925  87.9106140
  77.0012512  46.7313576  87.5082932  69.6764221  37.7926445  17.9397068
  70.5376816  37.4716949  18.2070236  69.8414154  38.2748642  17.1294746
  60.1576309  39.3859978  60.6442947  61.0271263  39.7355614  60.4493217
  59.5622520  40.1157608  60.4734077  20.2773743   1.8722193  79.3277893
  19.5138512   1.2997189  79.4019852  20.5485096   1.7925384  78.4132538
   3.3404062  30.9979038  46.3210068   3.3591747  30.4885864  45.5107765
   4.1498065  31.5085220  46.3017349  65.0920868  46.4211464  49.1751976
  64.2397690  46.0164909  49.3365402  64.8835831  47.2899551  48.8317909
  18.0308475  49.5976601  54.4431152  18.1855640  50.1806946  53.6999016
  18.7194901  48.9362183  54.3760529  18.0837116   0.1440137  81.4612579
  18.3182163  -0.3604305  80.6822968  17.4310398   0.7723005  81.1522141
  27.0857639  34.4373283  65.8002777  26.6385365  34.8922997  65.0866776
  27.9379425  34.1988144  65.4354019  24.5740509  52.9632645  80.9874115
  24.1746464  52.3583031  80.3623276  25.5094509  52.9320602  80.7866974
  74.0344391  56.9168243  22.1292515  73.3391342  57.3731880  22.6030807
  74.8434067  57.2160683  22.5442867  38.9125900  40.9348183  75.1415253
  39.2464676  41.8117142  75.3307724  39.5843391  40.5371475  74.5875931
  85.1737061  36.7322121  78.6964493  85.5190887  37.0852203  77.8764877
  85.7318192  35.9781418  78.8864899  54.3893967  40.3746719  41.8052406
  53.4812584  40.1109810  41.9535332  54.6458855  39.9121056  41.0074463
  75.8816376  45.5661087  29.3355885  75.4778976  46.3603249  29.6855106
  75.3752518  45.3669930  28.5480843   5.1430712  42.5363274  75.2744827
   5.8601446  42.1082191  74.8067627   5.5371084  42.8373451  76.0932312
   7.4608583  70.3057709   5.9204917   8.2814884  70.3560791   5.4303212
   7.5215931  71.0131378   6.5624962  22.3435078  14.3276558  77.6164551
  21.9268341  15.1891623  77.5959473  23.2419014  14.5027246  77.8965912
  60.2002296  65.4033279  14.4517403  61.0823936  65.6330643  14.1597776
  59.8735809  66.1973953  14.8748207  32.5324707  60.4875336  33.6185074
  33.3144836  60.9738579  33.3574066  32.8693314  59.6642952  33.9721146
  63.0186348  15.7392683  71.3437119  62.2681618  16.1581059  70.9222870
  63.2207451  16.3043480  72.0894165  59.5791550  13.8325214   4.5521126
  60.0477066  14.2609739   5.2684364  59.2574883  13.0147476   4.9315972
  25.4926643  63.0280304  57.9888306  25.0106716  63.5413246  58.6372452
  26.0401592  63.6687660  57.5350227  11.8407621  23.5119247  82.3303986
  12.2608509  22.9379921  82.9709930  11.6676874  22.9454498  81.5784760
   2.5287483  20.8754711  68.4328918   3.0608034  20.2831116  67.9016113
   2.0226343  20.2966061  69.0029755  74.4695740  18.7142658  27.5280037
  74.7241058  18.0579815  26.8793621  74.1141357  18.2055016  28.2567368
  70.6134872  67.5796127   0.6793531  70.6802902  66.6273422   0.7497225
  70.4923401  67.8784637   1.5805986  72.9679031  47.7306862  24.5125942
  72.7184448  47.4702682  23.6259251  72.1763763  48.1261826  24.8776951
  67.9321976  32.5010262  17.0029259  67.6491165  31.8980846  17.6903572
  68.4094467  31.9499569  16.3826122  65.2365494   8.5161085  36.5553818
  66.0190659   7.9672308  36.6066933  65.5438232   9.3356476  36.1678658
  42.6749268  36.9741631   4.8706512  42.8750763  36.3340073   4.1877351
  43.4794579  37.0343132   5.3857670  82.6526794  19.9376163  79.8535538
  82.9903336  20.0348873  78.9631805  82.8761063  20.7619076  80.2858200
  21.8331203  51.0667496  64.6279526  21.4049397  50.5347176  63.9572525
  22.3792114  50.4475555  65.1123199  53.3102951  65.7753830  86.2756348
  53.2088928  65.3508606  87.1275330  53.7994347  65.1427994  85.7495117
  53.2804070  56.0326805  73.8375778  53.8053970  56.8325272  73.8669052
  52.9664268  55.9192467  74.7346725  21.0203438  67.9533234  26.4901867
  20.4381199  68.6043625  26.8818512  20.4320221  67.3398590  26.0499992
  15.3860779  66.3200226  72.3269958  15.6254673  66.0756531  73.2209854
  16.1893539  66.1957703  71.8214874  79.7391205  70.5661774  53.4908104
  80.1045151  71.3931122  53.1763268  78.9764557  70.8230286  54.0090752
  80.3905792  31.2878304  18.2328548  80.0622330  30.6776390  18.8932266
  79.8626251  31.1061974  17.4553528  61.4537888  43.8569450  62.8571968
  60.6765175  44.4024239  62.9777565  61.3591270  43.4966393  61.9754639
  15.6627436  59.3758354  43.5339890  14.7616034  59.3970566  43.2119217
  15.8507090  58.4455833  43.6586037  55.2523308  56.7038155  85.0991135
  55.6788101  57.4432373  85.5322418  54.6084938  56.3924446  85.7353134
  85.8072128  53.7731667  45.4837494  85.4528809  54.5467453  45.9222221
  85.4250717  53.7989845  44.6065216  68.4001007  13.2709055  24.7353897
  67.9721375  14.0850744  25.0003510  68.4746475  12.7651434  25.5446358
   6.5372968  57.3924255   7.1979427   6.1964059  57.9283714   6.4818525
   7.1747136  56.8128014   6.7808490  64.0813828  22.7100487  75.2789764
  64.2984238  22.3021145  74.4406967  64.5597382  22.1936474  75.9276199
  14.4248848  20.8904781  12.9167728  13.9575701  21.5113125  13.4757137
  14.9796114  21.4385262  12.3616581   7.8961787  17.5381927   7.1560516
   8.2947273  17.9556408   7.9196796   8.5287094  16.8705807   6.8906584
  82.1260529  23.0387669  34.1998558  81.9600830  22.3343792  34.8263741
  81.2554932  23.3121948  33.9107285  79.4140701  58.1299820  80.8283997
  79.4938049  58.6583099  80.0342102  80.2752151  58.1881981  81.2422562
  60.9771194   1.6760707  46.1568680  61.0419998   2.6306460  46.1284332
  60.4469109   1.4491816  45.3929062  33.5354462  55.1630135  39.1633072
  33.5640335  56.0928879  39.3885803  32.7104492  54.8516197  39.5356598
  40.8785477  22.5648098  67.6615677  40.3485260  22.2314720  68.3855820
  41.0451584  21.7977695  67.1137390  15.5837097  49.9735527  34.0326195
  15.9835005  50.7526970  34.4190521  14.6463728  50.0797539  34.1949539
  71.6899261  54.5068626  53.7570801  71.2727509  54.8639069  54.5411186
  71.3707657  53.6059341  53.7051239  85.5618210   5.6317616  85.3682175
  86.0391769   4.8022590  85.3511887  84.8680954   5.5222793  84.7178497
  64.4998169  21.6320362  18.4809074  64.4667282  22.4841614  18.9156704
  64.9336014  21.0578194  19.1120491  65.8704910  49.3677673  17.7171993
  66.3920441  49.9760094  17.1935062  64.9922028  49.4192963  17.3401241
  73.5601120  65.7164459  38.0943642  73.5259705  65.5794983  37.1476288
  74.0385590  66.5386887  38.2003288  69.5342712  28.4316750  85.2026672
  68.7056122  28.4837513  85.6789474  69.9401245  27.6233139  85.5158234
  63.1073456  50.2551460  35.4731293  62.9322891  49.5247917  36.0665665
  63.6247826  50.8687668  35.9946289  21.3420048  51.1852875  75.7871094
  21.1267853  50.5478973  75.1061859  20.8213120  51.9573479  75.5656738
  70.5232773  45.6089516  31.7072716  70.9221954  45.2474327  32.4987297
  69.7091446  46.0102234  32.0112381  54.4294510  26.3622646  45.3803253
  54.7262878  25.9881439  44.5507736  55.2219696  26.4206963  45.9139252
   5.9895177  21.5949955  63.5799599   5.1094432  21.2289562  63.6677971
   6.3813291  21.4872570  64.4466248  28.6986771  50.7305412  80.9727325
  28.1103096  49.9931793  81.1350632  28.8941631  51.0771332  81.8432999
  68.8055267  57.4109993  68.0602798  68.6080704  57.7430191  68.9360657
  68.1097336  57.7660103  67.5070419  81.9193573  36.9013367  42.4045143
  81.9473724  37.4034576  41.5900688  81.5217133  36.0663948  42.1575699
  76.8336029  18.4758644  49.9877167  77.2809219  17.6466694  50.1567535
  76.0534363  18.2301292  49.4905396  71.8761063  64.6795197  43.1069069
  70.9694672  64.8684464  43.3488579  71.9344177  64.9274902  42.1842232
  62.8922729  65.0905609  85.3196640  62.5496025  64.6011276  86.0675049
  62.6237907  64.5799026  84.5558701   4.3317332   8.4026852  32.3290634
   3.5748618   8.0056992  31.8980427   4.4174705   7.9225144  33.1526642
  32.8572960  68.8258514  88.9924927  32.4249420  69.0646820  89.8124008
  32.1622658  68.4412537  88.4584045   0.5260115  65.8074722  45.4171791
   1.1027863  65.1059341  45.7195091  -0.3423067  65.5559769  45.7318306
  80.2906113  57.5713005  51.1696091  81.0044250  57.5380821  50.5327377
  79.5711670  57.1015663  50.7477264  72.1944733  11.1158390  35.4458160
  72.4836884  12.0024796  35.2302856  72.3073273  10.6228952  34.6331024
  52.3172112  65.9192276  23.9986076  53.2726059  65.8883133  23.9485836
  52.0951309  66.8244629  23.7807293   1.8560337   8.6134129  65.8107986
   1.1379709   9.1828928  65.5345535   2.5784132   8.8370171  65.2239456
  59.2448082  58.1492729  44.4579849  58.3603973  58.3699646  44.1658516
  59.4985619  58.8776550  45.0248184  13.0621910  35.3733788  61.4453201
  13.2079496  34.8744469  60.6415443  12.5754757  34.7759514  62.0131378
  42.7664642  19.9913158  73.3084183  42.4025345  19.6729374  74.1345062
  42.7850418  19.2200451  72.7418289  49.4698334  14.5690947   8.2344208
  50.3199158  14.4143057   8.6462851  49.5532990  14.1856022   7.3613806
  71.4087524   9.7315054   8.2793608  71.7534256   8.8559246   8.4548359
  72.1811447  10.2968760   8.2767859  51.6869659   5.1733027  85.3385925
  51.7767487   4.2256370  85.4390945  50.7780266   5.3544812  85.5778351
  50.8570557  61.4959641  26.9524021  51.2889481  62.3271828  27.1493168
  51.5393143  60.9621048  26.5452785  84.0944824  35.8754578  30.2864075
  84.0432358  34.9404907  30.0878124  84.3983307  35.9113617  31.1933899
  33.5344696  65.7132568  53.8593750  33.3531151  64.9339981  53.3339195
  33.1489906  66.4335327  53.3605423  75.0716553   3.5479109  60.1438332
  74.6758347   4.2407117  59.6150742  74.9997330   2.7622325  59.6018295
  57.3783798   4.9848838  81.8578796  58.1844940   4.4832950  81.7361526
  57.5474663   5.5266380  82.6286850  18.0407963  11.8428268  75.7208939
  17.3372555  11.4571228  76.2429047  18.8159523  11.3285284  75.9464188
  27.5139236   2.5811810  83.5262146  27.8802624   3.0951293  84.2458572
  26.9707146   1.9205326  83.9559860  29.9453888  13.9686317  11.9108810
  30.1686306  13.8471479  10.9880390  30.5189705  13.3611736  12.3780308
  47.4376831   6.1885228  58.8090019  47.7847748   6.8617969  59.3942032
  48.1884308   5.6258125  58.6193542  80.5078354  60.3064537  51.5147018
  81.2304764  60.4499321  50.9036102  80.0752106  59.5156784  51.1926079
  44.4654312  39.5136108  61.6943665  44.8063087  39.9631729  62.4676247
  43.7622032  40.0807953  61.3781357  21.0692863  60.7785492  35.4816856
  21.0206661  60.5554657  34.5521164  20.4398155  61.4914551  35.5901527
  32.6558571  33.1337471  14.5614491  32.8617363  32.7402229  15.4093781
  33.2924843  33.8420372  14.4652128  37.4709969  43.6946335   8.2090330
  38.3024445  44.1095047   7.9792399  37.6910706  43.0965805   8.9232693
  11.1933479  31.2768402  29.8696957  10.3515053  30.8219757  29.8948269
  10.9781618  32.1630478  29.5789032  48.4604111  41.2551804  24.2563362
  48.2536087  40.4946060  23.7132034  49.4077797  41.3609848  24.1695709
   7.3719258   4.2173333  42.0953560   7.5330939   3.4159820  42.5934448
   7.3031254   3.9247262  41.1865768  51.0016861   3.5939577  53.7865524
  50.7697411   2.7801332  54.2339058  50.1770592   3.9057510  53.4137230
  65.5798950  59.5258484  27.9815750  64.7585526  59.1659393  27.6467762
  65.7955551  58.9724312  28.7322102  16.0655880  64.5955353  35.4356766
  16.7272816  65.0069885  35.9916420  16.5012207  63.8223190  35.0770721
  18.4568253  58.8141518  55.2709236  17.8103790  58.1975174  54.9272652
  19.2952080  58.4909096  54.9409866  61.9683380  18.1269569  20.0400124
  62.7657089  17.5980530  20.0663624  62.1269073  18.7648067  19.3441429
  46.2714653  48.9619255  60.2196960  46.7681313  49.4859085  60.8481865
  45.6563110  49.5803185  59.8254814  57.9971352  13.9869738  51.5630646
  58.1506996  14.7700129  51.0343857  58.8696976  13.6213636  51.7086525
  50.3268661  31.0845280  49.1795540  50.5152168  31.9109268  48.7347832
  49.4137497  30.8978119  48.9613991  56.5727158  30.5996227  27.8850574
  57.3465805  30.7362099  27.3385162  55.9011841  30.2912579  27.2766247
  34.8691406  58.6139832  51.4714012  35.4313889  57.9503937  51.8711014
  34.9125404  58.4309349  50.5328712  48.3371849  25.6551514  43.6358795
  48.8792343  25.7543354  42.8532028  48.6751862  24.8681126  44.0631447
  71.5570145  44.0730286  82.5992279  71.8490067  44.9815865  82.5250626
  71.3608856  43.8103142  81.6999283  55.6626396  10.9119101  74.3825836
  56.5428200  10.9070435  74.7587280  55.7382774  11.4624500  73.6032181
  47.2125969  46.2191582  61.0462341  46.9363098  46.9344711  60.4733238
  47.2245598  45.4485817  60.4785233  23.7037697  68.1067810  35.9130630
  23.5167236  68.7378769  36.6080170  24.6490040  68.1729660  35.7774734
  37.1399117  53.2820549  80.8145065  36.8543091  53.6936073  79.9988556
  36.3945923  52.7464752  81.0863266  83.2852783  24.5926208  49.2864647
  83.1847839  25.3797531  48.7511559  82.4462967  24.5014343  49.7381554
  38.5130806  51.3543129   7.6635284  39.0305786  52.1015816   7.3635001
  37.6041260  51.6250458   7.5341597  36.4476318   2.2860181  49.3549957
  36.1702042   3.0907488  49.7928009  36.0672493   2.3467171  48.4787254
  83.7911835  18.7624092  17.6589813  84.1393509  19.5032959  18.1550636
  84.3312073  18.0192070  17.9277859  29.5435963   0.0260779  66.0662079
  30.0537014   0.6124491  66.6249466  28.9137993   0.5993562  65.6292419
  14.7570810  26.8317661  83.7923279  14.8314543  27.0243988  82.8576660
  14.3903408  25.9482632  83.8263397  50.7788277  66.3283844  70.8303909
  50.8215446  65.4247131  71.1431122  51.6672287  66.6647644  70.9479599
   7.3464346  45.5965996  71.1730270   7.9227657  46.3549042  71.2681580
   7.8228235  45.0053139  70.5902176  63.8631172  54.8768387  80.4341888
  63.4665184  54.1955452  79.8912506  64.4793625  55.3195992  79.8507156
  80.4489517  27.1576176  26.9993343  79.4978561  27.2601376  27.0331383
  80.7601318  27.5373287  27.8210487  74.1722565  31.3270359  56.4009972
  73.4725266  31.9504986  56.2062988  73.8149490  30.4775276  56.1423492
  54.6020889  23.6158142   9.2227249  53.7854919  23.4067917   8.7691727
  54.7869949  24.5223999   8.9774857  63.5753593  65.2222748  28.8765774
  63.5155945  64.4228516  28.3535175  63.8867950  64.9261475  29.7318821
   1.8424221  20.5133514  84.5421295   2.5862410  21.0949059  84.3847809
   1.6342831  20.1522007  83.6804581  36.1995506  48.4097672  48.9723701
  35.8387489  49.1855011  49.4016609  36.9140244  48.1298752  49.5445786
  71.7484589  60.8857231  46.0748558  72.6915283  60.8572502  46.2362289
  71.6128769  60.2865448  45.3408012  43.2737846  51.1532326  39.2877350
  43.1053276  50.7223244  40.1256943  42.6039467  50.8039780  38.6998825
  83.1854324  63.9923859   7.0212288  83.0336380  64.8436279   6.6106424
  84.1244049  63.8394775   6.9154468  53.2208481  48.8630562   7.7120748
  53.1051102  49.6150436   8.2928982  53.2946548  48.1133881   8.3026524
  45.9361687  26.2307930  78.8729858  46.1125259  25.8214855  79.7201004
  46.7761497  26.6061497  78.6088409  82.6316223  39.9665680   8.7695074
  82.6558304  39.9380302   7.8130398  82.5177689  40.8936768   8.9786568
  76.3870773  67.9057541  22.8486290  76.6807861  68.4984665  23.5404873
  76.3785477  67.0419312  23.2609081  42.6839828  11.8085842  66.3217239
  43.5761719  11.4663153  66.2661743  42.7934685  12.7590504  66.3510208
  82.4711609   0.9299066   6.5751348  81.8573303   0.8005244   7.2981205
  82.8548813   0.0652336   6.4290781  76.0710449  62.0559845  50.7213669
  75.3418732  62.6416512  50.9251976  75.7126923  61.1765633  50.8415146
  46.3554611  56.9499626   5.0999417  46.6289902  57.8085213   4.7769938
  45.4201088  57.0479546   5.2781229  40.6779213  69.0095596  14.2594461
  40.5199471  68.4586411  15.0261078  40.5609703  68.4212036  13.5135269
  62.6257286  13.6286583  50.8565140  63.3512688  14.2503576  50.7989693
  61.8534431  14.1385317  50.6119003  42.5643845  19.6271648  22.0991859
  43.5200157  19.6812515  22.0907421  42.2803230  20.4645557  22.4656792
  47.0564117  63.7462120  26.8462753  47.4358101  63.9851341  26.0005760
  47.4249535  62.8841171  27.0391464  40.3534851  70.8109360   7.9038296
  40.1925049  69.8701248   7.9758687  41.3028908  70.8847427   7.8068018
  54.6945419  48.3683319  65.9318771  54.5043068  48.8222733  65.1109161
  55.1086769  49.0327682  66.4825592  65.1204834  61.4739990   2.3512793
  64.9435730  62.3507271   2.0102820  64.9710541  60.8924179   1.6058477
  79.5923691   0.6046683  35.3540230  79.6237106   1.4598210  34.9251137
  78.8334579   0.1695307  34.9655228  12.4138384  63.4365883  33.5313759
  12.5232811  63.6302223  32.6003761  11.9099340  62.6229591  33.5491714
  27.2949791  67.0632477  11.7794237  26.9126472  67.2439117  10.9206953
  26.6269989  67.3470535  12.4035139  15.1633062  58.7037582  63.9201775
  14.3755264  58.1652603  63.8450012  15.7862597  58.3027840  63.3140602
   9.0732088  44.8798103  51.0589066   8.8317261  44.4835968  51.8961258
   8.2766666  44.8277168  50.5306664   8.9394102  48.8068466  76.6834183
   8.2846966  49.5044556  76.6530533   9.7278194  49.2019348  76.3112030
  25.6864338  30.2032528  74.8044357  25.0269070  29.6716824  75.2501831
  25.1870232  30.9073563  74.3908463  11.0688324  31.5352097  49.6518898
  10.4159222  30.8428936  49.7550468  10.5550032  32.3384209  49.5678596
  47.2545815  46.3413506   4.8867059  46.3849945  45.9509964   4.7990975
  47.0931549  47.2010155   5.2754822   4.7043438  20.5299931   8.4794540
   3.8998656  20.0484047   8.6721153   4.8388824  20.4054604   7.5399737
  56.2737427  44.0485725  76.0874481  55.4317436  44.4224892  76.3471603
  56.0796471  43.5493889  75.2941208  20.1615314   5.2907839  62.9423218
  19.3831882   5.3586864  63.4953194  19.8876514   5.6495166  62.0982094
  43.2126694  54.6126976  47.7659836  42.9772491  53.9452553  48.4104462
  43.1094971  54.1761246  46.9204140  28.2093868  41.2417221  29.6501598
  27.9701920  41.1985283  28.7243366  27.4795570  40.8223572  30.1059132
  48.7981796  58.0112686  18.7493229  48.0918732  58.4690247  18.2934494
  49.1750488  57.4321861  18.0868511   2.7997925  53.4596939  72.4060516
   3.3440299  52.8342056  71.9277191   2.8022647  54.2459068  71.8600693
  82.3956299  69.8523178  20.6613750  82.0894852  69.8228455  21.5678177
  81.6241074  70.1088333  20.1562138  21.6693897   0.7457851  15.2147131
  21.8020668   1.6868111  15.3291626  21.8777733   0.5846992  14.2944632
  66.5415878  60.3648567   7.8672738  66.3128281  61.2615128   8.1120367
  65.7059937  59.8980064   7.8598752  74.6937714  20.7275810  35.0244942
  74.6539154  21.6270390  35.3494873  75.1709213  20.2489243  35.7023163
  74.3480682  21.4257774  88.6796646  75.0404358  20.7648239  88.6824646
  74.0975113  21.5062828  87.7593536   5.1413364  57.8819466  43.3062706
   6.0225291  57.5536804  43.4850807   4.9027324  57.4838371  42.4691277
  67.2358704  67.9608917  19.4035759  67.6220474  68.5830917  18.7871666
  67.1610489  68.4503937  20.2227345  22.3641548  49.1627617  52.3677559
  23.0903835  49.0658951  51.7517700  21.6995354  49.6490822  51.8798943
  68.5183563  29.6177139   0.9407398  69.1259308  29.3208256   0.2632872
  68.1681061  30.4423008   0.6036684  26.3909817  53.7013664  31.5171509
  26.1106186  53.1197281  32.2237816  25.5875759  54.1369591  31.2324905
   5.1607561  20.0352402  35.0076828   5.0344896  20.8157501  35.5472107
   4.3330765  19.5594940  35.0772896  35.9110298  20.0040245  82.4382095
  36.2271538  20.9070473  82.4090652  36.1377983  19.6430988  81.5811539
  47.3786583  24.8476391   1.2926332  46.9147758  25.1479206   0.5110465
  47.9376144  25.5850811   1.5375342  16.8777351   3.4176233  69.9774094
  16.5038910   3.9699106  69.2907791  16.6499443   2.5250301  69.7173691
  74.8588028   3.4604275  74.9466324  74.6925735   2.8526247  74.2260895
  74.7036362   4.3266068  74.5699539  68.1774673  30.3464470  73.9555588
  68.3503342  30.7630482  74.7998352  69.0371475  30.2825699  73.5395050
  75.4178391  21.0706749  53.6881332  75.2958374  20.4486752  52.9708710
  75.5393143  21.9153748  53.2545891  77.7688141  58.4378319  48.8191338
  77.4856033  58.0499611  47.9911346  78.1382980  57.7056046  49.3126488
  83.3412933  64.4879456  20.6258888  83.3103256  65.3692093  20.9982433
  82.7572632  63.9723053  21.1819973  61.5056915  44.5152512  18.6744652
  60.7227135  44.1689301  19.1025295  61.9759674  43.7387772  18.3708820
  85.6695404   0.6183324  86.9174881  85.4238663   1.4204096  87.3785172
  85.7887192   0.8917953  86.0079575  42.7337036  24.6246471  12.8032780
  42.1441460  25.0505581  13.4255753  42.1541176  24.1277885  12.2258329
  74.1957321   7.2482843  28.4000130  74.9211197   7.8548708  28.5486794
  73.4108276   7.7628894  28.5879898  63.0830231   4.5476089  20.6344318
  63.1795921   3.8408930  19.9961071  62.2551842   4.9684329  20.4024391
  68.6543579  63.2317810   1.5109329  68.1401520  63.7034721   0.8557020
  68.1883316  63.3805885   2.3336766  11.9687262  44.1591301  44.8877716
  11.4492731  44.5219765  45.6052246  12.6501837  44.8127975  44.7310295
  46.2655754  68.0846558  40.1630173  46.4175262  67.1833725  40.4473267
  45.4102821  68.3102264  40.5288391  55.0178795  33.5525665  49.6750259
  54.6493912  32.9681396  50.3375168  54.2629776  34.0286751  49.3290863
  74.3243484  14.9643755  21.5159492  74.2056198  14.0154562  21.4748592
  75.2705994  15.0906200  21.4459305  18.0361767  60.3467712  58.6992455
  17.4779453  59.7610397  58.1878471  18.9224281  60.1680374  58.3848457
  29.4671783  65.7621613  85.4284363  29.6741905  64.8963852  85.0765686
  29.6730747  66.3661652  84.7149811  67.6616898  46.9179153   2.3704004
  67.7279587  46.5180550   3.2375507  68.2260056  47.6895676   2.4187155
   7.3965216  55.3956528  27.1183815   7.6833086  54.4936523  26.9756222
   8.1400747  55.9302940  26.8399620  48.8709183  59.0516777  75.2596130
  49.8202362  59.1053658  75.3698349  48.7486420  58.8464203  74.3327103
  47.3729210  15.2514763  39.9551353  48.2931557  15.4192772  39.7520485
  47.3353462  14.3126717  40.1380692  72.2281647  36.0170097  46.2838020
  72.9781113  35.9413834  45.6938133  71.6886597  36.7072487  45.8981361
  27.9580822  50.5616302  35.3936691  28.0174828  50.2874641  34.4784966
  28.2596493  49.8016739  35.8914185  57.6218529  15.8934307  26.4844818
  57.8841362  15.8703146  25.5642071  57.7531586  14.9970646  26.7935429
  80.3688431   6.7806082  62.9646187  81.3068924   6.5903692  62.9548187
  79.9514084   5.9361291  62.7948112  39.2682152  52.3728027  52.1701660
  40.1416893  52.0892677  51.9001999  38.8302994  51.5681343  52.4476128
  73.5428543   3.6533325   9.7633801  73.0123215   3.0996757  10.3362980
  73.3296432   3.3563244   8.8787565   5.9715743  60.7792740  38.3060722
   6.6453114  60.1231003  38.4842491   5.6015997  60.9820938  39.1652641
  30.0852013  62.4216156  22.9052715  29.6419868  61.8550148  22.2738037
  30.4173794  63.1504745  22.3811951  68.4926376  32.0998650  43.7448425
  67.8048706  31.4669857  43.5382538  68.2932968  32.3879623  44.6356277
  60.1247063  36.8120308  30.6969910  60.0465088  36.3678322  29.8527145
  60.1354408  36.1033936  31.3403816  83.1519470  41.0071907  41.4943466
  82.2319336  41.2521591  41.3953400  83.1666107  40.4370918  42.2631111
  45.3998756  40.7425232  63.9927406  46.2911682  40.6853485  63.6484184
  45.2624931  41.6770401  64.1477737  58.0941086  29.4885883  73.9459000
  58.8177986  30.0266647  73.6249924  58.4367561  28.5948906  73.9345398
   2.9963019  68.4992599  60.1230011   3.8066356  68.0070038  59.9915733
   2.3584702  67.8412247  60.3993950  80.0947571  25.3784561  48.0144119
  80.0250473  24.8757248  48.8259773  80.6880722  24.8658772  47.4653549
   9.9970255   8.8418560   8.1097984  10.8536806   8.5227995   7.8259411
  10.0675955   8.9023170   9.0624771  44.5843239  22.5269508  13.2046709
  43.9598579  23.2463284  13.2983437  44.2975082  22.0616016  12.4189119
  52.9363289  56.2795334  45.4978333  52.1697922  56.7882423  45.7621613
  53.2993774  56.7618790  44.7550240  85.9187317  23.7705364  59.7158203
  86.0100555  23.7798195  60.6686058  85.9700699  22.8444386  59.4793015
  82.1482544  61.2368011  11.9907570  81.4406662  61.6387482  12.4947348
  82.2335892  61.7901230  11.2143669  65.7036591  30.6120148   7.5065870
  66.6183319  30.8721752   7.6157722  65.6608887  29.7280731   7.8713436
   6.8077121  49.0374680   1.6391324   6.2274361  49.7736626   1.4454125
   7.2586427  49.2932205   2.4437964  67.9376450  42.6694794  25.5929470
  68.7283401  42.5148773  26.1097965  68.2548676  42.7771683  24.6962852
  42.0272751  49.1791954  69.8486404  42.0624199  50.1322670  69.9301529
  42.5096359  48.8557777  70.6095352  49.5499687  10.4502707   4.2986522
  49.1912155  10.9051189   5.0606494  49.0874367   9.6124449   4.2801323
  13.6161051   8.3172760  22.9928379  13.0126734   9.0278578  22.7756405
  13.0515795   7.5556684  23.1251087  79.6869965  69.3151779  36.4852180
  80.1481094  68.6433334  35.9829826  79.6082611  70.0537338  35.8814316
  51.0193558   6.7358675  16.4035339  50.6617889   6.4207749  17.2336521
  51.2759781   7.6407185  16.5813541  83.0668182  30.1519203  21.6071930
  82.4380569  29.4411564  21.4818859  82.5361481  30.9481831  21.5830421
  20.0475883  56.5275421  13.3971052  20.3796692  57.3930283  13.6356153
  19.2006283  56.4659004  13.8387957  64.1289749  10.1413288  54.4315948
  64.5101547  11.0179682  54.3822594  63.1865120  10.2847624  54.3454361
   4.1773052  50.1148758  33.5582504   5.0563250  50.2201118  33.1942711
   3.7023082  50.8927879  33.2659111   3.3860009   0.7886876  76.9600830
   2.9568217   0.7279338  76.1066513   2.7618723   1.2637042  77.5087662
  23.2173901  28.8938808   5.4314423  23.1565018  27.9801197   5.7099481
  23.7983761  28.8742828   4.6709800  30.8823109  37.8167152  72.9432449
  30.0793705  38.3377876  72.9419403  31.4122829  38.1951485  73.6447830
  30.5992813  45.8792992  21.0021095  30.4435139  45.7438622  21.9367886
  30.6139641  46.8306122  20.8971214  24.7271519  45.0484276   9.7893085
  24.2386189  45.2136536   8.9829168  25.1367836  44.1945190   9.6504841
  33.6344795  30.3129311  64.0709229  33.2442970  30.6041775  64.8950424
  34.1260490  31.0719948  63.7572174  37.0672722  57.3198395  83.6632767
  36.2126846  57.0044403  83.9572754  37.2800179  56.7684288  82.9103394
  58.7973785  26.5971775  44.5031281  58.3740501  27.3724689  44.1344185
  59.6869049  26.8848724  44.7085686  49.4031982   8.7517405  57.1208191
  50.3310356   8.9848528  57.0890884  49.1222038   9.0063171  57.9997177
  41.9466171  20.4697609   6.6794319  42.2363663  21.2478027   6.2030640
  42.7145195  19.8985100   6.6947608  13.9834719  40.5032539  17.2249908
  14.7354393  39.9493675  17.4347172  14.3489819  41.2138672  16.6980495
  58.6758308  58.9805107  88.1334610  58.7161026  58.6766777  89.0402679
  58.7229118  59.9343605  88.1981506  56.2019043  63.3208771  55.6855583
  56.1310577  63.5190544  54.7517815  55.4971466  62.6948204  55.8516808
  74.5874329  41.7469025  76.4362640  74.1529541  41.4529305  75.6356125
  75.4994431  41.8810425  76.1784363  20.9063358   1.9381602  64.0577393
  21.4884129   2.3069048  63.3933258  21.3120155   1.1044124  64.2954788
   6.9069295  41.3783798  43.7429276   6.5713015  40.4896698  43.8603134
   7.7376404  41.3854332  44.2184258   1.6226751  59.9274750  22.5112801
   2.3303709  59.9695053  21.8681393   1.0533682  60.6643028  22.2894535
  83.0271835  61.8107109  86.9060287  83.7058640  61.1414032  86.8185196
  83.4763489  62.6338310  86.7138062  35.4605942  45.3267441  84.9150085
  35.5708008  44.6663246  85.5990601  35.1082344  46.0897064  85.3732224
  33.6976166  53.0662460  77.0851746  34.0050812  53.6241150  77.7996521
  34.4941902  52.8150978  76.6175995  51.7482491   4.5522523  76.7209473
  51.4834251   5.2905803  76.1723404  52.4795227   4.1535411  76.2492523
  23.2478218  38.1968880  59.8402290  23.4277573  37.3375015  60.2214241
  23.3437138  38.0653419  58.8969727  13.6623755  31.4170742  14.3946123
  14.2856474  31.8077469  13.7821264  14.1014481  31.4614182  15.2440128
  37.9010162  28.7445946   0.5924480  37.4995995  29.5068054   1.0097361
  38.5160370  29.1144676  -0.0409339  23.6344566  57.7767944  28.7966805
  24.2673225  57.0872765  28.5959816  23.6192379  57.8169861  29.7529144
  44.7700653   5.8939314   3.0904911  44.8702126   5.4924350   2.2273555
  44.2476158   6.6797495   2.9299545  55.0339737  70.8103180  78.7403336
  55.0505180  71.2964859  77.9159470  55.9549141  70.6346970  78.9333420
  73.8401413  59.2690048  84.6062546  73.1441727  59.8735237  84.3485413
  74.5058670  59.8273811  85.0078278  31.6603775  34.7621078  81.3167953
  32.3834190  35.3150368  81.0206375  31.8033676  34.6647491  82.2582321
  68.1377640  58.3678131  44.2687798  68.7025681  57.8023643  44.7955513
  68.6273422  59.1862793  44.1871910  51.7483940  67.3360367  27.8700981
  51.1214409  66.9057770  28.4515076  51.2987900  67.3839645  27.0264206
  37.9628067   4.4103446  75.8238602  37.0969429   4.8174810  75.8512421
  37.9937630   3.8604178  76.6067047  54.9189491  29.1252899  32.5172691
  55.2786331  29.2602005  33.3940010  54.7216835  28.1893501  32.4807243
  25.4053860  45.1848831  37.4276962  24.7502460  45.3834991  36.7586861
  25.8032856  44.3642349  37.1370964   3.4776425  22.2049694  87.4847717
   2.8893278  21.5265636  87.8162613   3.4930508  22.8671837  88.1757584
  33.2783966  39.6818810   6.5665889  33.3918381  39.0852814   5.8267040
  34.0024414  39.4722061   7.1565294  18.4226723  55.5863838  34.4562759
  18.5255356  55.5456123  35.4070587  19.3077641  55.4610672  34.1140213
  32.3412933   0.6617394  26.8001652  32.9401741   0.0418947  26.3837948
  32.0004539   1.1880906  26.0769691  47.3644066   5.2694530   5.0170889
  47.2214127   5.6051159   5.9020262  46.6827431   5.6860762   4.4898415
   9.9449549  61.8287277  34.1712608   9.0580349  61.8295555  33.8112564
   9.8748894  62.3329659  34.9818573  63.6332779  40.7203789  64.7369080
  64.2758636  40.4937706  65.4091873  62.7996063  40.7587700  65.2056808
  11.5355291  62.7702293  39.7796555  11.8859625  63.0277519  40.6323624
  10.6139593  63.0269279  39.8120041  66.8948364  46.0163879  58.3442535
  67.3458405  46.4297676  57.6080856  66.9320221  46.6680527  59.0443878
  34.8076324   0.5972761  80.7661133  35.0135689   1.4070668  81.2330856
  33.8512192   0.5762332  80.7334366   3.6785200  71.3382568  82.2997437
   4.2704153  72.0887756  82.3508682   3.9625018  70.8619766  81.5195236
  86.2475815  31.9659576  39.3173103  85.7097855  31.4711285  38.6991234
  86.5481796  32.7256470  38.8185654  63.9961548   1.0063773  57.6410103
  64.2286835   1.7515097  58.1950340  64.4502945   0.2625903  58.0369492
  21.7137566  47.4773293  12.5288076  21.9999447  47.9691315  11.7590933
  21.5348454  46.5971909  12.1977835  56.7028122  30.8545933  84.9881363
  57.4026413  30.4570503  84.4700317  56.8566780  30.5407906  85.8792496
  59.3692970   1.2019838  72.5962982  59.4850006   0.2563191  72.5037613
  60.0312996   1.4627601  73.2365952  62.0234718  38.3502235  11.9882736
  62.6968842  37.6776581  12.0902710  61.8985100  38.6997833  12.8705578
  83.9258118  37.0603104  59.9073944  84.8268509  36.7395554  59.8689499
  83.4815750  36.6135254  59.1867905  38.1458244  54.5169258   7.4711108
  37.4206390  54.4964981   6.8466735  38.2014771  55.4328117   7.7436657
  76.9407883  22.5223198  20.0795765  77.1429062  22.0769310  20.9023800
  77.3978119  22.0109367  19.4118576  44.0917511   8.2239962  45.6414452
  43.3439217   7.6311722  45.7159081  44.2861214   8.4788237  46.5433922
  12.0475540  47.9555969  62.3938980  12.3716326  47.9259338  63.2940788
  12.7345381  48.4106827  61.9068871  22.5716743  42.0268707  10.1933022
  22.0763721  42.1643295  11.0007753  21.9506493  42.2301331   9.4938412
  70.0670166  50.6816559  14.7501888  70.4842834  49.9406815  15.1895952
  69.3552551  50.2900429  14.2439642  46.3387604  65.4933090  63.0225449
  46.5131874  66.3263474  62.5845337  45.3858757  65.4625549  63.1079979
  25.5436954  51.8768387  47.8650589  24.5913677  51.9281921  47.9467087
  25.6995716  51.0618515  47.3878479  78.4796524  17.9860420  36.8481331
  78.2982788  17.1646328  37.3048859  79.2583542  17.8012371  36.3230667
  78.2448883  68.1249924  66.0815811  78.8073883  67.3513489  66.0453033
  77.4221725  67.8057632  66.4523468   7.7986064  67.7973404  63.2006645
   8.2111692  67.3651810  62.4528275   7.7303238  68.7155304  62.9389572
  86.0891571  61.3198204  37.6219711  85.7086105  60.9048729  38.3960686
  87.0338974  61.2861862  37.7722168  22.1142902  12.1921453   1.7704184
  21.9203701  13.0911140   1.5049313  22.6468067  11.8411922   1.0566334
  30.3722725  52.0910530  74.0094910  31.0674629  52.6294250  74.3877716
  30.8094559  51.2775993  73.7577057  55.0102654  61.2256050  62.6245155
  55.0470085  62.1746178  62.7439194  55.6223221  61.0502625  61.9097595
  67.5817490   0.0878887  76.4186783  67.2158279   0.7026856  75.7827835
  67.0205307  -0.6849074  76.3550034  32.0125465  49.9909019  73.7140121
  32.6973495  50.2426529  73.0944138  31.5439091  49.2797508  73.2771149
  69.3512802  16.2044201   8.3817196  69.9945450  16.3839207   7.6959972
  69.1325226  15.2794304   8.2687063  64.5200500   7.3216505   8.3610325
  64.4168091   7.6848326   7.4814453  65.2224884   6.6773696   8.2732086
  27.3459301  32.1446381  63.0256882  27.7513313  31.2810345  63.1036224
  27.9030209  32.7190285  63.5510025  64.1689301  11.3719225   3.4612973
  64.3050690  11.7485237   4.3307047  63.3549538  10.8745279   3.5405164
   3.1476166   7.8686633  11.4178762   3.6662776   7.1295285  11.7355280
   2.2622406   7.5172029  11.3239775  47.8766136   2.8091109  54.4957695
  48.5913963   2.9260311  55.1215858  47.6792679   3.6942458  54.1894646
  51.3702888  25.0020103  61.2424774  51.1292801  25.0981083  62.1638412
  52.0895958  24.3705044  61.2476692   8.3538189  68.7896194  22.7504673
   7.9967442  68.4481354  21.9306393   8.9560347  69.4824448  22.4792347
  66.2090530  25.7875519  65.2735977  66.0382690  24.8515034  65.1693039
  65.4156113  26.1315231  65.6839218  58.5829506  53.4670601  13.0515308
  58.9739761  52.6973991  12.6380701  57.6408997  53.3544807  12.9246559
  17.2686024  31.4300613  84.7083817  16.3232002  31.3001995  84.7831039
  17.6452274  30.8167171  85.3394089   4.4882083  36.9159698  56.2096329
   4.8672061  37.3968430  56.9454002   5.2261095  36.7591171  55.6204529
  59.8766708   4.3831310  15.1246367  60.5507240   4.6686382  14.5078964
  59.1607361   4.0727968  14.5702362  40.6663208  47.8170471  87.1898499
  40.3392563  47.2193832  86.5175018  39.9081421  47.9864960  87.7490311
  16.9355679  53.9712868  73.1881180  17.5684719  54.1262283  72.4869308
  16.1016541  53.8470573  72.7349167  68.7505798   4.1393113  87.7126389
  68.5037994   3.3311622  88.1623383  68.2015533   4.8134584  88.1130447
  53.1576805  19.3630314  75.5490875  53.2209625  19.0664101  76.4569702
  52.3385735  19.8571320  75.5150909  35.6364594  57.0924416  44.4761772
  36.5291824  57.2064209  44.8021965  35.3503418  56.2581558  44.8481064
  54.4680214  46.4732475   8.2956495  55.3380928  46.6249809   7.9266229
  54.0771179  45.8127441   7.7236700  30.5977440  58.3372307  71.8583679
  30.8593693  57.6095200  72.4224854  29.6842518  58.1538048  71.6389999
   6.3077979  58.7036514  46.6494141   6.1996531  59.5590210  46.2336273
   6.8941407  58.2249565  46.0635071   0.6061186   3.1574397  58.9409866
   0.6332025   3.2598200  59.8923111   0.9853382   3.9682848  58.6019363
  11.6791286   7.1620378  14.9954882  11.1385212   6.7776027  14.3054266
  12.1586342   6.4206281  15.3651075  14.5847425  16.1246376  18.2706318
  14.1074524  15.7361021  19.0037518  15.4316444  16.3732281  18.6410255
  59.2348633  33.4891510  12.7575674  59.0411072  33.7495804  13.6580496
  58.7270508  32.6886215  12.6252260   2.7451642  58.0278473  74.2858276
   2.4979169  58.8018990  74.7917404   2.1895046  58.0630684  73.5072174
  51.4522209  23.8005619  11.1594181  52.3265305  23.9774437  11.5065823
  50.8691444  23.9130669  11.9101505  57.3436356   8.4411764  73.4563904
  57.4526024   9.3455687  73.7503815  56.9297180   7.9969959  74.1963959
   5.6735349  41.4831161   0.8968621   5.9287939  42.1191177   0.2285979
   5.9971261  40.6452026   0.5660735  60.6490364  40.5926895  27.3675900
  60.7816658  41.5263519  27.2035255  61.4308434  40.1730003  27.0086060
  56.0208664  17.5052376  12.8304272  56.4426537  18.1074791  13.4433146
  55.0836830  17.6233978  12.9852190  25.3536911  53.8326378  17.0428391
  25.5969696  54.0374603  16.1400127  25.1374569  52.9003181  17.0269966
  33.0976944   0.5561896  42.6207542  33.3546562   1.1827087  41.9442368
  32.4534950  -0.0077355  42.1926994  14.6495867  40.2832375  31.7964096
  14.3745432  39.3980331  31.5576687  13.8461504  40.7126083  32.0902863
  41.9004631   1.0007890  84.1498184  42.1076660   0.0924367  83.9302826
  42.7208138   1.3581560  84.4897385   7.7421551  67.7001495  72.5751648
   7.3538375  67.2790222  73.3420410   7.1674757  67.4543228  71.8502197
  38.5429802   3.4951334   6.8371153  38.6732674   3.0452094   7.6718760
  38.0402069   2.8763552   6.3074317  86.6139603   1.9713852  80.8665619
  85.8382797   2.2977326  81.3226929  86.4283676   1.0453447  80.7108841
   7.7010965  18.9229832  80.3598328   7.3032656  18.4684315  79.6173019
   7.3019199  18.5184917  81.1300735  65.3889923  32.8712044  21.3417320
  65.9240417  33.4562340  20.8053665  65.5213547  32.0050278  20.9564400
  54.9525223  54.5158615  23.7811031  54.5772285  54.5336838  24.6614838
  55.4791565  55.3134727  23.7290459  15.3902578  18.6982899  11.7194700
  14.9531260  19.4124184  12.1833334  16.3050709  18.7584839  11.9946537
   5.4345069  48.2083817  19.5774860   5.2913990  48.8243828  18.8589516
   6.1749067  47.6737556  19.2907543  46.7510986  21.2512493  67.1925583
  47.5095901  20.9405689  67.6869278  46.7780457  22.2035046  67.2859039
  81.3583832  29.8282738   4.4221773  80.7448807  30.4586430   4.7996407
  81.2783890  29.9529800   3.4765136  67.3793716  26.1887836  69.0405273
  66.8569946  25.5906391  68.5061264  66.9671478  26.1606655  69.9039536
  83.5209045  58.8910027   5.1016335  83.2155762  58.7740173   6.0012569
  82.7281113  58.8256950   4.5692320  77.5830307  15.1279306  15.2152338
  78.2500381  14.5121832  14.9116020  77.9874344  15.5703154  15.9615469
  30.2227001  61.3025932   5.4033360  30.9362068  60.7395134   5.7034678
  30.5910378  61.7803612   4.6601686  79.4843826  27.6773701  75.2399139
  79.5928879  28.4914169  75.7316284  79.7913055  27.8875637  74.3579559
  66.5896530  68.8533325  80.9522934  66.6543198  69.7788391  80.7167282
  66.5530396  68.8516312  81.9087906  83.1656876  54.9973869  58.1314430
  82.2805405  55.3287735  58.2828445  83.7341843  55.7504425  58.2925377
  47.3728867  58.9605255  39.3876648  47.5275574  58.9867706  38.4434090
  46.4526291  58.7112999  39.4727898  42.3698273  47.1782646  18.2601662
  42.8417854  47.9266548  18.6254005  41.7191353  47.5674171  17.6758785
  78.4256058  68.7959518  20.5918369  79.2450409  68.4397125  20.2485428
  78.6791611  69.2463913  21.3974705  22.1320286  35.2489204  55.6192169
  21.2081146  35.2578468  55.3691483  22.5923595  35.5775146  54.8469772
  15.7526150   4.4170079  84.7721786  16.4036980   5.0249333  85.1225357
  15.1412020   4.9730363  84.2892303  77.7743759  13.8552437  84.8005219
  78.4542999  13.7723589  85.4691620  77.4858551  14.7657213  84.8638992
  68.1500244  56.6253929  85.4222260  67.9283447  57.1228218  86.2094116
  68.2727051  55.7282143  85.7324677  62.9158401  29.1162529  37.7378006
  62.5106010  29.7050686  37.1011620  63.0062790  29.6457500  38.5300674
  46.5331345  39.7109222  82.1576309  47.1711502  39.8049812  81.4502945
  45.9126930  39.0572319  81.8351822  31.7891216   4.5385303   4.0563140
  31.3406963   4.0007730   4.7089720  32.5626907   4.0284367   3.8162503
   9.7803183  45.0217133  20.2197647  10.3311892  44.9723930  19.4385223
  10.3800516  45.2795181  20.9198303  30.0632076   8.6010447  30.1390648
  29.9360180   8.0935802  30.9406471  30.6948757   8.0920067  29.6310234
  21.2089920  61.2300911  14.6806297  20.8517132  61.0535889  13.8103247
  21.6831703  60.4312592  14.9114027  74.5450287  13.4542465  69.7959824
  75.4646149  13.1889448  69.8103638  74.1991730  13.1653957  70.6404877
  20.8432446  14.8139515  12.1562872  21.4230785  14.1190863  12.4680357
  21.3060398  15.6247969  12.3674307  52.5550003  18.2005501  72.2328033
  52.6444969  17.3429127  71.8172531  53.1826859  18.1833172  72.9552612
  11.5953217  43.5188065  55.0513153  11.3880997  44.1785851  54.3895149
  10.7435493  43.2453117  55.3917847  20.7151165  65.9109344  35.0380821
  19.9985352  65.6824112  34.4460335  20.4067631  66.6923599  35.4969025
  16.4148655  45.3173714  36.8016052  16.3196163  46.2619629  36.6795082
  17.1836262  45.2249222  37.3643608  16.9266491  12.2208681   9.5882492
  17.3592281  11.3866644   9.7704868  16.0257053  11.9811182   9.3713341
  11.5473633  31.6865482  82.6266785  11.0065918  31.1109486  82.0858612
  11.2247601  31.5508442  83.5176010   7.5645986  66.0970154  56.9012642
   7.2480211  66.8976135  56.4828835   8.5016851  66.0796051  56.7068520
  66.6235962  50.1237488  39.9739494  66.7048798  49.1825829  39.8195724
  65.6988907  50.3134918  39.8153839  47.3150711  42.9822006  54.0585098
  48.1813698  43.1989326  53.7138596  46.8566170  42.5819740  53.3196793
  68.6712418  50.9527130  41.6820488  67.9781342  50.6540947  41.0932732
  68.3824005  50.6761627  42.5517197  28.3075428  33.0024910   7.7540069
  28.7930031  32.5300560   8.4302940  28.8685818  32.9560814   6.9798541
  72.4991150  22.8066807  75.0900116  72.4890442  22.3630657  75.9381485
  73.1290970  23.5189419  75.1997223  48.5312080  36.5376663  30.9063339
  48.5249214  35.8594055  31.5817242  49.2030869  36.2527122  30.2869720
  41.0815620  34.7006264  27.9940834  40.5253868  35.1089439  28.6575451
  41.5853882  35.4257965  27.6245937  17.6521244  42.3109856  45.3661613
  18.3543568  42.6694603  45.9089279  16.8993378  42.2549629  45.9547234
  33.5752106  39.8861122  42.4844704  34.2588921  39.6093941  41.8743553
  34.0351601  40.0260696  43.3121719  44.7308960  52.0279541  45.4475021
  44.8964996  51.5688934  46.2709503  44.6040840  51.3296051  44.8052711
  23.7876129  35.3975716   4.7936015  23.5942459  36.1248474   5.3851328
  23.7069244  35.7737656   3.9171314   1.1329867  62.8447113   3.2330287
   1.6710031  63.3526382   2.6257546   0.9345727  62.0370216   2.7592134
  39.7332687  64.5563507   3.1799245  39.5400887  65.4642258   3.4137523
  40.6721306  64.5516129   2.9935091  24.2747040  10.2594395  79.7594147
  24.9050846   9.5748358  79.5354309  24.7158985  10.7812796  80.4296875
  32.8139229  51.2586670   3.2422159  32.1658630  51.9142609   2.9844491
  32.3239670  50.6356544   3.7789016  56.3181419  36.0511780  48.1944847
  55.8507423  35.2675896  48.4838905  57.1824379  35.7322540  47.9346542
   1.1513593  39.8703804  44.2933502   0.5077618  40.4910927  43.9516945
   0.6550410  39.0641975  44.4346695   6.0167670  53.7508240  22.8605328
   5.2911000  53.1340942  22.9568710   6.7822528  53.2713509  23.1773434
  71.9794312  36.2878914  13.9335041  71.3191910  36.4804497  14.5992575
  71.4921341  35.8594704  13.2297831  20.3237381  69.4608383  23.1086903
  20.4025116  70.3123474  22.6786156  19.4330597  69.4510117  23.4591579
  69.3684464  32.1988525  63.7481270  69.0763626  33.0259476  64.1313171
  68.6120605  31.6176682  63.8277512  44.8384552   1.6691279   0.1788286
  44.0800018   1.3399314  -0.3034657  45.3383904   0.8844156   0.4036023
  11.6649723  20.3765831   4.7386432  11.9649811  19.7797184   4.0530920
  10.7890787  20.0625343   4.9631767  20.7994900  70.4881592  30.9516945
  19.9198093  70.4219437  31.3231907  21.3212490  70.8960953  31.6427689
  65.4697037  62.0270271  68.1393967  66.1710587  61.9289665  68.7833786
  65.6940918  61.4078789  67.4447403  43.4456673  32.3838005  68.8476028
  43.5812454  31.4849548  69.1474838  43.4022408  32.3141365  67.8939285
  15.7904911  35.7446671  13.1627893  15.6197090  34.8839607  12.7803593
  16.5445118  36.0776405  12.6761532  17.0349960  23.3142281  66.8706207
  16.1115379  23.4375629  67.0902710  17.4522419  23.0955448  67.7038803
   0.8084332  15.5639143  20.3312168   0.1799400  16.2551460  20.5396061
   1.5275438  15.7001057  20.9481144  76.1912460  45.9060135  57.4951134
  76.9500275  45.5092659  57.0672379  76.3981094  46.8398705  57.5318451
  74.7088852  71.1469421  43.2820930  74.8298798  71.1066437  42.3334274
  74.8622513  70.2507629  43.5813866  79.4241791  70.9053345  14.3507843
  80.0325775  70.2931213  13.9369249  78.7008820  70.3563309  14.6535635
  46.7636261  55.5357590  41.4140358  47.1919098  55.8297615  42.2180061
  45.8311424  55.5242195  41.6298447  83.3991318  29.0144768  67.2386780
  83.8786850  28.7520008  66.4529495  83.9329071  29.7092648  67.6241379
  83.1867828  11.4517689  52.0804482  83.0410538  11.5203629  53.0240021
  84.1139908  11.6598940  51.9655457  54.9289932  12.0864267  55.4175034
  55.7973328  12.1269321  55.0167770  54.9396858  12.7749434  56.0823822
  73.2088318  28.1793785  86.9441452  73.6028061  28.4450626  86.1132278
  73.4735336  28.8598251  87.5631409  71.7245407  31.7599754  74.6041870
  71.3338089  32.5619926  74.2573090  71.5554276  31.1006508  73.9311981
  15.6505232  54.3484192  54.6778831  16.1438046  53.5359840  54.5645218
  14.9015284  54.2580490  54.0887566   1.4845160  40.2879028   4.2975869
   0.8012732  39.6226616   4.2147341   2.2489150  39.9005623   3.8710952
  16.3086014  11.7129135  58.3328590  15.3866148  11.9685173  58.3039131
  16.3095284  10.7903986  58.0775185   4.9496307  61.1343727  40.8947754
   4.1746259  61.0836678  41.4542656   5.6615863  61.3638611  41.4920082
  15.5623102  47.3779106  70.8937225  14.7257214  47.6503906  70.5167465
  15.4491234  46.4457092  71.0792618   3.8494303  24.7912941  16.2504768
   4.7459941  25.0939541  16.1062489   3.8885636  24.3123875  17.0783348
   3.2229245  12.4238119  61.6314278   2.6636276  13.1901445  61.5043373
   3.7509015  12.6375628  62.4007034  59.7726593  40.4239502  74.4463272
  59.1841469  41.1299324  74.7136841  59.2777863  39.6223869  74.6161118
   2.2958639  37.3424034   3.8095717   2.1694181  37.0476265   2.9077137
   3.1518164  36.9932480   4.0578966  24.7002926  62.2738037  40.3206329
  23.8764133  61.7875938  40.3530884  24.6107063  62.9424591  40.9996796
   4.8016038  22.6923885  55.0640602   4.9098430  22.6819973  56.0150642
   5.6830544  22.5453262  54.7210579  20.5950832  57.8815269  82.2273560
  21.4383869  58.3257217  82.3154678  20.6087418  57.2051430  82.9045181
  48.1232491  20.5774593  77.0310974  48.0239830  21.0881195  76.2276077
  48.9970169  20.1924496  76.9637833   9.4905787  44.9308853   0.6848106
  10.2923937  45.2243805   1.1174593   8.8694286  44.7926331   1.3998564
  59.6378174  17.9146690  56.8753891  59.3480988  18.6147194  57.4603920
  59.9724731  17.2359009  57.4614868  63.9036713  45.9486580  62.8911476
  63.5983925  45.3207588  63.5459595  63.2545013  45.8977432  62.1895638
  27.4093685   1.4690423  61.4028664  26.9786530   2.3097134  61.5577469
  28.2516994   1.7000428  61.0112648  83.2323074  28.7407455  74.6560059
  83.4820404  28.8355618  75.5751801  82.4551163  29.2913589  74.5609512
  59.8528557   3.6424069  81.6035080  59.7280312   3.5153892  80.6630173
  60.3767395   2.8902736  81.8793182  33.9564629  58.9507484   0.9805097
  34.8265877  59.0450401   1.3680978  33.3529892  59.0824890   1.7117372
  80.8289032  26.7264938  23.7459259  81.2309341  26.5665302  24.5997486
  80.1475677  26.0581379  23.6730137   1.1284394  21.6737747   0.6645550
   1.1476201  21.2116070  -0.1734576   1.1825486  20.9801121   1.3219273
  45.9404755   3.2604184  70.3092346  46.0374985   4.1451917  70.6613693
  45.4302559   2.7938020  70.9711838  64.4405289  61.0966682  18.3907795
  63.6720314  61.3903084  17.9014702  64.6502609  61.8295212  18.9697170
  53.2584381  17.9969177  77.9314575  52.4748001  18.3797550  78.3258972
  53.9285583  18.0695419  78.6110916  80.6967316  54.0519600  40.6186562
  80.2328415  53.3185959  40.2146568  80.2962112  54.8307648  40.2322960
   7.8445253  25.7389736  69.2201080   8.6666784  25.9827042  68.7947922
   7.1738396  25.9044762  68.5575180  72.8739700  21.2184868  79.1356354
  73.6216125  21.1184883  78.5463486  73.2628250  21.4532375  79.9781952
  52.9063148  17.9193802  15.8334732  52.2826805  18.6426468  15.7687054
  53.2873001  18.0091267  16.7069874  37.0666389  40.8500061  38.1188774
  36.6238365  41.3303871  38.8184433  36.5025063  40.0947762  37.9526901
  73.3710251  64.4432755  75.7597046  73.8284760  65.2463989  76.0086136
  74.0501251  63.8911095  75.3721848  54.7495270  39.9695625  88.0949783
  55.2063332  39.1303635  88.1524963  55.4400940  40.6059532  87.9096298
  60.9626389  13.6791821  68.1009979  61.3104324  14.3471470  67.5101547
  61.4621201  12.8901100  67.8909683  78.1316376  71.2859116   0.0606636
  78.9461517  70.8077164   0.2160013  77.9176941  71.6762009   0.9080903
  22.2122707  40.9181290  35.9059944  23.0521297  41.1953239  36.2720947
  22.2935333  39.9690285  35.8119698  12.6677094  34.3269653  11.5681257
  12.7316732  34.6500359  12.4668837  11.8734093  34.7346611  11.2230158
  65.5311813  27.8596783  28.6752300  65.3448563  27.4921036  27.8112831
  64.9066086  27.4286976  29.2586594  27.4123840  17.5595284   8.0614243
  28.0896416  17.3337460   7.4237919  27.7980728  18.2650070   8.5808239
  65.1341858  62.7153854  34.0268784  64.3123398  62.3978920  34.4010468
  65.2659912  62.1767807  33.2466469  18.5835953  40.1314850  63.5865250
  19.3508663  40.1883125  64.1559982  18.1146851  40.9528732  63.7337570
  24.6414471  66.1987381  17.4971790  24.0473270  66.3393860  18.2343845
  24.9543667  65.3011475  17.6096191  49.8294754  40.4032860  49.2754898
  49.7906418  40.7178612  50.1786880  49.6009750  39.4756622  49.3349190
  58.7331924  36.9644165  52.1630096  59.1571083  37.5177612  52.8190117
  57.9158325  37.4186707  51.9585495  53.0241013  31.7952766  34.6961861
  52.5515251  31.8158150  35.5283394  52.3524323  31.5953102  34.0441818
  74.7804260  70.9825058   2.9159272  75.7105408  71.1997528   2.9785056
  74.3690338  71.7826538   2.5891950  19.0024376  57.4200020  62.2720642
  19.4474545  57.2181511  61.4489937  18.9224987  58.3738594  62.2734604
   6.8757524  63.6085510  84.4230042   6.5255766  63.8541946  85.2793198
   6.2805028  62.9288864  84.1068268   4.8217506   6.2113729  21.3725204
   5.3377872   6.5169821  22.1185360   4.7489290   6.9765892  20.8021049
  70.0004883   2.8061385  20.4211769  69.1600876   2.7864337  20.8789654
  70.4503250   3.5714884  20.7791157  67.1992569  37.0734138  61.8768997
  67.2188644  36.8635445  60.9431953  67.7067795  37.8815575  61.9514465
  65.8339310  10.3370790  60.3047180  66.4688339   9.6365795  60.1549530
  66.3685760  11.1115208  60.4797249  55.3800240  11.4338789  78.0523911
  54.7902412  11.5923185  78.7894669  55.2130051  12.1600962  77.4515991
  69.4247513   7.7466750  34.5307808  69.0393753   8.6180038  34.4385834
  68.7695007   7.1546679  34.1614494  28.3202953  29.4423904  88.1135712
  28.4346790  30.3821316  87.9720383  27.7787514  29.3828793  88.9006042
  36.7071838   8.6122541  39.7134590  35.9059105   8.9484739  40.1148949
  36.8016548   9.1187210  38.9067383  67.4042282  44.7982750  13.2152729
  66.8835907  45.0979385  12.4700413  67.6890335  43.9179688  12.9699593
  12.0494967  64.0840530  46.5069199  11.2947836  63.9762459  47.0857277
  11.9560747  64.9688187  46.1538048  54.6105423  12.1996450  17.1483669
  53.9824677  12.4326973  16.4646740  55.4102974  12.6677485  16.9085636
  58.8725433  67.7346115  20.9606743  59.1553497  67.2785950  21.7533302
  58.1439438  68.2849121  21.2479839  57.1643066  19.0983086  24.7640724
  56.9438286  18.7961254  23.8829899  58.1190681  19.1665401  24.7619572
  22.7085018  29.8761024  65.7623444  23.2093906  29.5282383  65.0245514
  22.6192493  30.8099670  65.5721741  44.5688972  14.1921854  13.2829599
  44.7235603  14.0401831  12.3506479  45.4436989  14.2100906  13.6710711
   5.8783808  49.1616974  73.3462372   5.5606675  48.2598686  73.3015747
   6.0773664  49.3907700  72.4384079   0.7626962  14.5375385  33.7548180
   1.0180274  14.8261309  32.8786011   0.7594269  13.5818720  33.7007523
  59.5072327   5.0223155  60.8021011  58.9404869   5.0034623  60.0309486
  59.0870247   5.6472650  61.3929443   3.9377050  52.2633896  58.6924400
   4.3599081  52.5015984  59.5178108   3.1589384  52.8185310  58.6528168
  10.5319757   3.4212348  12.1713333  11.1878824   2.9376750  12.6735163
   9.8581390   2.7719791  11.9697323  56.5683136  25.3195992  82.9004593
  57.0666275  26.0090790  83.3392487  57.2320518  24.6994152  82.5987091
  71.3599777  45.5098953   0.7258582  71.8006439  46.1411629   1.2946644
  71.7642365  45.6377754  -0.1323111  81.2979202  55.0342445   0.9268733
  81.2551041  54.1059647   0.6973152  81.7984390  55.0564384   1.7424815
  39.9376068  28.6186371   3.8994343  40.1990814  27.9559917   4.5387797
  39.5377884  29.3126106   4.4236279  70.8056335  40.5872803  51.5904617
  71.1953659  41.1356544  52.2713623  71.1556931  39.7122955  51.7580757
  54.2177696  34.5101509  44.8036842  54.9572029  34.5168190  44.1958771
  54.6117859  34.3351784  45.6583023  20.2213573  44.9585266  34.6000481
  20.5574188  45.6976624  35.1069756  20.1176243  44.2556229  35.2414513
  26.8245506  68.0105209  36.2949715  26.5213280  67.5923462  37.1008377
  27.7747173  68.0658569  36.3967171  66.6044998  35.3984337  26.6735039
  67.4887466  35.0345459  26.7173805  66.6578751  36.0770454  26.0005493
  18.4926319   8.2690220   5.9522762  18.5832081   8.6320591   6.8333163
  19.1736927   7.5985951   5.8982949  77.5825119  16.5379715  24.2737789
  77.7126846  15.8820667  24.9586716  77.0561371  16.0909386  23.6109676
  20.8554859  28.1269016  71.9569550  21.5126286  28.6263962  72.4416199
  20.9033794  28.4705334  71.0648499  12.4828329  52.8212090  37.0152664
  11.8679419  53.4663620  36.6660995  13.2822514  53.3195877  37.1849174
   4.3712978  56.0594673  78.0433578   3.5626760  55.9798546  77.5373688
   4.3700275  56.9641190  78.3561478  77.0457764   4.6349611  64.7876587
  77.8010101   4.9036140  64.2645111  76.7054825   3.8617570  64.3375626
  43.5691223  38.7362785  29.5194683  44.1556244  38.0157433  29.7498417
  44.0185242  39.5207787  29.8338432  23.6071949  14.7253847   0.7383094
  24.3624668  14.4843931   0.2019152  22.9060402  14.8852921   0.1066115
  24.1992435  12.0286770  18.5959663  24.2079105  11.1370554  18.2478771
  23.5222054  12.0151119  19.2724781  29.2978344  66.4817886  79.5601273
  29.3608246  66.6023712  78.6126480  30.1759319  66.6797714  79.8856735
   0.7068965  45.1955147   0.3384773   0.0438185  45.5312386   0.9416758
   0.8033006  45.8844223  -0.3190517  54.9302979  16.8367615  42.9535561
  55.7224579  17.0289268  42.4517670  54.6831360  15.9528694  42.6817551
   4.1435299  42.7607727  35.7572594   3.2057843  42.6856499  35.5805626
   4.4266162  41.8635941  35.9337997  34.4939156  58.5827751  34.4719353
  34.0118408  57.8011627  34.7419662  34.4071236  58.6003532  33.5188408
  31.5257053  64.1275482  16.1606426  31.3686848  63.8951797  15.2454491
  31.4564304  65.0820312  16.1806889  10.4006414  62.5046616  65.1822891
  10.9421873  61.8851280  64.6932755  10.8503876  63.3440857  65.0857010
  50.1979980  25.7673531  36.9085884  50.2941742  26.7192307  36.9388161
  50.3556824  25.4819908  37.8085518  61.2421265  58.6694984  82.2888489
  61.6740303  58.9348755  83.1007996  61.5163498  57.7619057  82.1572647
  69.4972382  32.6557770  13.5763960  69.2638397  31.7349892  13.6943312
  69.3335266  33.0556526  14.4305210   2.4056165  20.7729225  49.0813751
   2.3045986  20.6739521  48.1346817   2.8217235  19.9586411  49.3642731
  71.4465485  25.3035889  78.5022430  71.3071594  25.9893436  77.8491364
  70.8156967  25.5005150  79.1946869  73.1243515  36.5025253  66.9304428
  72.8982162  37.4048843  67.1559296  73.2661438  36.5205002  65.9839706
  85.4141769  47.7580986   6.5089478  85.8844376  48.5314255   6.8204718
  84.9186249  47.4563065   7.2702498  40.3459206   9.4039421   7.6617851
  39.4619331   9.1528664   7.3939104  40.8515396   8.5928774   7.6092863
  13.8342218  70.4188690  60.1588020  13.3114319  69.6518250  59.9251862
  14.1510124  70.7569504  59.3211975  68.2007599  17.8087788  37.5561180
  69.0657349  17.3992844  37.5749893  68.1591110  18.2413635  36.7032585
  80.8873596   3.2877839  82.8515396  81.8054581   3.3464570  82.5872040
  80.3958054   3.5111592  82.0611496  20.6160717  18.6957722  73.3819885
  21.0405579  17.8890133  73.0901260  21.0118008  18.8799782  74.2338715
  40.5407600  59.2863312  18.6811466  40.2749329  60.1598663  18.3939209
  41.4864464  59.3548088  18.8123665  68.5898743  42.0622940  54.1082230
  69.2082520  41.5880661  54.6640587  69.1235886  42.7212791  53.6642380
  52.4699020  12.3301458  33.7195930  53.3472481  12.5606461  34.0251465
  51.9037933  13.0127926  34.0797958  26.7525444  43.1488991  36.0822716
  26.5994415  42.4532700  35.4428215  27.0762615  43.8847885  35.5627480
  48.9210396  57.7624207  64.5007324  48.4028816  57.1518784  63.9763451
  48.6106415  57.6317863  65.3967361  14.0366650  46.4761009  41.5197945
  14.5714846  47.2674637  41.5825920  13.8748398  46.2236290  42.4288063
  21.4802837  10.4469061  79.7241058  22.4035473  10.1990519  79.7729416
  21.4717693  11.3811731  79.9322052  22.0548000  69.8023453  80.9382095
  21.7125797  68.9988556  80.5463867  23.0004578  69.6618729  80.9854355
  41.1062775  11.9214373  81.7717285  41.0587730  11.2751322  82.4761887
  40.2313499  11.9173164  81.3835068  75.5534363  41.6718826  59.4515190
  75.1044769  40.9190407  59.0669556  76.4154663  41.6748772  59.0354271
  61.5354652  19.5116692  51.2066994  61.9867058  18.6957092  51.4230881
  60.6106339  19.3235722  51.3665161   1.8226540  30.6120491  38.9911690
   1.0918810  30.9819965  39.4864883   1.4205067  30.2628174  38.1958427
  41.7116814   3.2352493  80.1973343  42.1157036   3.5377247  79.3840103
  42.0830536   3.8011460  80.8741531   0.9089653  53.5685692  55.5786400
   1.8326364  53.6477051  55.8169708   0.4503036  54.1224365  56.2103767
   7.1469965  13.4967442   8.2434855   7.1593719  13.0517139   9.0908508
   7.9851708  13.9571972   8.2025137   9.3025990  43.0600777  11.2287884
   8.3991270  42.7443237  11.2123775   9.2459087  43.9275322  11.6294575
  31.6230736   0.6435327  82.7836304  32.1406746   0.5495427  81.9839554
  31.1932735   1.4939094  82.6921768   7.6523328  14.9574366  14.4558907
   6.7194233  14.9675932  14.2418613   7.7372084  14.2780962  15.1248627
  54.1449089  35.7749443   9.6013365  53.2332458  35.6073189   9.3625860
  54.2438126  36.7233696   9.5180454  39.1472321   2.3675838  49.9208107
  38.2003746   2.2738008  49.8164215  39.3251381   3.2781448  49.6853104
  75.2924805  68.6500778  20.1264973  75.8341141  69.4317551  20.0176277
  75.6005096  68.2570877  20.9431419   5.8354840  40.1181679  46.4029465
   5.8726091  39.5257072  45.6520500   4.9912868  40.5610962  46.3170547
  80.3323059  39.1325760  77.6379318  79.4771042  39.4586678  77.9181671
  80.1300430  38.4153671  77.0371475   2.8282228   2.6758332  41.4163589
   3.5278835   2.7963612  42.0583687   2.9148107   3.4231937  40.8245926
  62.0340729  42.6136093  14.4943924  61.8229485  43.5272179  14.6866980
  62.5832748  42.3353157  15.2273054  40.8309135  47.0780983  29.3114357
  39.9109154  47.3066559  29.4440765  40.9979057  47.2813187  28.3910828
  22.6193829   3.2627480  28.9064903  22.8529053   2.5939171  29.5502014
  23.4596844   3.5895877  28.5850887  78.6722717   4.6983361  22.0957661
  78.7874298   3.7500997  22.0339737  77.9199524   4.8108850  22.6767807
  67.8721771  33.5458412  31.3724613  67.7371902  32.6127319  31.2071743
  66.9896164  33.8997726  31.4821968  84.5377655  15.3163586  46.4024162
  84.0371475  15.4077291  47.2131386  85.3103409  15.8657637  46.5347672
  73.5738220  34.9022369  29.0981808  74.4368439  35.2543449  29.3160095
  73.7581940  34.1301460  28.5632820  84.5652084  63.5969391  83.2460709
  83.6252823  63.5982780  83.0650330  84.6279831  63.4229355  84.1852264
  17.8760719   5.7840557  57.1271667  17.7484684   6.7295179  57.2049522
  18.1733475   5.5103045  57.9948769  51.7573090  49.2706833  26.7241383
  51.4453697  48.5145187  26.2270069  50.9946289  49.8453560  26.7897587
   3.3671207  60.3489952   5.3435359   2.5604277  60.3090210   4.8298430
   3.0843070  60.6366692   6.2115741  25.7403240  57.6853485  45.7284164
  24.8198509  57.8682632  45.9168510  25.7928009  57.6806335  44.7726669
  86.2393265  36.9493217  22.8817310  85.7912140  36.2644272  23.3780613
  87.0277786  36.5239220  22.5446587  15.0385370  60.5213814  88.1405258
  15.1492081  60.6959648  87.2059174  14.6019258  61.3026123  88.4800568
  70.0887604  10.5815964  70.6650085  69.5121765   9.8507404  70.4422226
  70.9439926  10.3259230  70.3194122  77.1575851  43.9469604  38.7961044
  77.9812469  44.4323769  38.8428345  77.3087540  43.1667862  39.3296852
  10.1896076  70.8997345   9.2141638  10.9478979  70.6716461   9.7519417
  10.3849592  71.7768478   8.8844032  21.7820568  54.9123535  41.6217537
  21.4244308  55.6809731  41.1772728  22.5433407  54.6648140  41.0969658
   6.8693233  57.0696754  14.5252829   6.3522501  57.3636780  13.7753305
   7.1283326  57.8772964  14.9690132  53.8165207  26.4338207  39.1697464
  54.2962570  26.9715633  38.5397339  54.4977226  26.0276718  39.7056961
  74.9903793  23.6350594  60.1371803  75.4459686  24.4659195  60.0017319
  74.5395203  23.4713154  59.3088417  68.5823746  41.6452370  36.7203674
  69.2050400  42.3716316  36.6909180  69.1303940  40.8607483  36.7423477
  26.8459091  50.6018639  25.6321316  27.4572487  50.3352585  26.3187294
  25.9858513  50.3440742  25.9639091  46.2520065   0.8520840  33.5773659
  45.5516510   1.4547969  33.8273010  46.5036850   1.1294464  32.6964798
  64.2016678  51.0383301  23.8986855  64.9609146  51.0451317  24.4815483
  64.3197098  51.8084373  23.3426018  10.2783041  27.9199734  83.8022919
  10.9529285  27.6226521  84.4127884  10.4809599  27.4684944  82.9829407
  67.2863770  63.1384087  25.9733105  67.0054169  63.2561531  26.8807430
  66.6310272  63.6075172  25.4568882  45.7384415  42.2195778   6.5350342
  46.6072998  41.9830170   6.2104483  45.8605804  43.0764427   6.9438081
   6.1646171  43.6784401  18.5951691   6.3063545  44.4831657  18.0966167
   5.9982591  43.0106659  17.9298592  76.3413391  35.2771606  23.5523357
  76.3299026  35.3322411  24.5078812  77.2708740  35.2610016  23.3244648
  54.8525925  18.1132717  31.6483479  53.8999138  18.2041550  31.6677113
  55.0130386  17.4055252  31.0241795  75.2197571  22.2369480  25.4143143
  74.7139435  23.0149441  25.6490612  74.6635208  21.7684097  24.7919788
  68.0144348  20.9460144  20.0630989  68.3103943  20.5833035  19.2281876
  67.1368103  20.5835552  20.1840534  48.6545029  38.4337540  41.4021835
  48.1373825  38.6554871  40.6278114  49.2170944  39.1956825  41.5407181
  45.5114937  49.1026497  37.7568855  46.1836472  49.0712204  38.4376564
  44.8276825  48.5094223  38.0678825  21.3771362   3.6756768  22.0221996
  20.9616337   2.8407991  21.8064022  21.5765610   3.6096478  22.9560623
  15.0653391  34.0981064  79.1668472  14.1338520  33.9357414  79.0178452
  15.3120441  33.4709587  79.8465958   8.5007839  49.9141464  18.8482990
   8.1430798  49.0562935  19.0771351   7.8067040  50.5320396  19.0778427
   3.5819495  28.8841152  69.5642014   2.6558321  29.0318108  69.7558365
   3.6057422  28.6992588  68.6253204  32.4157562  11.1133652  74.7538300
  31.6568928  10.7638063  74.2867508  32.7863998  11.7629061  74.1563797
  37.8171539  67.5858765  79.1560211  36.9942894  68.0094833  79.4003296
  37.7268829  67.4094009  78.2195740  70.6811218  49.0214272  25.3319759
  69.8710861  49.0433083  24.8224754  70.4227753  49.3159561  26.2053280
  68.9103851  48.1540070  77.5883331  69.7243576  48.0249214  77.1014938
  69.1255035  48.8186874  78.2426682  30.8185196  27.9782162  74.2036591
  30.3210392  27.2988567  74.6588745  31.2010651  27.5300865  73.4492950
  81.9611893  48.0664902  46.9461098  81.1367111  48.3900146  46.5830612
  81.7140732  47.6604347  47.7769432  14.5261917  24.8043995  50.0739479
  14.6486654  24.1220322  49.4139442  13.9559669  24.4035110  50.7299690
   0.6532404   8.9515057  59.0902176   1.5163882   8.5477133  58.9998894
   0.7608207   9.5919256  59.7934380  85.5580215  10.9824314  86.2688141
  86.3917084  10.8042536  86.7040787  85.7409744  11.7277956  85.6968079
  31.9838486  10.8796015  77.5088425  31.1290836  10.5039196  77.7197266
  32.0169563  10.8775444  76.5522156  27.2903824  55.6429520  46.9017372
  26.8977623  56.3149719  46.3445358  28.2277985  55.6948128  46.7152023
  33.7779846  36.5933151  80.8703003  34.3848801  35.8875885  80.6470032
  34.2161255  37.0724030  81.5736771  82.9917526  47.2826309  29.0278378
  83.5348129  48.0644035  29.1285629  83.1507950  46.7762604  29.8244114
  18.8289623  61.8700867  52.0025444  18.0519047  61.5977325  51.5144501
  19.3080044  62.4337654  51.3950768   8.3110266  56.9157486  67.6652451
   7.6937442  57.5050697  67.2317810   7.9183755  56.0476646  67.5730972
   5.3706980  52.4098282  25.8548870   5.1976156  52.6348114  26.7690296
   6.2484846  52.7521896  25.6860332  30.4222412  54.2339668  28.8569317
  30.9236107  54.8461304  29.3955536  30.5598373  54.5365562  27.9593029
  75.1079407  58.7737122  68.0067215  74.4369736  58.0941734  68.0720367
  74.7442093  59.4111671  67.3922424  48.5749664  19.6022644   5.1389575
  47.9906387  19.5074711   5.8911595  48.5318527  20.5325966   4.9179225
  34.3985481  13.8976822  82.3488159  33.7191200  14.2276115  82.9368286
  34.5569878  14.6175156  81.7381058  73.0901718  18.0439243  60.0229187
  73.1501770  17.6826591  60.9072914  73.7592468  17.5731602  59.5259781
  52.7182770   4.0174761  71.0656128  52.1125374   3.2779372  71.1145248
  53.1401443   3.9254332  70.2113342  13.0375566  19.7369499  77.9423294
  13.7621546  19.3695393  77.4361725  12.8002615  19.0439987  78.5585632
  51.4131241  27.3444309  59.7153511  51.4852371  26.5670605  60.2691841
  50.8733559  27.9506855  60.2226334  62.0061531   0.8481724  40.9832344
  62.3838882   0.8601716  41.8626709  62.7621727   0.7952365  40.3985443
  15.8132858  10.1439857  17.3715115  15.9220762  11.0924292  17.3018532
  14.8656902  10.0097427  17.3549881  85.5170822  33.3969307  53.4540176
  85.6769714  34.2929535  53.1576881  86.2753143  32.9027252  53.1424484
  61.7568436  15.1554279   6.8683648  61.6995430  16.0442257   6.5176711
  61.0923462  15.1262465   7.5567150  77.3390503  54.1161995   6.4158063
  76.4567108  54.4664459   6.2931814  77.3755493  53.8778954   7.3421488
  76.7414627  13.6213350  12.7321835  76.8172836  14.3141632  13.3882875
  75.7986603  13.5016747  12.6180649  65.7754974  34.5572166  23.9901447
  65.5402145  33.8711014  23.3655472  66.1664581  34.0869484  24.7265072
   7.9338965  48.7575302  38.0638084   7.6559963  48.3924026  38.9038582
   7.4398947  49.5733185  37.9820557  72.0893631  30.4405842  63.3607941
  71.4363098  30.6267891  62.6861916  71.7244644  29.7034569  63.8504105
  63.9797516  21.4275379  79.9695663  64.6411285  21.0018463  80.5150909
  63.8623962  20.8336201  79.2281342  70.7328796  23.4359570  73.0920258
  70.8128738  22.9101543  72.2961884  71.2062302  22.9366856  73.7575378
  78.6549225  61.3719482  70.4672394  77.8888321  61.4445152  69.8979645
  79.2590179  62.0394745  70.1421051  30.4663639  11.1421204  31.1959858
  30.1253433  11.0193062  32.0819054  30.5572567  10.2546072  30.8491554
  56.8986244   2.0339699  73.9120483  57.0172691   2.9821649  73.8565369
  57.7874374   1.6848298  73.9779739  45.2893867  23.0958920  20.9748631
  45.3215904  24.0508728  21.0315113  45.7743950  22.7939148  21.7428532
  36.5191994  59.2535019  40.9564476  36.7368355  59.0555916  40.0455704
  36.7647018  60.1720276  41.0672264   9.2925100  45.5697746  59.9823418
   9.4965029  45.3983917  59.0629692   9.5967503  46.4648514  60.1323586
   5.4782872  28.1027355  73.5323257   6.1865349  28.6193352  73.9167023
   5.8704476  27.6963253  72.7594910  70.2264252  42.6105843  74.3505402
  69.5112381  43.2462921  74.3258438  69.9199066  41.8840256  73.8079605
  50.7217979  40.5218658  86.3813629  49.8281975  40.7466431  86.1221619
  51.2050934  41.3453255  86.3137817  64.9750977  48.6023102   8.3365297
  64.3635254  48.5777016   9.0724678  64.7620697  47.8238144   7.8219471
  35.1706734  71.3902283  84.0379410  35.4504852  72.2767563  83.8098984
  35.9492531  70.9837875  84.4185486   2.2369204  70.2927017  24.8040752
   3.1026814  70.3696365  25.2050362   1.8703780  69.4911957  25.1775398
  56.0013046  67.8221283  86.7555466  56.2808266  68.3484344  86.0064774
  55.0464973  67.8897018  86.7527847  33.8974648  57.3784790  85.5812759
  33.9443283  57.2527046  86.5290146  34.4027901  56.6512794  85.2178802
   1.7859188  55.5603676  66.2939301   1.4375938  55.5573158  67.1854935
   1.8686581  54.6344032  66.0659409  67.3973465   3.1989245  85.4550781
  66.5933990   3.6136539  85.7679672  68.0720444   3.4918873  86.0676117
  10.6837454  32.0743942  69.7015762  11.3642759  32.6984978  69.4493790
  11.1562843  31.3728695  70.1496887  23.3364353  57.6881485  79.7899551
  24.0889511  57.4462891  79.2500916  23.0835495  56.8747177  80.2265472
  77.1114655  20.8981056  46.5537224  77.2599182  19.9529228  46.5249939
  76.6291733  21.0893612  45.7493286  73.6871262   0.5523010  55.8679390
  72.7457275   0.3838856  55.9084206  74.0035858  -0.0227934  55.1712685
  49.9035645  44.6830711  65.9425049  49.7268028  44.6122208  66.8805695
  50.3858948  45.5047913  65.8510590  77.8644638  39.5543747  21.1951962
  78.6439285  39.9403076  21.5948524  77.8123398  39.9612274  20.3303337
  65.5605621  55.4627304  49.1992836  66.5060501  55.6116486  49.1889229
  65.2000351  56.1755180  48.6718483  56.2905006  47.4292030   0.1983120
  55.8693771  47.7150307  -0.6123616  55.6679611  46.8154106   0.5880986
  68.1869583  33.7149315  75.0177460  68.0792999  32.9881668  74.4041824
  68.0729828  34.4997635  74.4817657  73.9587860  59.7271729  24.9085979
  73.9261322  58.9104652  25.4067497  74.4155045  60.3406792  25.4841404
  67.5146179  52.4736633  11.1571245  68.3629074  52.0302582  11.1517382
  67.3907471  52.7426643  12.0673590  67.3130341  56.9213028  39.2168274
  67.5599823  56.7791672  40.1306343  67.8809280  56.3316879  38.7207603
  65.6273727  37.3243866  16.2450256  65.1093674  36.7458382  16.8046570
  66.5347137  37.1506462  16.4955959  31.9379311  57.9558983  27.9754314
  31.0121212  57.7150116  28.0083160  32.0563698  58.3334579  27.1038494
  11.8397198  66.1603928  31.8316727  12.6056757  66.6489868  32.1330376
  12.2013111  65.3633347  31.4441509  19.9076843  42.4497337  87.2759552
  19.1916580  41.8921051  86.9716721  19.5531368  42.8967247  88.0445404
  50.6115074  38.2572708  88.2314911  50.9175301  37.5694237  87.6403427
  50.3845100  38.9860039  87.6538620  17.9878616  45.3554955   3.0689580
  17.6928139  44.4687805   2.8617976  18.8809376  45.3967781   2.7269850
  62.8506660  23.7440872  26.5541191  62.8776474  22.7883377  26.5088768
  61.9199028  23.9540787  26.6303692  81.5999680   9.5239849  75.9234238
  81.3508224   9.8454599  76.7899170  81.4300537   8.5826674  75.9592133
   9.6472940  32.0005608  37.5940552   9.3489122  31.5302353  36.8155975
  10.6007147  32.0200386  37.5113487  28.5008869  35.9765892  62.8729782
  29.0048771  35.2951126  63.3177414  28.2754745  36.5980797  63.5652008
  25.7268906  65.9392014  82.8605499  26.1052151  65.9481888  83.7397690
  25.7409496  65.0173569  82.6031723  45.0456543  54.7264366  44.8552933
  45.1069260  53.8432236  45.2191849  45.7750740  55.2009239  45.2540932
  60.4551697  66.8926163  52.4403114  60.0417175  66.3053741  53.0731125
  60.7181892  66.3207550  51.7191811   2.2855141  62.6372261  28.4811764
   1.5091172  62.0854111  28.5757275   2.0152578  63.4909019  28.8194542
  42.5575371  23.1490307   5.9014516  41.7752037  23.6386032   5.6474776
  43.1134377  23.7950878   6.3371320  28.3776608  65.1061478  60.5471802
  28.7388592  65.5385056  61.3210258  28.4730682  64.1711807  60.7287636
  11.9239950  13.9769411   5.8052015  12.7278118  14.3087683   5.4052010
  11.7200451  13.1834354   5.3102412  57.6006660  50.4231567  84.6132736
  57.6345749  51.0950737  83.9323807  56.6660843  50.2862740  84.7683640
   2.1181619  47.2344551  73.6727142   2.7054908  47.5013008  72.9655609
   2.1189139  47.9763832  74.2775116  33.8795128   6.8728232  22.2934361
  33.8143196   6.1759377  21.6404953  33.2235565   7.5157099  22.0238934
  39.9845390  14.1437197  77.7519531  39.3622627  13.5620346  78.1885834
  39.5131073  14.9714251  77.6576920  84.9611130  59.9456482  31.9438324
  85.7506409  59.4956894  31.6431313  84.8252335  59.6216888  32.8342361
  41.4191017  45.3971252  20.1121674  41.5101471  46.2205772  20.5916176
  41.9020462  45.5393257  19.2980576  54.9261742   2.9043047   3.7855525
  54.0607834   3.1604695   4.1044722  54.8822289   1.9508498   3.7132750
  62.6160202  59.9231262  49.8301620  63.4479637  60.3572235  50.0190125
  62.7528076  59.5020370  48.9815140  71.5932541  34.7071648  63.2731743
  72.4471664  34.7722511  62.8455734  71.5406036  33.7972794  63.5656891
  34.4632301  35.3645325  14.9534693  33.9608841  35.3897552  15.7678680
  35.3751984  35.2980957  15.2365465  72.1260529  46.6695290  70.5432663
  72.9362717  46.5334740  70.0520706  72.3720856  47.2654762  71.2507629
  50.1944008  46.0791664  56.8743401  50.6744690  46.1755257  56.0518532
  49.9500542  46.9727745  57.1151543  20.8262386  60.9517441  48.8234978
  21.3104897  61.4509773  49.4811478  21.1579800  60.0579605  48.9091072
  65.9028320  39.5177193  88.5148773  66.0047684  38.6240654  88.1874313
  64.9619675  39.6125793  88.6632385  15.5230732  59.6025581  83.3352585
  14.7568245  59.3307228  82.8300858  16.2553120  59.1406479  82.9269791
  52.8857803  69.5444260  88.5169907  52.6491280  69.1000824  87.7028732
  53.7003784  70.0031357  88.3114395  17.3499966  48.7108459   7.0888543
  17.4464035  48.8741264   8.0270853  16.6518078  49.3046570   6.8128996
  35.1721115  61.7545776  46.2764626  34.2912788  61.4625969  46.5112343
  35.3076630  61.4184837  45.3905182  60.4521828  65.7468033  72.2041779
  61.0776978  65.6637115  71.4844131  59.6320114  66.0001755  71.7806778
  39.8209419   2.7550671  14.7407188  40.4192581   3.3473008  14.2851868
  39.1751137   2.5105748  14.0778761  42.5210190   3.3413095  65.8733215
  42.8156624   4.1924191  66.1974106  42.4662476   2.7929037  66.6559372
  54.4183884  28.9976368  42.9368629  54.3871765  29.3637543  43.8207245
  53.8999977  28.1948318  42.9917107  48.6614265  42.0601921   8.9504862
  47.9766083  42.5264435   9.4299259  49.3630981  41.9409256   9.5905371
  70.7704086   9.4950972   5.4556723  71.4536743   8.8952236   5.1564593
  70.9495163   9.6161823   6.3881369  15.7149248  12.6483955  78.2948074
  15.4292955  12.3185453  77.4428482  15.3347301  13.5249882  78.3519897
  39.2390137  71.5257492  38.7799721  39.8699951  70.8632889  38.4984894
  38.7273560  71.0938416  39.4639969  82.1049881  51.0069847   4.2189021
  81.6914673  51.8681221   4.2795663  82.6894302  50.9680748   4.9759622
  56.4754639  22.7646122  17.6843700  55.6739655  23.1705799  18.0145626
  56.5086441  21.9122162  18.1185932  29.2209930  62.4916916  74.0160980
  29.7159672  62.1251945  73.2833557  29.8487434  63.0514793  74.4730453
  17.4064598  32.5913315   6.7126822  16.7201767  33.1928291   6.4238110
  17.9996624  33.1356506   7.2304287   3.3079066  15.2953644   2.3212950
   3.9786885  15.4079094   2.9948061   2.7791607  14.5597687   2.6304212
   4.9817014  44.0540009  31.6289635   4.6286430  44.5861473  32.3419876
   5.3292465  43.2740822  32.0615959   1.5998335  53.3067551  59.2148819
   1.7295408  54.0920181  59.7466431   0.9635763  52.7871628  59.7062416
  54.9636688   5.8113699  17.4778328  54.1989517   5.2359123  17.4947071
  55.4465256   5.5914664  18.2745285  20.6056213  59.5033607  24.1111736
  20.9577141  60.3897400  24.1923733  21.2309456  58.9531136  24.5827980
  79.1057663   3.0963225  40.1384621  79.5095901   2.4861798  39.5213013
  78.1907501   2.8192127  40.1851768  80.7084503   2.2754438  85.9838943
  81.5221329   2.0002534  86.4062958  80.7408142   3.2319262  86.0019379
   4.6048341  60.7745667  30.3193340   4.9842482  61.6433945  30.1873798
   4.4083338  60.4623604  29.4360752  85.2082825  15.4857159  10.6190395
  85.4970245  14.5775642  10.5289154  84.8679199  15.7157459   9.7544746
  75.4341354   8.6739597  73.2812576  76.1282043   8.5006256  72.6452866
  74.8441010   9.2796917  72.8327179  32.4432526  41.5894928  18.9237213
  31.6816463  42.1001015  18.6490116  33.1268196  41.8219910  18.2952995
  85.1460190  36.6142349  86.1123352  85.7570267  36.1691475  86.6995239
  84.4091339  36.8572273  86.6728592  42.5355148   2.5859900  31.2095146
  42.2834244   3.3580804  30.7029972  41.7559967   2.3704071  31.7214794
  78.3278427  56.5431900  19.1348782  78.8041000  56.2742233  19.9204140
  77.6522217  57.1398811  19.4569492  46.9753075   4.9976153  75.9532700
  46.3815079   4.3074346  75.6578293  46.8182907   5.7234178  75.3492889
  72.6737747  23.3143063   7.0544801  71.8816528  23.1302891   7.5593686
  72.5484924  24.2055912   6.7286825  54.8996582  47.2733154  74.3730545
  55.8441200  47.2543106  74.5275269  54.5142899  47.3031235  75.2487411
  26.0613804  49.1285248  84.2081757  26.7032299  48.7326279  84.7976837
  26.3880672  48.9304047  83.3305359  49.9787598  11.3738441  47.3524017
  49.8214607  10.6010466  46.8099327  49.8590088  11.0645857  48.2503166
  82.7931976  64.7404785  26.6986275  82.0193939  65.1517105  26.3134708
  83.2860413  65.4672241  27.0796566  78.6587601  68.5508728  74.6910553
  78.8371124  68.9809341  75.5273972  79.1061020  67.7070847  74.7554245
  79.3685989  45.7538033  44.8491402  79.3102417  46.5181084  45.4224319
  78.9708557  46.0401955  44.0269394  73.1732941  32.3529434  71.3349762
  73.2160187  33.3083649  71.3746719  72.8676834  32.1635094  70.4478760
  82.9983292   4.1838555  43.4034882  83.4079285   3.3926809  43.0534782
  82.6313553   4.6230621  42.6362457  17.8858528  47.2484474  17.3424606
  17.9056797  46.3377838  17.0482941  17.3390408  47.6967087  16.6972561
  43.8212433  31.5436478  79.6080093  43.1952553  32.2122536  79.3299179
  43.4450989  30.7197533  79.2982635  85.3974075  13.4076996  84.9265366
  84.4487991  13.4744139  84.8173294  85.7403107  13.3846130  84.0331650
  41.7602806  60.2209930  22.2475548  41.2968521  60.9917603  22.5752449
  42.2147179  59.8709908  23.0138569   0.0920827  11.4865379  53.7378769
   0.6697118  12.2140255  53.9688263  -0.1890158  11.1274233  54.5794563
  63.5733337  62.0224648  58.3822021  62.7548218  62.3071022  58.7887154
  63.4645691  62.2297745  57.4540749  63.5812187   3.0518961  38.4255295
  62.9905128   2.8529329  39.1519661  64.3865433   3.3520029  38.8469810
   0.9548427  59.8090782   4.3088574   0.4058193  59.0513458   4.5104651
   0.3616720  60.5578041   4.3704119  74.6104355   7.8218389  58.0056229
  75.0943222   7.9521742  57.1900902  75.2698212   7.5180330  58.6294327
  63.1156464  44.3892822  79.7126312  63.1236267  45.1273575  79.1031952
  62.4869804  43.7739258  79.3353424  13.6798887   5.8165455  83.8266678
  13.6954727   5.9319010  82.8765717  13.0119543   6.4306512  84.1315765
  16.5621548  58.6047249   7.7493219  16.4442978  57.6626625   7.6274195
  15.7064877  58.9816513   7.5444021  34.7229805  44.9841995  71.6401215
  34.9799614  44.3469849  72.3065720  33.9265785  44.6193161  71.2543259
  18.4527664  66.4018173  76.2578430  17.8491383  65.6600647  76.2169189
  19.1587982  66.1046677  76.8318253  59.0368118  24.3472366  17.5889130
  58.1346092  24.0308933  17.6357193  59.4333153  23.8366852  16.8829708
  70.8736038  40.7636986   2.5732436  70.8170471  41.5811501   3.0680254
  70.6116486  41.0031891   1.6842775  66.3531723  55.6120491  81.9923096
  66.2347717  55.1375198  81.1694870  66.5356369  54.9296265  82.6382446
  49.0053329  54.5050507  80.1155243  49.3929024  53.7622147  79.6526871
  49.5652504  54.6282158  80.8820419  86.6224823  17.0593433  79.5485916
  86.6650085  17.3783531  78.6471176  86.5675583  17.8528366  80.0811157
  10.0325003  58.9693909  81.4901505  10.8914833  58.8137321  81.0975266
   9.4232340  58.4847336  80.9332581  83.7194748  44.9329681  47.5083313
  83.2493744  45.3158379  48.2490387  83.2412567  44.1274376  47.3116913
  50.3703003  58.9471436  57.1529846  51.1676636  58.4199104  57.2026253
  49.9837341  58.8795624  58.0260429  55.1613007  15.3092623   7.1954131
  54.6478691  15.7669249   7.8611207  55.7380791  14.7303677   7.6938496
   6.6331105  45.3530846  13.2424316   6.0887403  44.6184349  13.5255899
   7.2906532  45.4437408  13.9321060  73.1246109  68.9716644  29.2331390
  73.2179108  68.7906418  30.1684246  72.3136902  69.4758453  29.1664925
  39.7573471  24.7758598  69.5207520  39.8169060  24.8561726  68.5687943
  39.2492485  25.5395889  69.7942276  71.8903961  52.6153221  13.9291592
  72.6859360  52.0969276  13.8082609  71.4078064  52.1565971  14.6168461
  31.0429840  22.5997486  72.7222824  31.3530159  21.6959724  72.6648178
  31.2768116  22.8773174  73.6080093   0.7231992  20.8559036  77.3388443
   1.5479282  21.2367077  77.0371170   0.6963959  19.9897575  76.9322739
  13.5053129  56.3705025  74.6149597  14.3842554  56.1820793  74.9438782
  12.9417391  55.7392426  75.0623169  86.8742828  39.4639969  19.4988289
  85.9872971  39.2132721  19.7569542  87.0282364  40.2954826  19.9473324
   6.9478903  36.0595551  60.4015846   7.5289254  35.3737907  60.7307663
   7.4808531  36.8544312  60.4203186  66.4201508  37.9905548  31.6955929
  65.8177414  38.2923241  32.3754921  66.1663208  38.4829102  30.9149609
  65.6923065  43.3125420  14.5302095  66.3217697  43.8958321  14.1062050
  65.0811768  43.9011116  14.9733143  69.0635757  19.0037479  78.1552734
  68.1291122  19.1997719  78.0874939  69.4850693  19.8615589  78.2075577
   9.6482229  56.1208038  85.0229797   9.3504906  55.2212029  85.1582794
  10.5664291  56.0332756  84.7671127  12.0084181  42.4935341  73.2282333
  12.8807735  42.7549477  73.5230026  11.8848362  41.6173325  73.5932388
  74.5350723  66.0594559  49.4210777  75.3782806  66.4575195  49.6373672
  74.2546005  65.6366196  50.2327271  38.4126740  15.2126179  68.5593414
  37.5081635  14.9050674  68.6185608  38.6237373  15.5078859  69.4450607
  19.7144489  53.9065933  64.6246490  20.6524029  53.8805008  64.4354630
  19.5298958  54.8304291  64.7940674  84.0023727  50.5897369  63.2649956
  84.6505432  50.2632027  62.6409111  83.1583481  50.3664017  62.8726044
  54.1300659  69.7498474  67.8945236  54.2102318  69.0035324  67.3005295
  53.3122520  69.5933914  68.3666840  76.8730545   1.3463714  23.9583778
  77.1504059   1.6269530  24.8304920  76.1191940   1.9007403  23.7568855
  86.6935577  66.5464478  87.1183395  86.5153198  67.0562363  87.9086380
  85.8736267  66.5744858  86.6252365  14.6398001  31.0938759   5.5089869
  14.1742725  30.4674091   4.9548607  15.5451212  31.0604477   5.1999440
  65.9636002  41.9451714   7.5535507  65.0886993  41.5851631   7.4080424
  66.2444839  42.2483406   6.6901703  27.9192924  14.7148495  69.5537796
  27.2200947  14.1911049  69.1625748  27.6525154  15.6216145  69.4026566
  62.3201904  62.2050209  35.7285347  61.9171371  62.4532242  36.5605049
  62.7123833  61.3485565  35.8984833   9.6840067  58.0760918  12.0426693
   9.1020508  57.4271965  12.4382629  10.5148468  57.9662018  12.5051203
  82.3237534  29.9535370  46.8913574  82.9525986  30.5632515  46.5053101
  81.5281601  30.4725838  47.0090179  35.4911499  42.7046776  73.0495758
  34.7712135  42.2546730  72.6075134  35.6553192  42.1810493  73.8338547
  43.8125191  11.7663546  14.7843409  44.1306419  12.6379175  14.5489540
  42.9468880  11.7099838  14.3796930  43.5169258   2.3510132  75.7188568
  42.6581230   2.7593176  75.6094208  43.3335190   1.5224220  76.1616135
  69.8210297  58.5276718  16.6980171  69.8993378  57.8176613  16.0608482
  70.0607071  59.3152580  16.2096615  29.3722153  17.0563908  35.1018753
  30.1750660  16.5392303  35.0370331  28.7180500  16.4423389  35.4354057
   4.3974762  70.9567108  51.9923782   4.7939663  70.5125656  51.2428703
   4.7817903  71.8333130  51.9821091  15.4303074  70.6321564  57.5654945
  16.3508873  70.7673645  57.3408127  15.2036619  69.7976532  57.1550407
   9.2869291  69.0437317  81.1279755   9.2612982  69.1870270  80.1819077
   9.0287399  68.1286850  81.2387085  54.5787582  62.2891273  42.0256386
  53.9488564  61.6043854  41.8007431  54.4771194  62.9442177  41.3351631
  49.2916222  64.1932373  82.6223450  49.6969299  64.5760345  83.4004364
  49.4668579  64.8255005  81.9253693  65.6879654  53.7058182  33.3547287
  66.0611725  53.0234375  33.9126816  65.6577148  53.3122330  32.4827156
  14.9575081  15.5665874  78.1262131  15.1369295  16.4888821  77.9434280
  14.5732908  15.2321444  77.3158035  49.2507629  56.5056725  78.5195618
  48.9777145  55.8285751  79.1386032  48.8783760  57.3148346  78.8700027
  82.4089813  57.0964317  24.0622120  82.8897171  56.2760735  24.1724052
  83.0892258  57.7567940  23.9302216  37.1416512  68.6071701  21.1319675
  36.7484779  67.7579575  20.9307423  37.6072540  68.8511276  20.3320103
  80.4333878  40.1715088  80.9388275  80.3855591  40.7399254  80.1701584
  79.9043655  40.6178017  81.6000290  52.1256676  57.7493782  38.3616600
  52.1721115  57.6675529  39.3142242  52.8202744  57.1758804  38.0378532
  21.0508556   5.0233850  86.0783463  20.3655834   5.4567943  86.5870590
  21.1841946   5.5937953  85.3213272  61.2001419  21.2029343  69.4819031
  60.4123116  21.7390175  69.5723114  61.2616577  20.7260971  70.3096008
  67.3575134  -0.0197318  28.1931458  67.6200485   0.7521376  27.6916237
  66.5210724  -0.2820419  27.8087082   5.0943632  71.5942383  45.9093323
   5.8827925  72.0156708  45.5672684   5.2233963  70.6629562  45.7296181
  45.1651001  30.8756523  18.2722054  44.2628174  31.1036491  18.0482845
  45.5361443  31.6845894  18.6245937  82.6001511  62.3899307  48.9422684
  83.0525742  63.2334595  48.9444580  81.6741791  62.6150169  48.8520203
  41.4720230  30.6875591  23.1457424  41.9336891  31.5092392  23.3128948
  41.1702156  30.4026527  24.0082798  53.3416405  19.1706238  37.6772614
  52.8678780  19.1477509  36.8458405  52.6899147  18.9182568  38.3313179
  16.1529846  28.9170570   8.6753187  16.4813156  28.2600040   9.2890873
  15.2564297  28.6406631   8.4855080  15.2572727  46.4225655  88.5872955
  14.4498024  46.9351387  88.6259155  14.9886141  45.5795937  88.2219925
  38.0935402  42.5314751  84.7203369  38.9846802  42.7992439  84.4958191
  38.0382690  41.6196098  84.4345398   3.7092760  56.4897232   3.9855034
   2.9968846  55.8635139   4.1143179   3.2735610  57.3402405   3.9307122
  30.2990093  48.9167023  40.0308609  29.8585320  48.8022194  40.8729477
  31.0793533  48.3657303  40.0918884   7.4982738  18.2140179  72.0708466
   8.2779226  18.3391991  71.5298233   6.8230715  18.7410240  71.6435318
  14.1202087  30.3049469  11.1059437  14.4336767  30.3068523  10.2015295
  14.0936918  29.3793144  11.3482943  72.0714493  39.2613182  67.6089630
  72.5652313  39.1131783  68.4154739  72.2427139  40.1767807  67.3879929
  19.2913094  65.2609482  79.5672607  19.5224667  64.7062531  80.3123169
  18.3346405  65.2415695  79.5419312  26.4139118   8.9336109  15.4028234
  27.0370884   8.4128695  15.9094887  26.6794510   9.8404369  15.5557537
  85.5096359  28.4847832  34.2430153  85.3991928  29.4349937  34.2766609
  85.0973434  28.2247601  33.4192200   7.1694369  51.7137489  36.9132233
   7.6681681  52.2943916  37.4879875   6.2547736  51.9462128  37.0731697
  26.6666183  44.4645729   4.9188447  27.0457916  44.1206894   5.7276726
  26.1429958  45.2149467   5.1998987  66.2220688  35.1521034  39.7667160
  65.5455399  35.2714500  39.1001625  66.3503723  36.0254860  40.1368179
  51.5371284  19.6297550  84.5953522  52.1975746  19.0633278  84.1963501
  52.0369072  20.2198219  85.1595154   8.0328131  69.7227554  10.8298731
   7.3276572  69.7744675  10.1846504   8.7637644  70.1885300  10.4236765
   9.9588442  49.9373970  56.9628830   9.0215740  49.8729897  57.1462097
  10.0866909  50.8442726  56.6845589  28.0308075  39.8752022  63.9066277
  28.2242851  40.4415321  63.1595879  28.1418591  40.4406471  64.6709442
  28.1273174  50.4844208   6.6197205  28.8961773  50.7056770   7.1452050
  28.4242706  49.7776718   6.0465250  69.1894531  30.3509045  15.7041864
  69.1892776  29.3971558  15.7853937  69.8498001  30.6446018  16.3318119
  47.6697350   1.0729575  73.0479279  48.2266273   1.8236529  73.2542191
  46.8236008   1.4579574  72.8197556  81.9566879  16.2899036  87.0543900
  81.9859390  17.2197781  87.2795792  82.1753998  16.2620487  86.1229248
  86.7392883  15.2934465  49.4733238  86.9542007  15.9184561  48.7809296
  86.1742935  14.6488838  49.0472336  82.5725861  44.6161728   4.6331763
  82.5956955  43.8695602   4.0346208  83.0058060  44.3007851   5.4263253
  61.5754242  59.0955353   6.5965352  61.5354385  58.1444435   6.6968164
  61.0223541  59.2797852   5.8373251   6.1603093  54.6503639  58.8078384
   7.0457320  54.3407707  58.6170235   5.9437675  54.2520103  59.6508408
  69.7355576  71.1941452   8.6413383  69.4127731  70.4001389   8.2151947
  69.3967209  71.1410141   9.5349817  79.5890503  47.9999771  11.0172024
  80.2632828  47.6829567  11.6181545  78.7653275  47.7003212  11.4017954
  30.5006866  21.1192322  19.2994652  30.4082184  20.8127518  18.3973827
  30.6438599  20.3221436  19.8097439  22.1447620  10.8626480  11.9457016
  21.7190323  10.6123619  12.7656670  22.9506550  11.3012791  12.2184134
  79.0115738  50.0039482  76.8974762  78.4530869  50.4266472  77.5498886
  78.5638351  49.1825027  76.6950073  59.0526848  30.8910599  56.9277573
  58.4453697  30.2570515  56.5464020  58.5786972  31.2577362  57.6741600
   0.6482945  21.8786621  51.3018036   1.2727747  21.5839329  50.6389351
   0.0094712  21.1683426  51.3616638  40.4299965  46.6652946  24.2726440
  41.1255608  46.1044502  23.9293060  40.3377228  47.3592567  23.6198578
   0.6448812  18.3581791  67.3138351  -0.1773461  18.5680237  67.7567139
   1.2250689  18.0603027  68.0144730  66.2639923  50.0077515  20.3169422
  67.0611343  49.5177460  20.5186844  66.0848541  49.8060799  19.3985348
  66.9684067  43.7025871  31.5001793  67.0712814  43.8148232  30.5551662
  67.8520813  43.5150871  31.8167095   1.0039525  24.8383617  77.3578339
   1.3379683  25.1667347  78.1926041   0.3402767  24.1934338  77.6024475
  49.1050606  34.9889069  74.7349625  49.1319656  35.9149017  74.4940491
  49.4339752  34.5305824  73.9616623  58.9970589  35.0825157  47.6087151
  59.6006584  34.3403854  47.6424789  59.5228310  35.8032799  47.2618752
  32.2335205  56.6752701  63.5079002  32.9833336  56.9283943  62.9694405
  31.6199856  57.4049911  63.4223480   4.2059164  65.6457520  86.1837234
   4.9234128  65.1798553  86.6130981   4.1908064  66.5043259  86.6066360
   1.4232000  36.4570236  69.1556091   0.5889518  36.4007835  68.6896744
   2.0173957  36.8762207  68.5331650  17.4024334   4.5782409   9.9594641
  18.1475601   4.6863012  10.5505161  17.7349415   4.0235085   9.2538137
  74.2296524  24.2713680   2.5609620  75.0386200  24.4393215   3.0442772
  73.5371094  24.6110249   3.1277516  47.4694672  65.5857849  21.3542309
  46.5176582  65.6570282  21.4264641  47.6194458  65.2776413  20.4604816
  62.6403465  63.9000816  51.8407555  63.3616142  63.3047028  52.0445290
  61.8879356  63.3254128  51.6998215  54.3656845  44.6455803  39.7109222
  55.0698318  45.0465355  39.2013702  53.5926285  44.7204094  39.1514435
  79.5059357  70.4892426  66.7925262  79.5275116  70.3060989  67.7317963
  78.9520416  69.7995911  66.4267044  47.1315193  23.2927780  14.0105562
  46.3051414  22.9117832  13.7136173  46.8995171  23.7830315  14.7992630
  52.6642303  24.5657520  87.0740204  52.6233635  23.9730282  87.8245163
  53.5953445  24.6140900  86.8574142  32.4245110  64.9588089  45.0208282
  32.1020622  65.8464279  45.1769829  32.7709656  64.6774139  45.8675957
  79.5127029  59.8942757  15.7595968  79.5625916  59.3461761  14.9764414
  79.2338715  59.2963028  16.4530735  51.6830482  12.0907316   6.7595534
  51.1143265  12.4763908   6.0931811  52.5630035  12.1515436   6.3877826
  25.3807449  17.4223385  68.4756699  24.7984524  16.7627277  68.0987320
  24.8382854  18.2077065  68.5475464  45.6052704   6.9767365  22.9072609
  45.5588989   6.3028054  22.2291031  44.8076439   7.4922071  22.7876091
  11.7011089  49.4747696  75.9987106  12.1128159  49.2683220  75.1595993
  12.2522993  50.1618538  76.3733215  48.1687012   3.6789484  31.6380787
  47.7546844   2.9151056  31.2363758  48.7374420   3.3142366  32.3161316
  28.0488605  63.7490654  39.6276360  27.5662327  64.3619919  39.0729980
  27.7237072  62.8862915  39.3704796  12.0350990  11.1791677   1.5528141
  11.7545853  10.8241014   2.3963020  12.2524939  10.4082203   1.0287809
   8.2149220   3.8209302   2.5968015   8.3591909   3.1019392   1.9816021
   7.3585153   4.1741190   2.3558524  75.5295639  10.0515318  31.1345615
  75.4586334   9.1991434  31.5642548  75.8027725   9.8469515  30.2402840
  27.2283325  51.6880150   1.2836903  27.1244431  51.5084610   2.2181416
  27.8210945  52.4387665   1.2485061  76.5181885  21.4161301  40.6585121
  77.1360855  21.6028309  39.9517021  75.6845856  21.2629547  40.2136726
  64.6641922  66.0089035  22.7459297  65.3382492  66.6549377  22.9569187
  63.8422470  66.4287796  22.9995956  10.5656776   0.5084212  19.9856358
   9.8367910   1.1219232  19.8930550  10.1977625  -0.3397815  19.7378006
   7.4571996  20.1781635  68.5821762   6.7432771  20.5393391  69.1076279
   7.5237579  19.2656670  68.8635101  75.9974060  48.0270691  35.2831688
  76.6825943  47.9697037  34.6172409  75.7961273  48.9611473  35.3398781
  33.4576912  20.8578415  83.5245056  33.0653343  21.4721622  82.9041061
  34.2748260  20.5851059  83.1072083  80.2979355  50.4050255  59.5395317
  80.1080856  49.7182541  58.9003639  79.4392319  50.7543297  59.7779503
   5.0113845  40.2358322  36.0964050   5.9444251  40.1528664  35.8994675
   4.9722910  40.2934036  37.0510712   3.4230247  35.2565689  13.4444599
   3.9747996  34.6963921  13.9903336   3.9336627  36.0581894  13.3309364
  23.8231544  45.3883362  88.1752167  23.4537697  44.7977448  87.5187149
  23.6389866  46.2654266  87.8390198  22.1782055  40.5026436  84.6503601
  22.1802940  40.4484978  83.6947021  22.9079437  39.9465981  84.9233627
  10.7531805  55.5208778  40.8470459  10.1972742  56.0692291  40.2934113
  10.5431557  54.6246948  40.5844040  36.2638550   0.0315880  31.5623684
  35.8930550   0.6481543  32.1937027  35.5532608  -0.5842170  31.3832798
  71.3071213   9.6570168  76.8335266  71.0641861   8.9642467  77.4477615
  71.2957916   9.2316885  75.9760895  62.2078590  51.1593437  19.5421257
  62.5699081  51.3696671  18.6813622  61.4656830  51.7555275  19.6419754
  33.7922783  47.5311317  74.7293549  34.0161209  47.9473228  75.5617676
  34.2849541  48.0254860  74.0742874  40.0789185  14.1896610  48.8157120
  40.7379951  13.9048309  49.4487381  40.0378456  13.4785109  48.1763268
  38.1535301  42.9363480  55.4725189  37.8339272  42.1951637  54.9580002
  39.0851402  42.7563324  55.5987282  14.2651062  17.5525570  71.7211533
  14.1410208  17.3893375  70.7861710  13.7244310  16.8915195  72.1535110
  64.2601471  28.4856110  13.5506315  63.7806931  29.1919270  13.1176453
  64.4394379  28.8211708  14.4289732  80.5528870  42.7643394  41.2901039
  80.2986450  43.0810165  42.1568832  80.9338150  43.5288277  40.8580322
  69.4099274  24.8524780   0.6918827  70.0783615  25.4898605   0.4405434
  69.8864594  24.0267410   0.7773519  83.2802277  67.6338348   9.1471567
  83.0315704  67.2256012   9.9764585  83.1748505  68.5726547   9.3012590
  85.0787888  24.3936615  15.9353895  85.3034058  23.4696808  15.8256750
  85.7477493  24.8635330  15.4374504  23.9287415  28.1678162  15.4635906
  24.2210827  27.3801003  15.0050392  24.2314510  28.8909435  14.9143305
  44.4822464  19.9297123  66.7882156  44.0491257  20.3712273  66.0576630
  45.3165817  20.3888168  66.8848419  84.5181656  25.0130672  36.4737968
  83.5703125  24.9830761  36.6038475  84.6497726  24.6681690  35.5906448
  52.1734009  68.2429962  86.3043976  52.6744766  67.4284286  86.2639999
  52.6239777  68.8316498  85.6988373  17.7010727  56.3131256  54.5801620
  16.9234657  55.7732620  54.4383659  18.4360504  55.7183113  54.4310493
  60.2399521  57.6399803  86.1170120  60.5133858  58.4550896  85.6962280
  59.8260040  57.9191666  86.9336700  56.2824097  35.2318573  42.6789970
  56.1090622  34.4277763  42.1894684  57.0817032  35.0449104  43.1713524
  71.3739166  20.2267761   5.0670042  72.1169052  20.7953033   5.2694306
  70.7875671  20.3225918   5.8174977  36.7603951  60.7542572   4.5001221
  36.8403778  61.6648865   4.2162433  36.2850952  60.3228798   3.7900252
   2.3868940  69.4719315   9.2476749   2.2490485  70.2928391   8.7750874
   2.2072005  69.6890945  10.1624327  64.0066299  68.1187668  14.9171515
  63.5809135  68.2907791  15.7570391  64.1556396  68.9866714  14.5419645
  74.3766251  53.1867676  76.2346725  74.4315414  53.0432205  75.2898941
  74.0262146  54.0732040  76.3222885  62.5054512  16.2867546   1.4974101
  62.1037064  17.0362186   1.0579379  62.8047714  16.6340218   2.3376751
  67.9301529  51.8221474  48.1766205  67.3984375  51.5190849  48.9125938
  68.0512085  52.7578697  48.3378830  44.2296715   2.6675777  41.9176331
  44.1714211   2.6982572  40.9626999  43.3557434   2.4004288  42.2024384
  68.4479904  35.3468475   8.4140005  69.0332565  35.7625961   7.7808743
  67.6383209  35.1935730   7.9269948  84.4356079  17.9707298  49.3918076
  85.1449432  18.5567532  49.1278839  83.8271637  17.9832535  48.6529770
  13.7361174  45.8085022  17.4951019  14.1857948  45.8283005  16.6503353
  14.0645494  45.0176430  17.9227810  73.1311417  10.0394735  40.0676651
  72.7721329   9.1935034  39.7999306  73.8064194   9.8206797  40.7098198
  80.4298248  70.5420303  80.6067429  80.7309341  70.5575256  81.5152206
  80.7352371  69.7006836  80.2675018   7.3569946  35.8936996  31.1225986
   7.1612363  35.3060837  31.8524055   7.8306842  35.3472290  30.4955235
  63.0393410  56.1331863  42.4864197  62.3711319  55.5287399  42.1633530
  63.5891266  56.3124008  41.7236290  24.9547176  36.5336113  12.9885807
  24.5702400  37.1819801  13.5785198  25.3816547  35.9042816  13.5698719
  23.3235531  47.9475708  87.0018234  22.4050064  48.1670380  86.8458176
  23.7876530  48.7796097  86.9093094  48.9402542   5.2376647  11.7469101
  48.0004539   5.0802016  11.8375282  49.1955299   5.6461015  12.5741014
   3.2362010  59.0932350  17.9376106   2.5057354  59.1906471  17.3267403
   4.0115309  59.0460434  17.3782635   0.4813168   1.7717127  73.0815048
   0.1842883   2.5828183  72.6690521  -0.1259860   1.1042914  72.7621841
  39.2759552  41.6537209  79.1871872  39.9032249  42.3576317  79.0220413
  38.9732323  41.8077545  80.0820999   2.5564079  27.3736858  43.2866821
   2.8564858  26.6133823  43.7848015   3.1439133  27.4126625  42.5319977
  74.0107422  43.2182236  85.9199371  73.0954666  43.4407921  86.0901413
  74.0033951  42.8254738  85.0470505   6.6825562  58.8527870  72.3325882
   7.2405448  59.6304703  72.3422852   5.9499841  59.0906982  71.7642822
  80.7074814  10.1445503  42.0947189  81.2083817   9.6356611  42.7321854
  80.1835785  10.7444458  42.6256409  26.2056103  16.7950954  75.2860718
  26.3909302  17.6653805  75.6389084  26.9278355  16.6227856  74.6819763
   4.4964843  26.2679462   5.3025560   4.6232862  27.1224670   5.7148013
   4.4909143  26.4534950   4.3635287  13.3798866  58.4093170  87.6746826
  14.0964231  59.0355988  87.5718460  13.0736504  58.5409622  88.5719681
  11.6023741  61.8066216  29.3261356  11.6249857  60.9876328  28.8311844
  10.6827946  61.9143753  29.5690231  53.6414795  24.4158440  12.8991671
  54.2088928  23.6995773  12.6141500  53.5680161  24.3007317  13.8465757
  32.2420769  46.6689034   7.8124800  33.0348206  47.0360870   8.2035875
  32.1746826  45.7907410   8.1873436  33.1939507  46.3739967  18.6052704
  32.7219200  46.6916313  19.3750267  33.7664070  45.6850662  18.9427586
   0.1531802  66.0675354   3.2942042   0.7337096  65.5701370   2.7181740
  -0.3780730  65.4020767   3.7314262  74.8892441  35.3127670  71.1958008
  74.9085083  36.2656784  71.2842407  75.0893250  35.1537437  70.2733536
  64.5669022  18.6518574  51.8762436  65.1489182  19.0597992  51.2350922
  64.3152237  19.3671150  52.4604492  66.5681915  27.3682060  12.6701126
  66.9382095  28.1694584  12.2995539  65.6940308  27.6224937  12.9657583
  76.6183243  42.2493935  28.2929344  77.3406219  41.6685486  28.0539036
  76.9732590  42.7974319  28.9928684  65.3403091  53.5719032  25.0488777
  64.5526657  53.8199043  25.5329723  65.8011322  52.9700584  25.6333923
  85.7000580  66.6984024  10.6940975  85.8253174  67.4860382  11.2233992
  84.8067017  66.4168777  10.8913002  54.7795181  10.4946480  14.0067854
  54.8295135  10.1439409  14.8960190  54.2743759  11.3027859  14.0960913
  78.3886871  68.6704559  78.8453217  77.9848480  69.1732864  79.5526428
  77.7134399  68.0463104  78.5793762  37.4485054  42.4442787   0.1158241
  37.4196243  42.6422997   1.0518721  38.2496147  41.9324913   0.0038881
  38.6062698  70.9494705  49.5096626  38.5012932  71.2404327  48.6038208
  38.8669739  71.7378693  49.9857788  42.5514450  50.8225632  83.1347885
  42.0244141  50.1844521  83.6157150  42.0255547  51.6223145  83.1429214
  37.7025146  28.1724949  40.8999329  37.1045265  27.9969273  41.6264420
  37.2831421  28.8799248  40.4101410  76.0695038  28.5843868  54.5420227
  76.6137695  28.2756386  55.2663727  75.1710129  28.4450550  54.8412437
  33.9688187  37.1713982  25.3171539  33.7145729  36.9425545  26.2111473
  33.8890343  36.3522949  24.8283443   1.5414424  59.5910568  69.4051437
   0.6562055  59.9364700  69.2899094   1.6010873  58.8708076  68.7775192
  57.3456955  14.4530106  21.0504093  58.2634354  14.2533207  20.8657112
  57.1007195  13.8367748  21.7406788  51.8014069   3.8865082  46.5188522
  52.0771790   3.0789058  46.0853081  51.4196968   4.4159198  45.8186722
  81.0468140   7.8442826  68.5095901  80.8253479   7.1237006  67.9197235
  81.9034500   7.6079483  68.8653412  58.3793449   3.5916090  45.1777000
  58.3411217   4.2146749  45.9033432  58.7678490   4.0871234  44.4567566
  65.9272614  64.6449814  83.5973969  65.8101196  65.4136810  83.0391769
  65.3764038  63.9721870  83.1972275  83.2947922  36.4705391   1.3566130
  82.6572266  36.4618607   2.0705218  84.0775299  36.0650139   1.7295809
  78.8144455  42.7982407  25.6448689  78.1731262  43.4070206  25.2783642
  78.7386856  42.9121895  26.5922375  39.3398743  35.4935493  73.2394714
  39.8662567  35.0719643  73.9187546  38.8016586  34.7878075  72.8810272
  14.4278784  36.1441078  76.2455597  13.9512911  35.3236694  76.1191635
  15.2378416  35.8853264  76.6851273  55.9258728  49.8999329  68.3260727
  56.8269043  49.8923225  68.0030899  55.7183342  50.8279839  68.4350586
  63.7536469  10.6962824  82.5630417  62.8734894  10.9082556  82.2521973
  63.8075027   9.7428226  82.4978943  39.3125229  53.5804138  25.7181892
  39.9784012  53.1780815  25.1605434  38.7145004  54.0090790  25.1059437
  35.0027962  29.3863335   6.1807189  35.7372780  28.7967873   6.0098224
  35.0358162  30.0232544   5.4669456  21.4869328  30.6792278  76.1663818
  21.0906601  30.9945545  76.9786453  20.8674812  30.9345970  75.4827881
  70.2979050  48.0856552  15.1275187  69.8941193  47.6053505  14.4046831
  69.6832962  47.9856339  15.8544827  66.3338013  27.8833199   8.3839502
  66.0676117  27.4966240   7.5497780  66.8718491  27.2094688   8.7994671
  63.5998268  60.1434898   7.8190246  62.8738594  59.9595909   7.2228827
  63.3307648  59.7545624   8.6512337  65.1697388  25.7373886  18.8441486
  65.5893631  25.6296387  17.9906044  65.4755783  24.9896183  19.3575039
  20.2277260  57.5290146  87.7114716  21.1723499  57.6833916  87.7208023
  19.9524689  57.7815247  86.8301620  23.7853889  64.0319366  84.6697922
  24.6219368  64.3718948  84.9873581  24.0264721  63.3519440  84.0407333
  39.5484314  43.7629433  75.4659805  40.1808472  44.4171257  75.7631836
  38.7036438  44.0875053  75.7777939  76.2912292  60.0950623  39.3708191
  76.2072678  59.6987076  38.5035896  75.4439163  59.9398003  39.7881737
  12.4302883  48.4886360   9.4672928  13.1169605  47.8463478   9.2879028
  12.6304808  49.2220459   8.8856916  86.4840088  70.9209061  80.2286987
  86.2841263  70.9581528  79.2933426  86.0464630  70.1268387  80.5356827
  82.6868057  12.5270090  59.3515358  83.2707901  13.1981230  59.7048111
  83.2634964  11.7905483  59.1483345  39.6483650  23.4594746  12.3454313
  39.8976288  22.9872475  13.1398497  38.8141365  23.8742313  12.5651417
  58.4917603  52.1140976  47.1729546  57.9196510  52.0652237  46.4071007
  59.3759842  52.1577377  46.8089867  78.1818237  13.6064806  35.8857269
  77.7374496  13.6371937  35.0384827  78.5364914  12.7189560  35.9381294
  71.7724686  66.1446686  85.0755234  71.3434753  65.3949585  85.4880066
  72.6114044  66.2205200  85.5301132  23.2941666  52.1728172  69.9652863
  23.6171188  51.5125961  70.5785141  24.0824986  52.6207886  69.6585617
  82.1187592  62.5019760  37.3797035  81.7805557  63.3937454  37.2985191
  82.1168594  62.3298912  38.3213081  52.9274712  27.7203083  47.2688751
  53.5380554  27.4693317  46.5757408  53.3651733  28.4390965  47.7249374
  77.2545471  15.5580339  51.4211578  77.5191193  14.6613235  51.2158699
  76.8363342  15.4937449  52.2797585  27.6577053  31.3414516  84.3183823
  27.1757221  32.1683578  84.3059464  27.2865658  30.8369865  83.5944977
  32.4196548  65.4327393  27.9003792  32.2854500  66.1109543  28.5623856
  31.6493893  64.8694000  27.9750462  53.5478897  17.7379856   3.0191600
  53.5903435  17.0925217   3.7247145  52.7692719  18.2583637   3.2171297
  10.7735720  30.6251659  85.0493622  10.3281307  29.8414745  84.7274323
  11.2743511  30.3219681  85.8066788  65.4780197  20.0634251  20.4185123
  65.4743576  19.2406979  20.9077339  65.3878098  20.7409554  21.0886230
  60.0902176  42.1446533  68.6065369  59.3271828  42.0996475  69.1827164
  60.3229446  43.0729713  68.5893478  10.1596317   5.1808662   8.1524534
  10.9135933   5.0759592   8.7327709   9.4670963   4.6636152   8.5636435
  72.9519653  46.4486732  39.8773842  72.6843643  47.3624878  39.7795601
  72.6344528  46.1976662  40.7448006   7.7244363  62.7851448  46.8262901
   6.8046994  62.9787102  47.0075378   7.8379569  61.8771439  47.1071434
  70.9307709   2.8294730   6.5479913  70.4724197   2.9232883   5.7129192
  71.0847473   1.8885084   6.6323051  79.1764221  13.8014050   6.2691021
  78.9920502  13.5366774   7.1703005  79.8133469  14.5109434   6.3534384
  28.4561520  52.4282379  72.0287628  29.0816193  52.3189201  72.7450562
  28.7037582  51.7593460  71.3904037  34.5371284  25.0893116  79.6661148
  35.1888313  24.9803848  78.9735413  34.7765388  25.9118938  80.0930481
  23.0936642  63.9692955  42.1454697  23.0345802  64.9206467  42.0579071
  22.9105625  63.8020325  43.0699844  72.6495895  30.1153622  47.9677925
  73.2934036  29.4773521  48.2755051  72.5778427  30.7473087  48.6831436
  83.6332779  34.9052505  39.4723015  82.9890671  35.2785072  38.8707199
  84.3936081  35.4818306  39.3969269  17.5091496  35.1682739  16.1448650
  17.3537140  35.1273918  17.0884743  18.3756771  34.7788506  16.0277710
  72.4647141  26.0733738   6.5579638  72.5435638  26.4162216   5.6677566
  73.0035553  26.6597366   7.0890589  55.4296417  20.6440773  87.8302078
  55.4166031  21.2873173  88.5389404  56.3491974  20.5938873  87.5691986
  54.3444023   1.2476242  71.5130234  53.4211464   1.0500987  71.3554916
  54.3847160   1.4800233  72.4407043  77.8412399  24.5677948  10.1202021
  77.6438370  24.2783012  11.0109634  76.9838104  24.7005978   9.7159672
  54.9108887  33.8342133  88.6877365  54.3872261  33.2601852  89.2467575
  54.3055496  34.1191902  88.0032043  65.5510483  32.7222519  73.8890381
  65.1349716  33.4270134  73.3926239  65.5941238  33.0540695  74.7858505
  72.6298065  23.2627258  41.3819504  72.1661758  23.9982777  40.9816513
  73.5413513  23.3800240  41.1144409  44.9021416  55.8197441  62.6876450
  45.1827049  56.0112572  63.5825424  44.5334930  56.6442490  62.3705864
  22.2499123  38.4995232  13.5906792  21.8849182  39.3835945  13.6284599
  23.1892490  38.6221428  13.7279434  18.3223362  62.1116524   5.0891638
  18.5188961  62.5204735   5.9320512  17.7262211  62.7246208   4.6588759
  15.9535770  10.8328743   1.7120640  16.4362221  10.5323095   2.4820936
  16.5333157  10.6393070   0.9754054  64.5959930  56.8827133  69.1648941
  65.1525879  57.1309090  68.4267654  65.1306458  57.0609665  69.9385834
  83.8233719   8.0993214  69.9028625  84.3571777   8.8789139  69.7494965
  83.9717102   7.8848524  70.8238602   0.7779690  56.2012062  50.6245041
   0.3468741  55.8210487  51.3899231   0.6633332  55.5468140  49.9354019
  76.2916183  58.5617599  19.7155819  75.3659592  58.4895973  19.4828014
  76.5098267  59.4786606  19.5485172  66.3987732  62.5371017  45.9743576
  65.8422394  61.7583275  45.9773674  66.3384247  62.8780708  46.8667297
   7.5757565  68.4452057  58.8144035   8.1421499  68.3508301  58.0485573
   7.4094014  69.3859024  58.8748093  39.0645943  62.5549660  41.4513969
  39.2283020  62.6362915  40.5118141  39.7337532  63.1044006  41.8595428
  15.9900532  56.2184639  33.2817726  15.9787960  56.8524857  32.5647469
  16.9066792  56.1822777  33.5551224   7.5635552  40.1102028  87.1210022
   8.2563534  39.5612907  86.7536392   7.6746607  40.0338745  88.0686569
  20.6166687  71.4587708  82.5407104  20.9967079  70.8308411  81.9262848
  19.7354927  71.6204071  82.2036133   9.9219551  64.2901917  13.8473101
  10.7091742  63.7461090  13.8250923   9.9388838  64.7698746  13.0191507
  29.1209526  61.2500687  20.5805531  29.4139442  61.1166801  19.6791134
  28.3652897  61.8324814  20.5030880  61.6184387  27.2346039  67.6629715
  61.4748993  26.3182659  67.4264374  60.8290329  27.6857090  67.3636856
  40.9297562  33.8512611  53.2105637  41.3840981  33.7192383  52.3784714
  41.5831032  34.2605247  53.7778969   8.1771612  26.1253014  24.1142006
   7.9982309  26.3472424  25.0279598   9.1194763  25.9591808  24.0881729
   6.0167584   6.7782569  82.4535980   6.6727948   7.4228730  82.1884232
   5.1919694   7.1199946  82.1083832  85.7586441  60.8415070  76.7131577
  85.3729324  60.2077789  76.1083145  85.7036896  60.4187508  77.5701828
   1.6638898   5.1486392  89.0156479   0.8435863   4.9329596  88.5720062
   2.0695667   4.3003507  89.1947098  38.3982964  52.6106758  38.8130417
  37.5152550  52.6804199  39.1758156  38.8880234  52.1140556  39.4686089
  82.6395416  60.2694702  46.7022247  82.9695358  60.9262619  47.3153801
  81.8100967  59.9813614  47.0833321  27.1383171  54.6132584  37.6799049
  27.7042961  54.0528717  37.1489944  26.7739487  54.0265083  38.3426208
  65.9079666   2.4545417   2.0840662  65.7481308   1.7435070   2.7046416
  66.6077499   2.9698579   2.4853015  33.3627853  21.1301212   0.3478290
  34.1017761  21.2194195  -0.2539592  33.2501297  20.1851044   0.4502225
  52.3562508  63.1510735  60.2422600  52.7588158  64.0130920  60.3475838
  52.2754593  62.8138351  61.1344337  27.6024532  46.5038605  31.7515621
  26.8507786  46.0064430  32.0737343  28.0926285  45.8784027  31.2179317
  59.3938446  45.3214493  31.0264130  59.2559052  45.9634857  31.7228279
  60.1424255  45.6588326  30.5344467  50.9366570  34.0720558   2.6374743
  50.2067146  34.1474342   2.0228734  51.5983696  34.6749573   2.2985442
  82.9242325  34.4509354  64.9675674  82.8895035  33.5607948  64.6173172
  82.3959427  34.4153328  65.7649918   1.4225392  68.6974945  12.1084061
   1.4154742  69.2217941  12.9092102   1.4519652  67.7914047  12.4156103
  49.9829216  68.5852356   1.7565396  50.3687630  68.8316650   0.9159245
  49.4354324  69.3326569   1.9970765  17.4173012  56.7212715  15.6840115
  18.1431332  57.2730103  15.9755316  17.0714493  56.3354721  16.4888573
  84.7348251  11.3434963  45.7511826  84.7055359  10.4333954  46.0462952
  85.2505264  11.7953806  46.4190750  12.7916660   4.9491448  81.0448608
  12.6009226   4.1406898  81.5205231  13.3269577   4.6695027  80.3022385
  57.0690346  42.2404671  35.2650642  57.6993980  41.5995102  35.5937729
  56.3658638  42.2396622  35.9145126  20.7675018   1.0900373  60.6380005
  20.1785545   1.5816637  60.0655670  20.4705696   0.1829908  60.5649948
  78.2650681   2.6862562  31.4581108  78.1050186   2.6291275  32.4001045
  79.1973572   2.8907244  31.3855343  60.1374512  66.5302505  44.0015945
  59.2864151  66.7490158  44.3812103  60.2069893  65.5807419  44.1007500
  62.2454491  59.5231590  85.3688507  63.1129646  59.3029366  85.0295258
  62.3155251  59.3848305  86.3134079  40.5774879   4.8325090  46.7392807
  41.4000549   4.8346682  46.2497826  39.9630585   4.3654776  46.1730728
  28.6579189  41.5864677  77.0747147  29.1166553  42.4200058  77.1796341
  27.8353596  41.7043114  77.5498352  47.5842361  63.4387054   9.4350882
  48.4398499  63.2627907   9.0436678  47.2195435  62.5718117   9.6132202
  46.5649872  37.2773323  79.9420624  46.4353218  38.1982231  79.7153931
  47.1500130  36.9433670  79.2620316   8.0310030  32.1489410  30.9086323
   7.3821583  32.0968628  31.6104298   8.3402758  31.2494793  30.8011494
  15.0844336  22.2270126   3.3034048  15.6870985  21.8027420   3.9141603
  14.2761850  22.3395004   3.8037162  72.4179459   9.3334227  23.2842159
  73.2338867   8.8329496  23.2827778  72.5513382  10.0070667  23.9510307
  74.8563766  48.9056129  25.8908577  74.7788467  48.4278603  26.7166767
  74.1624985  48.5444717  25.3391781  74.6997452  16.4547997  89.0419998
  74.0009460  17.1077709  89.0812225  74.2594376  15.6486568  88.7727585
  32.9250679  45.6682205  30.6089439  32.5237541  44.8859291  30.2305298
  32.4692307  45.7924347  31.4414215  11.2490396  52.0893135  25.0995979
  11.1900749  52.7050476  24.3690987  11.6397400  51.3027573  24.7189198
  14.9476204  20.6853409  68.5468597  15.0535946  19.8793011  69.0521317
  15.7845640  21.1398525  68.6426468  65.2500458  25.7988625  53.2960587
  64.7591324  26.6093998  53.1609116  65.6815414  25.9184170  54.1420784
  41.8901291  49.3603783  79.5752869  41.5056725  48.6896133  80.1396484
  41.6522636  49.0918427  78.6878510  15.7091293  47.8834152  50.3262100
  15.4353886  47.9459190  51.2412987  15.7408047  46.9432259  50.1493683
  32.6987801   8.8128748  18.1457767  33.0742760   7.9488964  17.9761372
  32.6009254   8.8488750  19.0972805  69.7547302  48.8966866  27.8306446
  68.9575119  48.3684425  27.7902985  69.8773346  49.0744324  28.7631721
  81.4217377  44.8682175  67.6998901  81.4873505  44.6224709  66.7771072
  82.0541763  44.3032188  68.1437759  84.5112839  40.0002251  51.1551743
  85.3096161  39.8240929  51.6530495  84.2144623  39.1375580  50.8654671
  62.4378281  32.5937576  82.3565598  63.2088509  33.1567078  82.4261398
  62.5426216  31.9557457  83.0623932  44.1006889   2.1093946  38.8573112
  43.2492180   2.4525552  39.1283646  43.9001274   1.5142145  38.1349754
  42.7209663  63.0611076  74.5487671  43.3499718  62.6832047  75.1633987
  42.1017113  62.3524857  74.3738098  43.8774338  61.7328262  82.1422958
  44.6707039  61.8566170  82.6634750  43.3987846  62.5565262  82.2352982
  27.4301834   6.6080918  74.9285355  26.5441437   6.9456730  74.7973633
  27.8460598   6.6868973  74.0700150  61.0742989   2.6374142  70.6440887
  61.8516808   2.3118141  71.0978394  60.3758698   2.0368965  70.9044876
  79.6718216   6.2833843  30.3567505  79.4216766   6.1983376  31.2767639
  80.6168289   6.4341102  30.3784332  63.6462975  23.1505013  44.5057945
  63.4752617  24.0527744  44.7757607  64.3236618  23.2259064  43.8336906
  72.6640320  70.5658951  75.1407394  72.3147888  71.4312134  74.9274521
  73.5109406  70.7436066  75.5498734  83.8012772  18.5375023  30.0323067
  83.4568100  19.2908955  30.5118618  84.1136093  17.9422493  30.7137432
  76.8241730  11.5275602   7.4876738  77.5424194  11.4644709   8.1172552
  77.2393417  11.3904839   6.6361570  47.3822594  32.6427422  23.6496754
  47.4611130  33.5850830  23.5013256  48.2439156  32.3780556  23.9717388
  12.5791140  30.6682549  19.3872433  12.9551620  30.9613171  20.2172642
  12.3796043  31.4770870  18.9158421  38.5646362  56.0159683  55.0035439
  38.0078011  55.3667259  55.4332542  38.9927750  56.4786415  55.7238655
  25.7192192  36.6131668  84.1531525  26.1804256  36.7919655  84.9726334
  26.2879372  36.9760933  83.4741287  70.5718155  23.4964504   4.8608890
  71.2518845  24.0602493   5.2294984  70.3212357  22.9200611   5.5828424
  53.8144875  19.6557178  26.6222973  54.0149841  20.5425930  26.3231564
  54.6698723  19.2610989  26.7920685  51.2616272  53.6259232  50.9841805
  51.8554192  53.1188622  50.4305267  51.8296814  54.0212517  51.6454391
   5.7654004  21.6433277  58.4068947   6.3037457  21.6963959  59.1965790
   5.3306856  22.4945850  58.3557243  77.9544678  27.9221020  34.3836670
  77.7691116  28.8590488  34.4469757  78.0921326  27.6434727  35.2890091
  77.6744843  58.3435059  65.2313385  77.7800598  59.0972176  65.8118668
  76.8108749  58.4643250  64.8366165  22.9262028  58.1112480  46.1765900
  22.6981144  57.2523956  45.8208084  22.4401188  58.7320862  45.6338997
  51.4273834  25.3316612  25.7680016  50.6991844  25.6490173  25.2339230
  52.1795006  25.8482761  25.4787560  71.3093567  18.1384106  80.3686981
  70.8596878  17.5306683  79.7816010  70.6057281  18.6476307  80.7709885
  30.8685875  29.1604576   3.9774115  30.5727997  29.7049999   3.2478809
  31.0880222  28.3199711   3.5753372  68.1778412  22.8028393  48.7845230
  68.0495071  21.8544579  48.8028755  67.8574524  23.1043835  49.6346130
  14.9479370  43.8546944  69.5396347  15.3099642  44.1872330  70.3609695
  14.3580551  43.1494942  69.8060303  46.7798996  57.5368423  12.3270950
  46.1616096  58.1035690  12.7883635  47.5723839  58.0667725  12.2412395
  70.1979752  46.9870911  37.8025627  70.0239792  47.1657486  38.7267075
  70.9433594  47.5474014  37.5865021  23.7198067  10.6449718   6.3924346
  22.7638321  10.6851387   6.4194498  23.9668255  11.2729311   5.7135530
  64.5073166  37.3750305   5.0938840  64.3398895  36.7762146   4.3661356
  65.4295197  37.6138153   5.0002699  80.0896835  45.0720749  73.2281189
  79.4808884  45.3489647  73.9129028  80.8868637  44.8305511  73.6997070
  22.9739323  57.3933411  18.3788815  22.3277683  56.6902542  18.4449978
  22.4555874  58.1797523  18.2082596  81.3550568  13.6643295  51.9397469
  82.0709763  13.0559196  51.7566261  81.4983978  13.9370537  52.8460045
  38.7070007  55.1851044  47.2175980  38.4865417  55.9705200  46.7168465
  39.6634750  55.1854668  47.2549095  66.5482178  32.9446678  48.7188988
  65.6010437  32.9160995  48.5836868  66.6966553  32.3975639  49.4901810
  69.2757416  38.6592331  67.4925690  69.0133057  39.5247955  67.1792603
  70.2105331  38.7454605  67.6795197  39.5896072  61.1768913  57.4478874
  40.1504059  61.4731026  56.7309532  39.1452179  60.4035263  57.1005249
  67.6400070   8.4556341  48.0485115  67.7457504   7.7967882  48.7347870
  68.0776672   9.2336798  48.3939590  66.3916702  28.6135941  36.5814056
  66.6296616  29.4139252  37.0494461  65.4875336  28.7589417  36.3027687
  28.4252453  50.6478577  75.0131073  28.4443130  49.8091316  74.5522385
  29.0542221  51.1943703  74.5419998  82.1887512   0.6596770  45.2182846
  82.8231659   0.0176221  44.8996658  82.0976410   0.4639600  46.1508217
  41.2268372  60.8420982  51.3590889  42.0447769  60.6505699  51.8179169
  41.0659714  60.0660973  50.8222656   1.9713110  40.7085571  16.2961769
   1.5270133  39.8774109  16.1287708   2.7232776  40.7017097  15.7039518
   7.6118236  59.8356247  48.5824013   6.9290876  60.0088654  49.2305489
   7.2041698  59.2330666  47.9603310  78.0580750  65.8985214   5.2505093
  78.2360229  66.7836151   4.9324222  78.9195404  65.5472412   5.4757185
  22.0548153  20.3924980  75.4247818  22.8803864  20.6544991  75.8322372
  21.8567162  21.0985069  74.8095245  49.3356972  28.5987225  76.9432373
  48.9199409  27.8790798  77.4180984  48.6463432  29.2568245  76.8542252
  64.0789185  35.4542542  38.0600204  63.3295555  35.0779266  38.5216141
  63.7028236  36.1482735  37.5186081  32.9351387   1.9157566  59.6706314
  33.2356682   2.3471620  60.4705086  33.1858406   2.5143147  58.9669914
  47.7236633  19.4351597   0.0175916  47.4972572  19.8379097   0.8559021
  47.5756569  20.1262913  -0.6279022  71.5638123  19.0662956  49.3924904
  72.1965637  19.3001404  48.7133980  72.0920258  18.9500599  50.1822395
  31.6631889  58.8977203  82.8844147  30.7987919  59.2816849  82.7373886
  32.0701103  58.8849754  82.0181122  12.7120190  55.5884857   0.5162126
  12.9521198  55.0385246   1.2619526  13.5490427  55.8591690   0.1389136
  69.5733414  49.0638008  70.0668640  70.1833115  48.4595146  69.6437836
  69.0246658  49.3890533  69.3531418  71.0586777  30.0721283  83.6984558
  70.7015381  29.4419079  84.3241653  70.4078217  30.7732735  83.6667633
  55.5024071  35.0192223   2.1773930  54.9107895  34.3003273   1.9551090
  56.0001640  35.1765747   1.3750788  44.5497475   7.4106164  80.0280075
  44.8365746   6.9087663  79.2650452  43.5995789   7.4728413  79.9303589
  34.1873703  13.3642673  73.5170593  33.9550209  14.2542648  73.7819138
  33.8600082  13.2879229  72.6208191  77.9463959  42.9000397  65.1338806
  77.2768097  42.2503204  65.3477783  78.2679367  43.2012863  65.9836426
  72.5782852  61.4105110  49.1783981  72.1290512  60.6103706  48.9060173
  72.7697754  61.2736778  50.1062126  41.5140533   6.9630203  10.7080326
  41.5226517   6.4587035  11.5215569  40.6928062   7.4537549  10.7391138
  36.6437836  35.0659218  21.7901783  37.1102867  35.9013557  21.8158646
  37.3276291  34.4061089  21.9052143  53.6398087  18.5376530  13.4263258
  54.1131172  19.3356895  13.6615877  53.3533134  18.1733837  14.2638588
  58.0884018  13.3056469  27.5133171  57.9022408  12.3680096  27.4642010
  57.6624489  13.5924082  28.3211327  26.6857986   4.4247427  76.6684265
  26.9447289   5.1305666  76.0759735  26.7434425   3.6315985  76.1356659
  76.4266510  25.0394363   3.8927419  76.8543320  25.4412327   4.6489706
  77.1209869  24.5411434   3.4616539  86.7247467  24.8725147  25.3771477
  86.3201523  24.2270241  24.7975941  87.1445847  24.3505955  26.0609360
  23.7319698  15.0933704  73.8193893  22.7990627  15.0229197  74.0217514
  23.7919483  15.8394537  73.2227325  77.1943512  59.2816353  10.3153238
  77.3347397  58.4087715  10.6822519  77.1366730  59.1379318   9.3707323
  12.3968620  27.5206661  62.3091393  13.1397381  27.5258312  61.7055321
  11.6524124  27.7978725  61.7751122  37.2569771  13.5355930  82.6704254
  37.5039330  14.3626232  83.0842667  36.3021889  13.5721092  82.6132278
   2.6207423  47.5960693  45.6759682   2.6352472  46.6389809  45.6781197
   2.4991620  47.8316994  44.7562256  50.7053375  58.1604080  30.2361641
  51.3986626  57.5178566  30.3866997  51.0052261  58.9473724  30.6911201
  83.6943817  23.0856590  88.8954620  83.0493774  23.7886353  88.9730759
  84.5400009  23.5260162  88.9805756  60.8912315  68.1208649  73.0126801
  60.8044930  67.1774063  72.8763046  61.8255653  68.2549896  73.1716156
  76.2934189  63.5512543  79.3008041  75.4483948  63.1752739  79.5474167
  76.8318100  63.4671326  80.0877533  57.5750580  30.4455090  21.8055038
  57.8212624  29.9584312  22.5918713  57.1619987  29.7934704  21.2394123
  29.2049732  57.2399826  28.3577423  28.9001827  57.4466743  27.4742184
  29.1826420  56.2840347  28.4012947  23.9602470  48.6314812  77.4317780
  24.8511124  48.9504929  77.5760727  23.9838219  47.7180290  77.7168808
   0.6298574  58.3389778  48.3541718   0.7048880  57.4723587  47.9547119
   1.5170615  58.5444794  48.6489105  24.2029343   8.5005884  66.9495697
  24.2836685   7.5499282  67.0267563  24.6133366   8.7084455  66.1101608
  83.3762207  50.2158127  83.0056534  83.2537994  50.9687576  82.4274521
  83.6399078  49.5052490  82.4210205  79.6227417   1.2054009  76.8229294
  79.3522949   1.2706724  77.7388077  78.8329315   1.4150270  76.3244476
  16.7965889  40.2061119  16.1578293  16.7115116  39.2652893  16.0033970
  16.2565861  40.6101227  15.4785624  71.7506180   1.7864712  85.4934082
  71.2429581   1.8098801  84.6822586  72.6094818   1.4568049  85.2290039
  74.3561401  56.9672203  69.9182663  74.0729523  56.6211433  69.0719452
  74.6774750  56.2017021  70.3946686  53.7236977  68.3049393  40.1534157
  53.3291206  68.9395676  39.5552559  54.4541359  68.7759018  40.5545273
  10.6331673  51.3467941  44.4057274  11.1594954  50.8232574  45.0099792
  10.9777546  51.1309700  43.5391731  70.1870956  37.2054710  61.5307312
  70.1016388  37.0184402  60.5958786  69.9422684  36.3868179  61.9621277
  86.6147537  43.2328873  47.9122162  85.9783173  43.4683800  47.2371445
  86.7055817  44.0246506  48.4423981  48.3282471  66.9163895  54.4225235
  49.1490555  67.4076691  54.4565430  48.3987465  66.2825089  55.1362877
  66.5424500  15.6480656  48.6242561  67.3439255  15.8939409  49.0862236
  66.6992950  15.9092913  47.7168465  68.7403183  27.1674194  20.3028202
  68.4684219  26.3245869  19.9395866  69.0226288  26.9640541  21.1945457
  62.9460907  46.8049164  12.8030252  62.4245415  46.3907967  13.4905748
  63.2722588  46.0746460  12.2771444  78.1700211  28.0430145  47.7008820
  78.8826294  27.4639645  47.9713097  78.3759308  28.2686844  46.7937393
  85.6583023  35.1924591   2.5729604  85.8096924  35.2891693   3.5131519
  86.3842697  35.6633835   2.1637788  38.7067032  49.5837250  12.4682903
  38.4306412  49.7900925  11.5752983  39.1878319  48.7603340  12.3860016
  80.6088638  68.1258774  52.9869995  80.1734543  68.9652252  53.1358070
  80.5265045  67.9770126  52.0450401  70.3429337  19.3484592  60.3277664
  70.5155869  19.3102474  61.2684898  71.0762100  18.8787498  59.9303932
  60.7311211  16.4099083  73.3607407  60.4164047  15.5788269  73.0050888
  60.3872414  16.4338493  74.2537155  68.5998535  62.6158257  69.5211411
  68.1269073  62.7172928  70.3471222  69.3622437  62.0823555  69.7456512
  19.6977215  64.8263931  87.0211487  19.3191185  65.3658752  86.3269958
  20.6394367  64.9878006  86.9632416  78.0681992  29.7582550  66.7351608
  78.6418915  30.2544308  67.3190384  77.5340729  30.4238701  66.3016891
  39.8224258  55.3823204  63.0095673  40.0127678  56.3067932  62.8503456
  39.2290993  55.1343765  62.3005409  66.7548752  16.9438381  84.7514191
  66.7471924  15.9922476  84.6482391  67.0815277  17.0857906  85.6398926
  37.5733070  45.4404640  24.3608761  37.4795341  45.7482758  23.4593811
  37.8639565  46.2113686  24.8481750  76.4052658  48.8967590  29.9868355
  77.1764526  48.5709496  29.5227795  76.7120972  49.6826515  30.4390087
  18.7183208   8.0002604  19.7937260  19.2069530   7.4020157  19.2284164
  18.3755798   7.4431605  20.4925804  74.0871735  30.6330910  16.9007511
  74.4605865  31.2650509  16.2864037  74.2199097  31.0291367  17.7620068
  76.2252884  54.3118973  52.5976906  76.9689026  54.9016876  52.4735336
  75.5049896  54.8861122  52.8578491  66.5435181  24.1117840  72.4255905
  66.5188904  24.4162827  73.3327332  67.3862228  24.4199963  72.0922775
   1.6320590  25.3987427  86.0782013   0.8661410  25.8371811  86.4488449
   1.2709005  24.6633472  85.5832443  79.3905792  13.1523495  87.0075684
  80.1872101  12.7118454  87.3034744  78.6983948  12.5024071  87.1287384
  76.6069717  52.9883461  70.0619125  76.0846100  52.5068817  70.7034378
  76.5123749  52.4875526  69.2516708  74.9848480  27.7286510   7.2109036
  74.9288559  28.4415493   7.8472013  75.3935165  28.1256676   6.4417496
  12.0394964  43.8636932  32.7902107  11.2729216  44.1441841  32.2902946
  12.6889400  44.5502281  32.6381493   7.2111998  43.6958542  45.5899773
   6.8422775  43.3993263  44.7579918   7.8073587  44.4047470  45.3485336
  79.2288589  42.4867668   9.7119646  78.7285919  42.5694351  10.5238352
  79.0948029  41.5790367   9.4394064  57.9120407  26.1245899  15.2735262
  57.5874634  26.7997684  15.8693581  58.7575722  26.4572201  14.9724236
  48.4769096  23.3662624  45.2268677  48.0844193  22.5175591  45.4315300
  49.3659019  23.3097515  45.5771980  42.1082420  58.5854149  30.8195896
  42.3689575  57.7776337  30.3771591  42.9337845  59.0290222  31.0143185
  20.3946228  54.0083656  43.7225533  19.5574646  54.4690437  43.6662216
  20.9479904  54.4364128  43.0692596   8.2448301  37.0105629  25.7902699
   9.0978374  37.0830002  26.2184811   8.0074043  36.0880127  25.8839016
  68.8372116  25.8128204  72.7232742  69.4775314  25.2367630  73.1408691
  68.2388458  26.0574322  73.4292068  77.6712189  31.5275612  43.4060326
  76.7201233  31.6144409  43.4701042  77.9822845  32.4172554  43.2389526
   2.2889023  41.9933662  51.0001450   1.7260774  41.5544586  50.3623199
   1.6804101  42.3905449  51.6232147   3.9131312  45.3579865  33.8558578
   3.9313602  45.4635582  34.8070450   3.3293869  46.0517616  33.5490189
  22.9572010  58.0859795  87.9686279  23.6147861  57.4024315  88.0973892
  23.3945694  58.7392807  87.4226074  37.5714455  69.6982040  51.8195343
  36.7793732  70.2154312  51.9655991  37.9708862  70.0864868  51.0411263
   1.7028334  10.4737844  76.5412216   0.9863241  10.6489782  77.1512604
   1.2747024  10.1057186  75.7682571  78.1658096  18.4559269  61.0643425
  79.0793381  18.7167053  60.9473114  77.7339935  18.7257118  60.2537956
  22.4658356  47.5342331  83.7699890  22.7668381  48.3972168  83.4855804
  22.3204861  47.6294861  84.7112808   7.5614939  60.3616486  63.1560860
   7.9251184  59.7011299  62.5664024   7.4369626  61.1333656  62.6036644
  46.8813629  40.9776230   1.5152600  45.9426308  40.7907181   1.5063796
  47.2147675  40.4938087   2.2709041  21.7813969  12.5860796  49.9825287
  21.4010010  12.3602228  50.8313599  22.3268127  11.8326750  49.7563972
  62.3508911  21.5559368  87.5693207  62.0109291  20.7745781  88.0053635
  62.1076851  22.2783012  88.1483459  69.1846390  32.4340401  36.1128311
  68.7075729  31.9126129  35.4672661  70.1038208  32.3441620  35.8612976
  49.4907990   0.9032380  59.2655869  49.2135506   1.8019344  59.0875130
  49.5040665   0.8414814  60.2206993  22.3006535  45.3990326  60.2175026
  22.6235485  44.5038834  60.3208466  22.1060658  45.6878853  61.1090927
  20.1766701  44.2049599  22.1515541  19.3479824  44.2658157  21.6763630
  20.1761894  44.9658623  22.7322960  53.2185707  12.0221081  58.5948906
  54.0209084  11.5005131  58.5742226  53.5109634  12.9019918  58.8326797
  53.1864052  69.3025894  21.0724792  53.4347191  69.8533554  21.8149281
  53.9363899  68.7219543  20.9435806  81.9636383  27.1446724   4.8682575
  81.8276138  28.0059013   4.4732742  81.6860352  27.2518692   5.7780242
   2.8602722  37.9226608  67.3343582   3.4176712  38.6975098  67.4060898
   2.0876744  38.2266579  66.8580093   7.6613855  71.7631607  14.8162346
   7.3458776  71.4620132  15.6682892   8.5868711  71.5191345  14.8036175
  16.7691460  63.0715370  25.3985100  16.9047718  63.4387512  24.5250149
  16.4934063  63.8171844  25.9316254  26.3980789  69.1222687  58.5451241
  26.8569794  69.5881729  59.2441063  25.5269833  68.9511490  58.9030914
  12.4501514   4.4916720  15.1878595  12.4812469   4.5069404  16.1444321
  12.1636572   3.6043088  14.9716673  68.0411224  56.1286812  52.0413055
  67.4599228  55.4933395  52.4593697  67.6415558  56.9781418  52.2283707
  17.7464733  70.7148132   2.8219888  17.6815872  69.8820572   3.2894716
  17.9728622  70.4689560   1.9250312  70.4679031  47.0899811   4.0524931
  71.4157486  47.1241150   4.1815333  70.2860336  47.7907715   3.4263544
  31.7419243  64.2080002  21.4599762  32.3184357  64.5060730  22.1635513
  32.3106461  64.1512909  20.6921406  57.6370659  68.4678192  63.6312256
  57.3687859  67.8922577  64.3474579  56.9326286  68.3933640  62.9874382
  38.1552467  49.8380241  68.2870102  37.6185608  49.0935783  68.0149841
  38.8386230  49.4528885  68.8355560  39.9361343  61.5154915  62.8267822
  40.0200081  62.4681206  62.8679810  40.8342476  61.1925926  62.8999977
  54.5968361  68.9458389   5.4391146  54.2146950  68.1812897   5.0082164
  54.1478233  68.9944763   6.2830663  79.6256866  53.4006844  27.2617683
  79.6138077  54.2174988  27.7606735  78.8186722  52.9530449  27.5159073
  20.0164547  14.2065020  59.5775223  20.1002598  13.3402653  59.9760742
  19.1566849  14.1944790  59.1569481   8.2616806  65.6635132  37.5016136
   8.3387899  66.6088333  37.6306686   7.6594720  65.3764038  38.1880112
  35.2826805  55.3659210  84.2601089  34.6081238  55.0118637  83.6805878
  36.0387039  54.7946663  84.1247177  52.5856743  63.5243492  66.9966354
  51.7331429  63.4014320  66.5791245  52.6930504  62.7532501  67.5535049
  82.8059769  24.6306915   4.5503602  83.3531265  24.5737610   3.7670200
  82.5266495  25.5457001   4.5814219  49.4257011  22.5227890   9.5994577
  49.7079964  21.7111320   9.1778507  50.1117477  22.7112312  10.2398157
   9.7723732  55.0308380  17.2995663  10.4326153  54.3431931  17.3859253
  10.1414194  55.7777672  17.7708740  60.3417931  22.5994225   0.9229882
  60.1017418  21.9220238   1.5552360  60.3383789  23.4117031   1.4293690
  15.2457848  12.4869528  63.2491989  15.6565809  12.2393847  64.0775604
  14.5515623  13.0967903  63.4989662  62.6094742  37.7270470  23.3757706
  62.1754646  36.8938141  23.5590515  63.4786491  37.4799957  23.0599651
  65.9498672  69.6742706  67.3843384  65.5627670  68.8042755  67.4817734
  65.5739059  70.0141296  66.5723114  80.4146194  29.9653606   1.6750501
  79.6210403  30.4854088   1.5485115  80.1479797  29.0685005   1.4731237
  32.4215851  31.0618496  66.9077301  32.0786667  30.5196228  67.6181030
  31.9359264  31.8837032  66.9778824  52.3069878  70.3351440  38.5640717
  52.4971962  70.7469177  39.4069824  52.4117966  71.0394440  37.9243774
  46.3880310  13.7951288  15.5789938  46.1416550  14.6597281  15.9076271
  46.0128403  13.1825809  16.2116451  77.7476959  67.2841263  25.9253597
  77.9846268  68.1271820  25.5388947  76.8466949  67.1341705  25.6391010
  43.0079193  65.3194122  24.2134762  42.8510971  65.6625366  25.0931950
  43.3591347  64.4408112  24.3581657  18.0356159  68.5523605   0.1488693
  18.1159153  69.5006943   0.0466729  18.9206810  68.2196198  -0.0000486
  51.1571350  27.4464512  33.3943825  50.7789383  28.3172035  33.2719460
  51.8175964  27.5659809  34.0768280  13.8727388  38.8548546  75.8585129
  13.6473589  39.1621628  76.7365799  14.0351477  37.9177971  75.9670563
   1.9574745  51.4351616  69.3472214   1.4569885  52.1564980  69.7285614
   2.8183229  51.4956818  69.7613525  43.5147400  62.6595001  59.5706024
  43.2246666  62.6730461  58.6585121  44.0753403  63.4307404  59.6551247
  66.0778351   3.6046021  50.9300423  65.9281311   4.3334703  51.5321846
  65.2448502   3.4985633  50.4705582  30.0966892  67.0674744   2.2050343
  31.0341148  66.9037933   2.3083489  29.8950386  67.7302094   2.8656044
  21.8257236  21.2958603  20.9071789  22.4467697  21.9200268  20.5317440
  21.7541084  20.6041660  20.2494087  68.5527573  51.4593239  57.6321716
  69.0399628  51.2133636  58.4185295  67.6349869  51.3199844  57.8656654
  14.2821436  49.4851990  48.5615234  14.6739216  50.3101120  48.2747116
  14.9034557  49.1339645  49.1993599  69.1211243  19.1816921   6.1819353
  69.7611771  18.4761238   6.0884523  68.7440186  19.0492973   7.0517035
  25.3512402  39.4813957  62.7187347  26.2610645  39.2039566  62.6115913
  25.2307987  39.5469246  63.6660614   6.8741865  45.9369202  16.9620743
   7.5044551  45.6386986  16.3062859   6.6176515  46.8108559  16.6676922
  44.6138229  66.5572052  75.3302307  45.0360603  67.4056931  75.1960526
  45.3225708  65.9788818  75.6120987  54.7626495   4.9728622   7.1238484
  54.1000481   4.4310174   7.5523329  54.5504341   5.8670688   7.3914151
  79.1652145  48.3500404  53.4120407  79.3997345  47.4806519  53.0873909
  79.6255646  48.4258194  54.2478447  14.0054026  20.4358959  73.2058563
  13.9336271  19.5315647  72.9004669  13.0993319  20.7325897  73.2909546
  18.5003185  40.8006248  84.7329407  19.2740841  40.5290985  84.2391815
  18.3621540  41.7131119  84.4789429  33.1311836  66.8400879  21.3146191
  34.0680313  66.9540329  21.1547413  33.0851555  66.1893997  22.0151367
  57.8249512  55.8133888  45.5338898  58.3670731  56.4220047  45.0319748
  58.0824547  55.9581757  46.4443626  71.4562683  68.1180115  42.8682938
  71.3258896  67.6227112  43.6769409  71.0755997  68.9773178  43.0497398
  31.1166553  43.3906326  66.3749924  31.7072678  44.1124725  66.5902939
  30.5728970  43.2850876  67.1556396  70.0326996  56.9815674  45.5700760
  69.5143661  56.3373604  46.0523224  70.9256287  56.8607864  45.8930779
   5.1818523   4.6768947  46.4463997   5.2292967   4.9442019  45.5285072
   4.5474105   5.2770915  46.8381615  66.0856247  22.8341827  59.9845352
  66.4312515  22.9162064  60.8733788  66.3515701  23.6437321  59.5484848
  72.5287399  35.4492493  38.2935982  72.3973007  35.4379807  37.3455353
  72.6607513  34.5306396  38.5280380  29.2973061   4.8334084  69.2888412
  28.9090729   5.3400497  68.5755234  30.1075249   5.2977219  69.4990463
  21.3376694  65.3401566  31.4558716  22.2740631  65.1484299  31.5072556
  21.2941380  66.2284317  31.1018867  74.4045258  66.0011902  71.6583252
  74.8007965  65.5290604  72.3906479  75.0582428  66.6562653  71.4138565
  61.5641785  68.5241394  64.5877762  61.0400429  69.0971298  64.0281372
  61.7250748  67.7476273  64.0517044   2.9430456  60.5906029  46.1348495
   2.5831423  59.7036667  46.1416092   2.6989422  60.9416122  45.2784386
  83.3484955  31.6232071  31.9563503  82.7515640  31.6310863  32.7045784
  84.2054825  31.4285412  32.3356972  65.7895584  17.0108452  27.7485065
  65.4855652  17.4684696  26.9646702  65.9443054  16.1125031  27.4565010
  72.5339127  13.3078165  18.9649658  72.4142532  14.1344938  18.4975052
  71.6615372  12.9142704  18.9827480  17.2872391  63.7640228  11.0398512
  18.1913166  63.9784241  11.2698650  16.9700947  63.2416534  11.7765865
  68.3367157  23.4264393  22.1766491  68.0842438  24.0243893  22.8801746
  69.1840820  23.7546787  21.8758831  44.3209457  26.2110062  44.8752747
  45.1066322  26.6698570  44.5779839  43.9677353  26.7664318  45.5702400
  31.2349110  64.0483780  80.8352356  31.5722790  64.1385880  81.7264557
  30.2943974  63.9106865  80.9479599  77.1314240  13.2722883   4.5115991
  76.5806885  14.0497513   4.6036634  77.8339615  13.3995695   5.1491485
  59.6832199  53.0100975  15.6975985  58.9545937  53.1624832  15.0958405
  60.3198395  52.5147057  15.1822948   5.4597116   3.3976722  57.3309898
   6.0425940   2.7530484  56.9298172   4.8296223   2.8749352  57.8269424
  71.6857681   6.6654191  30.1292801  72.0299301   5.8255534  30.4332733
  72.1352615   7.3172636  30.6671314  53.4719124  67.7830429   9.8228664
  53.6674500  67.5756912  10.7366514  54.0865898  67.2493210   9.3193340
  21.2722168  54.4078522  14.8598099  21.0171032  55.1771622  14.3505812
  20.4501209  53.9458160  15.0238590  17.3613796  22.6293259   9.2066631
  16.7776909  21.8774433   9.1056156  16.8103542  23.3879108   9.0139141
   4.0857420   7.2076755   5.7458134   4.4387679   6.3577976   5.4825420
   4.4346299   7.3497667   6.6257677  78.1356888  36.8402939  61.1274719
  78.8078690  36.3013191  60.7104454  77.3624420  36.7293053  60.5743027
  42.1664352  24.8628883   2.9356384  42.8044510  24.5040989   2.3188429
  42.6961517  25.3152790   3.5921233  15.2692757  69.0864639  71.7514725
  14.8719187  69.1814804  70.8858414  15.2167444  68.1489944  71.9375305
  13.4759541  25.8931007   3.2248015  13.8369064  25.1248550   2.7823720
  14.2258921  26.4762154   3.3422866  77.1606216  18.9129505   9.9966345
  77.4384918  18.5265713   9.1661339  77.8046646  18.6020031  10.6328354
  13.0915174  47.6999931  19.5467606  12.7011738  47.2133141  20.2727127
  13.1252060  47.0701141  18.8267956  48.7152100  66.7177048  64.1675415
  48.9489059  67.5824738  63.8302078  48.5985069  66.8510666  65.1081924
  82.6680908  41.3943214  11.8447943  82.3505096  40.7980843  11.1666527
  83.1936874  42.0384598  11.3703833  46.5308266  30.1542149  37.3899803
  45.5831490  30.1982174  37.2626839  46.7465668  29.2300072  37.2653770
  50.2494812  34.6012268  20.9243851  50.1324921  35.3405380  20.3277588
  49.4062004  34.1484795  20.9129734  23.7098198  40.9197388  75.4968796
  24.3880062  41.5683250  75.3081207  24.1385040  40.2851219  76.0710907
  80.2444458  61.5676041  44.0537605  79.5377121  62.1470833  44.3382912
  79.8005524  60.7647896  43.7804718  71.2668839  13.2177610  10.1368942
  71.3836899  13.2629175   9.1879215  70.7305908  13.9817657  10.3488264
  51.3523483  39.1143837  16.7974243  51.2692833  38.1627655  16.7361412
  52.1909103  39.3090553  16.3789120   5.9454055  50.6938171  82.3461685
   6.7225351  50.4995651  81.8221741   5.2145786  50.5973129  81.7355881
  78.0355453  70.9064636  11.1354275  78.5987396  71.6672363  11.2778091
  77.1547089  71.2183380  11.3429890  10.6583538  36.3358574  30.2376614
   9.8511419  35.9827957  29.8635120  10.5093241  36.3240166  31.1831150
  54.9885559  21.6768360  38.1269073  55.4883957  22.1946430  37.4958191
  54.0755081  21.7977448  37.8662338  66.1238861  66.3273926  35.2681694
  66.1379623  67.0787277  34.6752777  65.1964569  66.1059570  35.3522339
  45.9650040   9.9305086  15.7603188  45.0800362  10.2834835  15.6682701
  46.4498711  10.6163568  16.2193928  85.7789078  38.3727188  43.4601288
  85.8876648  37.6530647  42.8384399  84.8397827  38.5576172  43.4505730
  20.9315395  41.4884644  77.8211136  21.3906231  41.2636871  77.0118256
  20.1440563  40.9444542  77.8087845  32.5782967  65.7978516   3.4509985
  32.5389824  65.0076981   2.9121668  32.0071945  65.6087112   4.1955104
  57.4286537  45.6681633  54.2616844  57.1171684  45.3222275  53.4253006
  57.5291901  44.8956490  54.8178711  41.5446930  36.5043602  13.7301607
  41.7759209  37.3671646  14.0741615  41.1183891  36.6867599  12.8927679
  62.2401505   8.0809479  75.2133179  63.1021652   7.7080126  75.3979187
  62.3077202   8.4077997  74.3161926  37.2833557  57.6811562  63.3241158
  36.9182205  58.3359756  63.9191971  38.1630440  58.0020218  63.1255493
   7.7379665  12.8958397  11.0996571   8.6721735  12.7436409  10.9570932
   7.3763680  12.0255747  11.2673397  66.3389206  15.9431944  57.8421631
  66.7154083  15.8269997  56.9698181  65.4139633  16.1294842  57.6809654
  47.3972015  34.5197182  40.4649734  46.8386459  34.8500290  39.7613106
  47.9199905  33.8318710  40.0529175  82.2815399  50.3069801  85.9512024
  82.4234543  49.6241074  86.6067734  81.8857651  49.8487396  85.2098465
  70.4956589   8.4065933  65.4417877  69.9392929   8.3486814  66.2185364
  70.8063354   9.3119602  65.4366608  16.7257423   6.8144913  12.9295206
  15.9043722   7.0781507  13.3443298  16.7968788   5.8777566  13.1130943
  74.3054581  51.1148415  55.2229004  73.7532883  50.4406090  54.8269882
  75.0492249  51.1963196  54.6258965   5.7014961   0.5686637  60.7001877
   4.8916965   0.6210345  61.2078438   5.9418645   1.4808694  60.5379066
  23.9688549   4.8222532  68.7636948  24.7270603   5.3492923  69.0158539
  24.1450996   4.5669613  67.8581543  23.4252815  45.3396950   7.2062826
  24.2030830  45.8455505   6.9709802  22.9505424  45.2330055   6.3819818
  54.6184769   3.1447759  29.0728912  54.9317513   3.8865736  28.5553703
  55.0762253   3.2261329  29.9095974  61.6335678  29.9819317   9.6006165
  61.0455437  29.8530846  10.3448324  62.3385086  29.3495998   9.7400761
  86.0429001  35.9417496  52.8078194  85.7334366  36.2045708  51.9409904
  86.7314301  36.5726776  53.0177841  63.4904518  56.1118011  39.5059204
  63.6502571  55.1921730  39.7180061  62.6606865  56.1068611  39.0287437
  18.3498821  16.9648266   6.3702326  17.9545918  17.7684193   6.0322709
  19.2911186  17.0929699   6.2523932  61.6388283  56.6753273  55.2673950
  61.2773972  56.3895760  56.1064110  61.2881165  56.0523529  54.6308937
  14.2195892  69.0033722  31.4666786  14.1375999  68.2954941  30.8276081
  15.1550331  69.2057724  31.4812145  42.9177856  69.0558777  28.0842743
  42.8195724  68.9744263  29.0329323  42.2157478  69.6509094  27.8210087
  18.3267918  51.6752090  76.9509964  18.2114162  51.6618500  77.9011230
  18.7021275  50.8195229  76.7432480  58.9065590  38.6981087  79.5131836
  59.6402473  38.3404350  80.0131912  58.6276817  37.9774132  78.9483414
  39.0927124  59.1396141  79.5664444  38.2371483  58.9255028  79.9384613
  39.2395096  60.0527115  79.8133011  82.5402451  55.6024780  76.8801193
  83.1209106  55.1563568  77.4965973  81.6776276  55.2219353  77.0453644
  14.3801289  63.5030518  71.4680710  15.0608759  63.2379303  72.0865631
  14.3307781  64.4545822  71.5596008  33.3154488   1.3614473   1.7713938
  32.9836006   0.8582543   1.0278190  34.2642365   1.2389871   1.7391518
  12.3384180  29.1644726   1.1389821  11.4366531  29.4479332   0.9883056
  12.4484072  29.2104378   2.0887301  63.8745689  54.5695114  63.0493622
  64.0036697  54.4761162  62.1055183  64.5486145  54.0130348  63.4395256
   1.0184151   0.5139056  17.6022873   0.9181309   1.1579740  16.9013233
   1.7390959  -0.0453748  17.3123608   7.3196206  27.8993797  22.5084019
   6.3882928  27.7887325  22.6997566   7.7449780  27.1694965  22.9584808
  77.3048706  38.1979256  29.6678600  77.8686981  37.4380722  29.8126240
  77.6007156  38.5600471  28.8326492  38.5448380  71.1393585  58.0340385
  38.1299133  70.3234634  57.7540741  38.2784081  71.7815857  57.3761673
  75.2520905  49.6978455  50.8789673  75.8182678  49.0943985  51.3601379
  74.8139343  50.2091331  51.5592842  37.7689400  58.4579659  33.8700790
  38.5270271  58.5490341  33.2928047  37.1173439  59.0572586  33.5060730
  18.3655033  33.3523445  19.3818321  18.5946808  32.5504646  19.8516121
  18.6465626  34.0590668  19.9630241  78.6202164  58.2956848  30.0513344
  78.0080719  57.6336670  29.7300205  78.8952332  57.9714584  30.9089336
  72.9145889   8.3400707  37.4389038  73.0076141   7.8190484  38.2364731
  73.2866592   7.7905698  36.7490883  27.6745377  57.5048294  75.4875717
  28.5919800  57.6039925  75.7419357  27.6300659  56.6376724  75.0847168
  27.3142529  70.4361420  60.7118492  27.6028461  71.3293381  60.5243759
  27.0619717  70.4547348  61.6350174  72.4475937  13.6632013  54.1149139
  72.3028488  13.9966459  53.2294197  72.1498108  12.7541628  54.0801849
  46.7535095  37.7600555  71.6901093  47.6046104  37.4378777  71.3933487
  46.9017906  38.6858559  71.8828201  32.5266571  60.1710281  70.2119446
  31.7657108  60.7416687  70.3194733  32.9797440  60.2147942  71.0539856
  10.4421606  -0.0070718  28.0428696  10.7746191   0.6657123  27.4486771
  11.2203455  -0.3331509  28.4949017  27.4254761  64.8387375  22.0661221
  27.4435120  64.0984268  21.4596157  26.6021748  65.2869797  21.8725109
  41.5488243  27.2856655  23.6824512  41.3347778  27.9137363  24.3723373
  41.2799492  27.7188549  22.8723373   4.0716324  59.2586784  71.7528534
   3.2781546  59.3182831  71.2208099   3.8748965  59.7743111  72.5349274
  85.5821228  56.9741058  19.1643620  85.6340942  57.8991241  19.4049187
  86.3104706  56.8432198  18.5572376   6.4209967   5.8315139  58.5013924
   6.1370945   4.9179082  58.4704704   6.8160491   5.9303718  59.3676453
  64.0218506  11.5097322  27.1510639  64.0729294  11.9314137  28.0088558
  63.0967102  11.5650053  26.9117107  56.5256615  21.8839359   9.6468964
  57.2748489  22.1782532   9.1288939  55.8238373  22.4945087   9.4213438
  74.5631104  30.8017979   3.7323649  75.1393738  30.3140774   4.3208261
  75.0910339  31.5457344   3.4423778   7.9215846  25.0633030  27.8984261
   7.4497709  25.6602879  27.3177109   8.4249649  25.6380367  28.4750729
  65.8496323  20.1674347  81.4686890  66.0318756  19.2623405  81.7213211
  66.7097778  20.5865726  81.4423065  57.4589462  31.5883999  30.5397987
  57.1886368  31.4902897  29.6268158  56.6738358  31.9003124  30.9898434
  44.0616608  64.3169022  46.6009331  43.7256203  65.0620193  46.1028214
  44.9985085  64.3009109  46.4052505  25.2885380  62.0548630   1.2670720
  25.9742069  62.7059708   1.1182586  24.9278297  62.2786903   2.1249890
  49.0291595  70.9755936  69.6537094  49.6445961  70.4509811  70.1658173
  48.4208717  71.3313599  70.3015137  79.2120972  13.1591063  72.9341583
  78.3356247  13.4333382  73.2040024  79.3954163  12.3850737  73.4666061
  21.5133953  43.9520340  44.3356400  21.5787048  44.6827431  43.7207985
  22.3394051  43.9711151  44.8189354  74.3241577   6.1525564   9.1557417
  75.2786102   6.1261649   9.0881472  74.0757217   5.2580028   9.3887310
  68.2344589   5.0310450  83.0870667  68.8782654   5.5344672  83.5853729
  67.8833771   4.4013605  83.7167282   4.9377699  68.0757370   3.5925913
   4.5090790  67.8625107   4.4214396   4.2336516  68.4123993   3.0384207
  45.4380302  12.6967468  76.5422134  44.5328102  12.7477150  76.8491516
  45.8610229  13.4706316  76.9142456  45.4832802   3.1091776  20.4786663
  45.2034836   4.0188236  20.3762512  44.8892479   2.6111987  19.9170856
  38.1514816  31.0536880  22.9804039  38.8643799  31.6280384  22.7008839
  38.4718628  30.6492176  23.7866230   6.2709365  42.9085922   7.8067079
   5.6286941  42.7036324   7.1271887   5.8007197  43.4763527   8.4172640
  47.8742523  70.5380402  48.7306976  48.2811241  70.6176834  49.5934525
  47.0709229  71.0543823  48.7961540  13.3275299  49.7618599  51.3597946
  13.7715654  50.0627251  50.5669861  13.6933842  50.3031998  52.0593147
  48.3952560   9.1671486  73.0547256  49.1110001   9.7943420  73.1575165
  48.3359909   9.0240574  72.1101379  84.2319183   5.8418016   3.4950166
  85.0433960   6.1107211   3.9256170  83.5740356   5.8616228   4.1900182
  19.8186073   5.2101431  55.1116791  20.1913509   4.5486016  55.6944809
  19.0683632   5.5583892  55.5934372  82.3741989  57.5582542  39.8540955
  82.9088135  57.2330818  40.5784416  82.5691452  58.4945335  39.8140144
  75.4737625  21.4137726  44.3794098  74.6148148  21.7640057  44.6155815
  75.5894623  21.6615009  43.4620895  61.4338531  38.0286674  80.4968185
  61.9223137  37.2224579  80.3305054  62.0538864  38.7299500  80.2968445
   8.6999912  58.1659584  41.8532410   8.6592560  57.6792068  42.6764336
   8.4008923  59.0463638  42.0805206  65.6923294  17.4195747  75.6034393
  65.2049408  17.3395348  74.7835083  66.5177841  17.8338184  75.3519363
  37.3283806  70.1445389  25.3435764  37.8892403  70.8866653  25.1179523
  37.4586372  69.5201721  24.6298275  22.4903908  70.6396790  57.8695793
  21.9601879  71.4297562  57.7651672  23.3663483  70.8996506  57.5843658
  47.5233345  40.9363937  11.4725437  47.8470650  40.1038246  11.1286535
  48.2122345  41.5666656  11.2618113  26.2121506  57.4381485  36.9357185
  27.1644001  57.3963699  36.8479118  25.9652729  58.2457390  36.4850769
  83.8387451  14.9459028   6.5635691  84.2182922  15.6111317   7.1377206
  84.5929489  14.4645090   6.2234602  57.7470131  66.6955261  71.0954514
  58.0389252  67.3112106  70.4231796  57.3067284  67.2423630  71.7461014
  27.5834007  28.4902573  16.8404751  28.2396965  29.1220360  16.5465946
  27.6560802  28.4958401  17.7948971  43.5108337  48.6900787  87.8725739
  42.9198837  48.6155052  87.1232758  42.9459229  48.9578400  88.5974274
  51.6910515   6.0814352   4.9780340  51.2774124   6.0241013   5.8393402
  50.9971886   6.3981891   4.3997164  13.3622303  47.7462654  64.6716614
  13.2137518  46.8481026  64.9674454  13.6400652  48.2147980  65.4587555
  62.4551811  69.9167099  32.0539360  62.6963844  70.5052567  31.3386269
  61.4989548  69.8843384  32.0253639   8.8402586  47.4071808  81.9626465
   9.0209293  47.7298317  81.0797653   7.9330635  47.1040688  81.9259033
  77.1627655  58.0642395   6.1434765  76.9441376  57.4805984   6.8699751
  76.3155823  58.3222466   5.7802386  65.1680069  65.0439606  55.4863968
  64.2715073  64.7735443  55.2879181  65.0865250  65.5858612  56.2712135
  47.7579575  27.0057316  86.1339111  48.4065247  26.4782295  86.6001053
  47.1565208  27.3039169  86.8162537  49.5434189  46.0217705   6.4464536
  48.8493919  46.2128258   5.8155370  50.1526337  46.7551994   6.3617697
  84.0689926  40.5170059  79.8426819  83.6905975  41.3806381  79.6777725
  83.7751694  39.9820137  79.1053238  48.3259392  60.0236130  21.6827984
  49.0441399  59.3983231  21.5857086  48.6993866  60.7393379  22.1971016
  38.4660606  27.0827675  70.0560379  39.3308983  27.4745293  70.1777267
  37.9711571  27.7414532  69.5687637  23.5292244  50.0127640  83.5679169
  24.4491634  49.7798042  83.6931152  23.5197544  50.5249214  82.7593155
  45.1085243  12.2133093   8.6290350  44.4438896  12.2182913   7.9402165
  44.8864136  11.4560127   9.1707001  62.6132240  15.5435505  36.9914627
  62.4919052  14.6873026  36.5811539  62.4972534  15.3792830  37.9273033
  82.7257614  43.4228859  78.9296875  81.9178543  42.9221573  79.0427246
  82.6445541  44.1508675  79.5458755  66.5199585  58.2913628  53.2578125
  65.9870453  58.9684448  53.6747055  66.2487335  57.4776611  53.6827354
  78.6117020  39.2629509  12.9875145  77.8194199  39.6324158  12.5976143
  79.1385956  40.0252838  13.2272253  73.4357681  61.4104271  18.5406551
  72.6319046  61.4116135  19.0603085  73.1640167  61.7248764  17.6783867
  61.3969727  25.7024632  60.3888626  61.2295990  25.0299911  61.0491638
  61.6160011  26.4852295  60.8943672  14.8518572  54.0928764  37.9612274
  15.3033972  54.2750893  37.1371269  15.4396601  53.5009270  38.4306068
  48.6420822  33.4059219  66.3791046  49.2705612  33.6643028  65.7049484
  49.0341110  32.6349411  66.7891541  82.1789474  44.6362572  52.5676804
  81.9899368  43.7549400  52.2455215  82.4596405  44.5051346  53.4733543
  65.9495621   1.6367396  75.0365601  66.7051849   2.2055528  74.8891983
  65.2702866   2.2225955  75.3706131  21.1092834  41.5870819  57.1798134
  22.0378399  41.7709312  57.0376282  20.7846203  41.3157959  56.3211899
  33.0744781  45.0193520  83.2878113  33.1824341  44.4380684  82.5350266
  33.9578514  45.1177483  83.6430664  77.1518860  35.6882782  32.7075920
  77.0659409  36.5282097  33.1585426  78.0565186  35.6757164  32.3950043
  73.2944489  63.5349808  13.0746889  72.5688705  63.0173912  13.4237871
  72.9309692  63.9655876  12.3009377  59.1767426   3.3472977  51.3542938
  59.6122398   4.1995435  51.3701820  59.6813850   2.8321531  50.7248535
  15.8857794  16.8429623  30.9524269  16.3128300  17.6927834  30.8444290
  14.9925146  17.0563526  31.2221947  16.0791111  56.4936409  62.0209846
  16.9298496  56.6293564  62.4381828  16.1855087  55.6868935  61.5169334
  80.6802673  71.0752487  86.0604324  80.6120834  72.0257187  85.9699402
  81.5952454  70.8803787  85.8577499  75.6860580  39.5403328  43.4517937
  75.2206802  38.7693825  43.7762871  75.0986328  40.2719879  43.6411209
  21.9975605  28.8186321  82.7482147  22.7967472  28.8990936  82.2275848
  21.5113583  29.6228905  82.5665283  39.0611954  38.4711647  36.9738235
  39.9829597  38.2287903  37.0623512  38.6185417  37.9886360  37.6720047
  16.6252441  43.6326256  56.6149750  17.3328724  43.0429573  56.3546219
  15.8364544  43.0917168  56.5767479  59.3840904  62.8579369   7.3173795
  58.5416107  62.8406754   7.7714334  59.8369026  62.0718498   7.6227551
  73.8016586  30.0466595  52.8059883  74.6484222  29.7142010  52.5081825
  73.6199646  29.5556660  53.6073265  39.1581841  39.8389359  72.2784119
  39.9168320  39.5557899  72.7888260  39.4440269  39.7721481  71.3673325
  22.1471157  50.3152313  25.4714489  21.8430595  50.1568069  24.5777588
  23.0005341  49.8838501  25.5140991  84.5865326  41.1879616  33.5902100
  84.2973709  41.8460426  34.2223091  85.3533020  41.5788651  33.1713066
  37.9890900  66.6436768  42.6068687  38.2754822  66.2005234  43.4055099
  38.1016846  67.5751648  42.7962875   5.6265459  37.2772675  85.0701370
   6.4821591  36.8982315  84.8689041   5.0216269  36.8313332  84.4773026
  73.0136337  10.0585604  72.7922516  73.4766769  10.7925358  73.1961136
  72.0871048  10.2528782  72.9337234  69.4652405  38.6728859  14.1054230
  69.7498856  37.9361038  14.6461325  68.5203552  38.7246971  14.2494335
  50.6306190  24.1605873  69.1703415  50.9515800  23.2999706  68.9009857
  51.3988457  24.7293472  69.1196594  14.9522200  31.2788239  16.7104702
  15.8014574  31.7041893  16.5917645  14.8384295  31.2319374  17.6597252
   5.8846874  21.4748383  77.0186386   6.4889355  21.1806278  77.7002258
   6.1138897  22.3930931  76.8754501  48.6492195  26.0476112  33.2743721
  49.5312347  26.4169445  33.3176804  48.0685501  26.8011837  33.3801155
  67.4671021  61.1898575  23.2672119  67.3427963  61.0511055  24.2061100
  68.4145050  61.2760353  23.1611996  25.3854027  34.4296303   9.1493874
  24.4992371  34.4897270   9.5062189  25.9563560  34.6300087   9.8910704
   6.3747787  34.0846519  10.6832876   6.9904995  34.7880363  10.8891182
   6.8951588  33.2839546  10.7490244  68.9441376  32.8998489   2.7089877
  69.7742844  32.8530273   2.2347531  69.1616211  32.6263733   3.6001341
  38.9326363  12.7762461  69.0286865  38.5932312  12.1725702  68.3679199
  38.9505043  13.6266012  68.5895844  83.4202499  15.8077936  53.6538315
  82.7705994  16.5088959  53.7052193  84.0637589  16.1235771  53.0194778
  59.9501457  34.6333389  32.3352623  60.8094940  34.7086143  32.7500954
  59.3294373  34.6610909  33.0634003  54.1393280  61.0984688  12.1194391
  55.0509758  60.9172516  12.3481140  54.1691628  61.3482780  11.1958923
  39.9348526  46.7812538  33.2159271  39.3146591  46.4709320  32.5561600
  40.7544823  46.9015350  32.7363777  61.2554932  64.4741135  41.3368988
  61.3281975  64.1096268  42.2189941  62.1431847  64.7607651  41.1222725
  72.2287674  14.8070698  69.8006973  73.0013580  14.2653751  69.6397705
  71.5007553  14.1859274  69.8210297  53.6633644  61.7812004  78.1276474
  53.2883377  62.6591415  78.1969910  52.9187431  61.2188377  77.9142914
  22.5906525  54.7907753  80.9093399  23.2299137  54.1372604  80.6256256
  22.8787079  55.0424271  81.7867966  29.8102474  33.4114990  42.7445259
  30.1344376  32.9851837  43.5378647  29.8753281  32.7382889  42.0671883
  26.2216034  26.9763279   7.3750315  26.5744743  26.3265095   7.9828539
  25.3709316  26.6233196   7.1143079  20.3831367  38.9392242  38.7598915
  20.3817520  38.3392296  39.5057030  21.0310478  38.5722122  38.1584396
   9.1631718  11.7338085   1.8317333   8.6913700  11.2829676   1.1314636
   9.7440519  12.3427773   1.3756986  67.1020355  10.3420849  56.4259453
  67.9608078  10.7543917  56.5195198  66.6370468  10.8967018  55.7995148
  47.7104149  16.6754684  48.4156265  48.5396919  16.7917385  48.8793221
  47.6099472  17.4757690  47.9002075   2.0816422  15.8884602  80.8207321
   1.3103541  16.2187214  80.3600006   1.9809233  16.2092934  81.7169189
  35.4776154  50.3320465  85.0376816  34.9568901  51.1119194  85.2297058
  36.3272667  50.5056229  85.4429016  34.0331955  69.5254517  82.4728012
  34.4325485  70.2307053  82.9820862  33.1013680  69.5738525  82.6863098
  77.3750916  10.4804459  50.7030716  77.7179871  10.0198326  51.4688988
  76.4261627  10.4804935  50.8286133  52.9838982  11.6921997  46.7114067
  52.1422882  11.2368631  46.6870918  52.7531166  12.6185293  46.7812881
  57.0678711   3.1830633  48.2046394  56.6571846   3.9144628  47.7435303
  57.0244484   3.4279623  49.1289597  38.0097923  43.3914948  27.8800983
  38.3388748  44.2681618  28.0785809  38.7813148  42.9067688  27.5868111
  45.1516342  65.5941849  26.9407158  45.5915108  64.7673111  27.1382332
  45.6430664  65.9568176  26.2036800  16.3722706  18.0329609  83.4671631
  17.0412998  17.7225189  82.8570404  16.7650471  17.9174538  84.3323898
  16.1793919  11.4222898  21.9522438  16.9910336  11.6270866  22.4164944
  16.4509449  10.8458614  21.2379456   2.9251153  58.4509392   1.6776631
   2.7229354  57.5571251   1.4011685   2.0954230  58.9209213   1.5942322
  34.4417458  11.2085447  14.7444420  33.9092484  10.7953501  15.4241104
  34.1390228  10.8107653  13.9281321  74.9001846  48.2360191  64.0188751
  75.5591049  48.4445038  63.3566093  74.8702087  47.2794113  64.0340805
  31.3363342  69.3289871  43.0440254  31.5136929  68.3953857  42.9292603
  31.7149315  69.7418900  42.2678757  64.9273682  64.8500137  68.6766891
  64.8913269  63.8945503  68.6317596  65.8592529  65.0579834  68.6090088
  83.6499710  27.8927345  28.8822021  83.1031647  28.6130867  29.1957645
  84.5343323  28.2579308  28.8542862  16.8548794  29.3707447  18.2119446
  16.8564339  29.2183647  19.1569366  17.6001186  29.9524155  18.0619087
  26.9625015  55.1020622  84.5374908  26.9622269  55.8757820  85.1010361
  27.8535347  55.0588188  84.1904755  42.9192009  45.9370651   0.8711317
  42.1210213  46.1632080   1.3486242  43.6154938  46.0004997   1.5248796
  80.4012070  45.2923851  20.7738876  79.5412216  44.8727150  20.7969112
  80.9105759  44.8314476  21.4404564  59.9194679  35.5300789  42.6382370
  60.1231384  36.4573479  42.5160675  59.9145889  35.4090080  43.5877380
   5.7672424  58.9880600  26.8831120   6.1931424  59.6930084  26.3953705
   5.0826864  59.4262352  27.3887005  49.6171265  51.8551369  24.1628304
  49.7462730  51.5196686  25.0499687  49.7109222  52.8037834  24.2494774
  76.1459427  16.2144547  53.8951416  76.4701996  17.1008015  53.7355118
  76.6139145  15.9257040  54.6786346  70.9512787  11.3994799  53.6260033
  70.9800110  11.2293959  54.5675316  70.1141968  11.8427896  53.4881363
   9.6791201  38.9104042  56.9224739   9.7037830  38.2375641  57.6028481
  10.3225603  39.5603523  57.2049370  81.3567352  58.8782120   2.1077542
  82.0340424  59.1374893   1.4830515  80.8253860  58.2388496   1.6332892
  26.6402092  52.1586533  86.1758652  26.9240990  51.3627853  86.6255722
  26.1834736  51.8431664  85.3960648  65.4682236   8.2368526  56.1619682
  65.9958954   9.0259333  56.2850380  64.7380753   8.5203867  55.6117630
  76.5334473  66.0077591  31.4240360  76.4424973  65.7600784  32.3441544
  77.4746552  66.1312637  31.3011532  27.9263306  26.7827435  79.9961319
  28.7540855  27.0669422  80.3837967  27.9216557  25.8325138  80.1113434
  80.3795166  35.4669304  60.3743820  81.0668869  36.0029030  60.7699738
  80.6328049  34.5659981  60.5753746  71.7950211   1.4169221  46.0391045
  70.9010162   1.1250378  46.2174187  72.1554260   0.7449870  45.4604492
   6.3560233  68.1490784   0.9517674   5.9477973  68.1523819   1.8175459
   7.2393756  68.4856644   1.1021931  40.7456856  67.0433121  69.3748932
  40.4276047  66.1442413  69.2928543  41.3550148  67.0154266  70.1125717
  37.6160164  29.5629330  73.0640793  36.8865318  28.9790249  72.8563919
  37.4902954  30.3173523  72.4885101  42.1164742  54.5367928  66.9673004
  42.8940697  54.0248146  67.1896973  41.9443016  54.3246040  66.0499344
  77.2312241  21.2738762  80.3551865  76.4420547  20.7610359  80.5296478
  77.7339172  21.2239532  81.1682281   7.5861368   2.7831573  68.4638824
   7.5838323   1.9694585  68.9679871   7.1347775   3.4137881  69.0249634
  58.9520454  43.1370125  75.1976395  58.9703789  43.4547997  74.2949142
  58.0758018  43.3595428  75.5121460   5.1288328  59.6907387  51.2060661
   4.2715859  59.3286438  51.4302292   5.6828904  59.4769020  51.9567490
  13.8191290  27.7409515  11.2985487  13.7571287  27.1359406  12.0377026
  13.3649778  27.2938671  10.5843401  16.9261971  36.5411835  83.6897202
  16.6248379  36.4142113  82.7901077  17.3163929  35.7014809  83.9323654
  22.3160076   6.2335181  64.3104782  22.1627846   5.7736707  65.1358871
  21.6860428   5.8484912  63.7012787  39.6859474  14.0966034   7.3472242
  40.0346260  13.8280468   6.4972053  40.3232269  13.7689724   7.9818616
  84.8024445  16.1116886  27.4065647  85.5478210  16.3169289  26.8421898
  85.1962204  15.7594604  28.2047558  70.1995544   2.8953943  42.5975037
  70.9053879   2.3295219  42.9102707  69.4629669   2.7023487  43.1775017
  26.7182865  16.7370701   2.0310771  26.9178085  16.1424179   2.7541337
  26.6534519  17.5995274   2.4411943  77.4933777   5.8446813   2.7181010
  78.3602066   5.8622127   2.3124726  77.6253815   6.2346277   3.5822473
  71.3311005  49.4876366  81.4265442  71.5349350  50.4151192  81.3062820
  71.7329178  49.0544968  80.6734390  40.9978752  53.9653549  39.2640457
  41.0704002  53.2637596  39.9111443  40.1460533  54.3653984  39.4389687
   9.1141281  23.4701958  66.9754868   8.7562275  23.2428284  66.1173248
   9.0599909  22.6586895  67.4802246  56.8013115  38.6070938  34.6621704
  57.7344551  38.4504509  34.8068771  56.7521667  38.9555969  33.7720222
  34.2308655  34.2034798  22.9556713  35.0692635  34.5884552  22.7004967
  34.4464493  33.3056259  23.2078819  76.4022293  53.3192711  11.4930096
  75.8144989  53.8630104  12.0175505  76.9700851  52.8925018  12.1346006
  29.0871601  21.0582485  70.0480194  29.8322906  20.4755154  69.9016113
  29.4822865  21.9087906  70.2395477  66.3177414  61.6153221  31.5220623
  66.0023346  61.7092552  30.6232147  67.2705307  61.6701660  31.4485226
  39.4771538  19.8800526  23.4727230  40.2601624  20.1967258  23.0223351
  39.1402740  19.1849861  22.9073696   9.3901052   9.0446234  11.0675640
   9.2634230   8.7088499  11.9549417   9.7404099   9.9265547  11.1929283
  12.0069218  58.3109932  10.0017214  11.0670576  58.4176445  10.1483974
  12.0675974  57.6693459   9.2940245  70.9491119  40.6536751   6.1944857
  71.5663223  41.3200073   6.4966288  70.2194214  41.1522408   5.8267813
  48.6914825  30.8405571  88.1451950  48.9509621  29.9260426  88.0330887
  49.4073753  31.2331257  88.6448135  10.6792307  23.2255535  76.6268082
  10.9598083  22.4189034  76.1945801  11.3585939  23.8633537  76.4079285
   4.8970342  12.1683130  57.4943810   4.9037685  12.6873589  58.2986069
   4.0604706  11.7036448  57.5162125  25.2130775  48.4087868  35.8153267
  25.0072784  48.8124199  34.9721413  24.8891182  49.0326881  36.4649582
  71.6646576  54.7339592  41.9115410  71.8897171  54.1712112  41.1706657
  70.7742996  55.0314751  41.7245331   1.5780481  44.5773201  68.9720306
   2.4190071  44.9832306  68.7616577   1.8091190  43.7854118  69.4575424
  63.5618172   0.8285837  36.8515549  63.4846764   1.7085508  37.2202530
  63.7552986   0.2696753  37.6041641  76.6094437   3.7739778  53.7681236
  77.1265030   3.8667164  52.9679489  77.2593765   3.7291374  54.4694176
  36.9235153  44.7243958  76.3646774  36.1915169  44.3538437  76.8577271
  36.6076393  44.7660713  75.4620590  77.4564133  63.8155899  49.4215736
  77.5900269  64.5529709  50.0170975  76.9077606  63.2057381  49.9148216
  17.4924526  63.8721504  84.2157440  17.7926960  64.7305374  84.5144958
  17.5009079  63.3280411  85.0032120  69.3242569  16.0031319  49.2987938
  69.8630753  15.3799658  48.8113823  69.8905640  16.3052921  50.0088806
   6.3887382  67.9482880  52.1680679   5.4771795  67.7042084  52.0077057
   6.3728795  68.3884354  53.0179214  25.8032608  40.4101257  59.5209579
  25.5870514  40.1240883  58.6334496  25.2712097  39.8525124  60.0886078
  51.9107056  36.7988205  69.4315109  51.7709999  36.0217934  68.8902664
  52.8397751  37.0021896  69.3233185  33.1419754  66.4198074  85.6560974
  33.4342766  65.5374451  85.8846207  33.3635368  66.5130692  84.7295761
  68.0012512   1.6430275  71.9402542  68.2875366   0.7898890  72.2664871
  68.7920685   2.1821640  71.9534302  24.0416985  29.4505634  80.5026169
  24.5619144  28.6489944  80.4469986  23.5955963  29.5057011  79.6575241
  55.3025780   5.7237105  34.2294464  54.5987091   6.3649120  34.1311340
  55.1300392   5.3061490  35.0733109  68.8977814   8.0306492  83.1783066
  68.2863617   7.4413056  82.7366333  68.3767853   8.4444332  83.8664780
  49.5252838  10.9007874  50.0012093  49.8108940  11.6485710  50.5260696
  50.1964226  10.2343979  50.1486244  12.7655659  56.0697365  44.7262115
  12.5240755  55.1695213  44.5081978  12.1638241  56.6098862  44.2139816
  68.0947495  46.3100281  51.3655167  67.8242950  45.3989449  51.4795952
  68.9391174  46.3670158  51.8127594  30.4499187   4.4422808  72.2478943
  30.2122440   3.7222073  71.6637421  31.3743954   4.6064658  72.0618362
  14.5876350  57.4897728  72.3485184  14.5332499  56.9620628  73.1452560
  14.4145451  56.8709335  71.6390686  84.6547470  66.9829330  71.7403641
  85.3211288  67.4509964  71.2372971  83.9860077  67.6426773  71.9241028
  34.8826256  45.9471016  11.5764523  34.8948631  45.0725594  11.1875305
  35.7558861  46.2986107  11.4029903  47.6328735  65.5418243  66.9985275
  46.9804802  65.1904449  67.6044464  47.4854889  66.4875412  67.0099030
  47.8804131  64.4538193  17.3323860  48.3620796  63.8747520  17.9230728
  47.6403427  63.8956146  16.5927906  66.9492493  27.9225883  86.3310699
  67.2554245  28.3862228  87.1105194  67.2394409  27.0196037  86.4600754
  11.6447001  49.7804985  79.6155701  11.0175085  49.0799713  79.4363251
  12.4477692  49.3243980  79.8671341  11.9616003  69.7748947  21.4077892
  12.0380936  70.7246094  21.4995995  11.5136032  69.6504593  20.5711021
  67.2259521  49.5383072  85.0768051  67.6632690  48.6868782  85.0841141
  66.2922287  49.3281097  85.0911865  74.8971710  62.3536797   5.5720367
  74.5183563  63.2210579   5.4292474  75.2049484  62.3729591   6.4782000
  60.2463341  36.6632957  50.0871582  59.8621826  36.8644333  50.9405060
  59.5818520  36.1360474  49.6436462  83.0013123  60.4625587  62.5259590
  83.7093658  59.9261665  62.1693497  82.8665695  61.1475143  61.8710442
  41.0137329  38.5614967  45.7738304  41.9535141  38.4742928  45.9333382
  40.6264763  37.7969704  46.2001610  19.9920082  60.9469833  21.4023266
  19.1485596  60.9427223  20.9497700  19.7913322  60.6381454  22.2858315
  12.7022429  28.9633675  15.3791361  13.0941563  29.6875896  14.8911428
  13.2291050  28.8983955  16.1756458  21.8703861  58.4480324  48.4909554
  22.6587315  58.7349701  48.9518356  22.1279926  58.4213982  47.5694542
  47.8286591  23.9298210  40.8554993  47.0811996  23.8931942  41.4523201
  47.8174362  24.8232441  40.5121307  17.8930321  51.2136116  79.7457199
  17.9640789  51.4958801  80.6575928  18.3149319  50.3546066  79.7273331
  22.2561474  56.5602493  11.0720549  22.4385262  56.1141357  11.8990688
  22.9641132  57.1982689  10.9828796  48.2693748  52.4145126  54.9606438
  47.5859604  52.2519913  55.6108475  48.6815071  53.2302628  55.2451248
  50.8674507  27.1941967  11.0442963  51.7475243  26.8288441  11.1349802
  50.3760948  26.8195629  11.7753553  49.1367912  55.0671997  54.6859093
  48.3858223  54.8619919  54.1289864  48.7806664  55.6366043  55.3679581
  29.6849766  26.6485424   9.9159164  30.3270607  27.3583508   9.9273939
  28.8552780  27.0725441  10.1351318  45.5074158  63.8810463  42.0888596
  45.0528221  63.2103691  41.5791817  46.1096535  63.3899460  42.6477509
   7.9419045  37.2174072   4.5888395   8.1753807  37.9826927   4.0634274
   7.7211747  36.5436554   3.9457474  51.2327347  24.0482578  84.7169571
  51.9133034  24.3125153  85.3360138  51.0603447  24.8353043  84.2001724
  59.7816544  50.3858223  26.2726574  60.6781998  50.3589973  25.9384079
  59.5308304  49.4661674  26.3595753  24.6344299   9.1071100  88.8230667
  24.2735500   8.6621742  89.5898972  24.2188835   9.9693851  88.8288422
  19.2388840   2.5342915  28.8414173  19.5441437   1.6273314  28.8196926
  19.9848480   3.0456519  28.5279217  78.6183243  23.7638226  70.6235123
  77.7368927  23.9723091  70.3139267  78.7797699  24.3920174  71.3274612
  21.0808735  52.6287003  78.3911133  20.8673992  52.0383682  77.6684952
  21.8412590  52.2272568  78.8116913  60.2785606  51.2896614  29.1063480
  60.9811440  51.3820038  28.4628563  59.5274391  50.9828339  28.5984993
  44.5661316  29.5399227  69.8958282  45.5214500  29.4938354  69.9342270
  44.3153191  28.8264961  69.3090134  55.6198120  58.4605980  10.6294889
  55.9327507  59.2820320  11.0083694  54.8286209  58.2535133  11.1268444
  20.1605644  16.1793137  86.5730591  20.4145813  15.3629589  87.0034943
  20.7507439  16.8374023  86.9402618  69.4177704  53.8697853  89.1976547
  70.1796341  53.3865356  88.8778610  69.6439285  54.7900467  89.0627213
  50.1183434   3.1111104  69.8420563  50.2016220   4.0105109  69.5252380
  49.1743011   2.9646318  69.9017029  63.2674751  56.1093979  76.6880112
  63.2527122  57.0633507  76.7653809  63.9613190  55.8313179  77.2859116
   4.8144102  39.9080353  17.6775131   4.5805802  40.8361549  17.6651592
   3.9819751  39.4529915  17.8048611  68.4887466  70.0475693  66.0885620
  67.6523514  70.0112534  66.5526276  68.7898026  70.9483490  66.2076340
  28.7102604  43.2892609  42.0782890  28.2750893  43.9388924  41.5261688
  29.3980694  42.9240646  41.5217056  83.1725464  27.2574883  53.3597145
  83.4186630  27.0035934  54.2492065  83.2811203  26.4585190  52.8438759
  53.7509537  42.3356018  74.6891785  53.2103233  42.1764488  73.9154739
  54.6475182  42.3570786  74.3545990   5.0149789   4.9915628  61.5391731
   4.2764878   5.6005154  61.5328903   4.6730804   4.1962385  61.1307640
  71.5855789  68.3528442  83.4091644  71.6173019  67.6392517  84.0463562
  71.4860229  67.9148941  82.5638657  56.0010948  71.3561096  69.3728256
  55.5574112  70.7071152  68.8267746  55.2922440  71.8130035  69.8256149
  83.7765045  24.1467094  42.5332642  83.0462341  24.7526646  42.6587715
  83.3649673  23.2844563  42.4750404  27.4582520  55.3581886   1.1120944
  27.5110741  55.2093201   0.1680184  26.8024597  56.0486259   1.2093705
  60.1924934  62.4310074   4.5774312  59.7383423  62.5538864   5.4110241
  59.6049538  61.8765144   4.0640426  82.3461075  66.7483368  21.7915173
  81.5688934  66.6176453  21.2482891  82.0299683  67.2447205  22.5464325
  81.3619232  25.6830978  71.7112656  82.2437057  25.3587112  71.8941956
  80.8032837  25.2256660  72.3396912  26.5108166  28.5251541  72.3424377
  25.7564697  27.9370937  72.3053055  26.5743885  28.7752666  73.2641983
   2.6748655  12.4158907  74.9786606   2.7137861  13.3235159  75.2802124
   2.5664053  11.9020615  75.7789383  63.1141129  71.3606186  43.7444496
  63.9590721  71.0422745  44.0621567  62.5047493  70.6452942  43.9267159
  26.2323246  34.2392731  61.6580887  26.8683357  34.8716354  61.9925117
  26.6131477  33.3853340  61.8630104  31.2185802  58.0435944  48.8415871
  31.6844921  58.3334961  49.6258774  31.5186596  57.1452675  48.7030602
  50.8240776  39.9844170   2.7093601  51.5424767  39.9011879   2.0822949
  50.4463959  40.8450661   2.5280428   6.9351606  46.7097054  55.6943550
   6.0647345  47.0613899  55.5075150   6.9847207  45.9057388  55.1772385
  62.6915703   5.3338089  29.6581383  61.8078003   5.6059513  29.4109116
  62.8747253   5.8177438  30.4634285  10.0693331  53.9145355  12.7265005
  10.9555788  54.2139854  12.9293041   9.9460058  53.1411705  13.2768908
  50.2080269  64.8694382   4.6206665  49.8224487  65.0587311   3.7652547
  49.6648026  65.3554611   5.2410879  66.3076553  67.5156021  78.5906830
  66.2002029  68.0079269  79.4045029  65.7543411  66.7427139  78.7034912
  77.2052231  20.5076637  62.7334938  77.4932785  19.8084335  62.1466942
  76.2583313  20.3864861  62.8037720  33.8476982  52.8202553  42.9396019
  33.1615715  53.3707504  43.3169861  34.6652336  53.2472534  43.1956139
  78.6620026  35.1508751  20.6595707  79.3979721  35.3767967  20.0907612
  78.7467422  34.2074738  20.7975693  56.6396675  46.2401199  47.6530266
  56.1792183  46.3096275  46.8167305  55.9488792  46.3025398  48.3126831
  11.7636375  51.3563576  41.8481712  12.5429573  51.9091454  41.7905617
  11.8900452  50.6927376  41.1700401  82.8566818  31.4044323  26.6753960
  83.6963043  31.8050442  26.4500599  82.7953033  30.6392059  26.1036491
  12.0638218  39.2201118  50.2195816  11.3325520  38.7054176  50.5610008
  12.5364180  39.5113487  50.9993668  52.6418037   0.4949151  49.1220131
  52.4385567   1.4026902  49.3475494  51.9404526   0.2335827  48.5253181
  38.8054848  67.6456985  88.6214218  38.6007767  68.3481979  88.0043182
  38.3279076  67.8793716  89.4173737  80.6176682   3.0806844   9.9816971
  80.2324600   3.6617377   9.3257828  81.3261948   3.5940382  10.3698816
   3.0210824  70.7271347   6.4067726   2.1839495  70.7845535   5.9461827
   3.6799409  70.8127670   5.7177124  70.4575348  11.3076191  78.7868881
  71.3557739  11.4356508  79.0918655  70.5529175  10.9602909  77.9000397
  65.8541031  40.8412209  38.4917679  65.0427628  40.3345490  38.4564667
  66.4543839  40.3728905  37.9116287  47.3185234  45.0279694  87.3826294
  46.6372414  45.6759720  87.5620193  47.4091492  44.5424652  88.2025757
  32.4819336  43.5223389  61.3271027  32.0212593  43.0942001  60.6055031
  33.3071518  43.0431786  61.4022865  20.3833332  10.9122801   3.3325198
  20.9686852  11.3704166   2.7294390  20.8360882  10.9428263   4.1753192
  11.3135576  18.3243599  82.8580856  11.8182983  18.4180546  83.6659775
  11.0369778  19.2153187  82.6437759  70.8472672  50.1349716   8.7694387
  71.5844574  50.3709221   9.3325634  70.2091446  50.8356094   8.9041224
  33.8285637  48.3910789  27.1507683  33.6542854  49.0444107  27.8282757
  34.5023880  47.8267593  27.5298939  15.8447781  23.0732155  81.2647400
  16.5732021  22.6187801  81.6879654  15.4715452  22.4241009  80.6684341
  16.9955845  24.8602810  76.3686523  16.3635960  24.6262512  77.0483932
  16.4635048  25.0033360  75.5859222  20.5332069  32.2919846  70.9877472
  19.8716202  31.8376007  70.4661407  21.3443832  31.8142433  70.8145752
  72.4760361  50.5378609   3.3958135  71.9826889  50.8184052   2.6250110
  72.8683853  49.7035522   3.1384668  78.9969330  37.3707581  23.6533604
  79.4714508  37.2595329  24.4771881  79.6823425  37.4213295  22.9871120
  66.7516785  17.6841640  39.6867981  65.8250427  17.6810951  39.4468498
  67.2156601  17.6341667  38.8510628   3.6865711  27.2330914  57.9468269
   3.4836414  26.3060799  57.8215256   4.6277986  27.2962933  57.7845650
  21.3887463  63.1476746   7.4289904  21.4921398  63.6368332   8.2452421
  21.3304501  63.8215332   6.7516799  85.1555176  13.8286848  55.0819016
  84.4301758  13.2684870  54.8057060  85.1603241  14.5448332  54.4468117
  42.0356789   9.5987282   0.8780841  42.7572479  10.0656376   0.4566934
  41.2690010  10.1494560   0.7195403   9.4827814  63.6565781  19.3278809
   8.8754025  63.3034515  18.6777878  10.3479443  63.5410728  18.9349651
  54.7374954  14.4438829  59.2420044  54.8745346  15.3911266  59.2285500
  54.7261124  14.2167072  60.1717873  47.5744934  45.1893730  56.5107994
  47.5221062  44.8784180  55.6070328  48.3739815  45.7150612  56.5372581
  20.8899288  33.6186485  88.9200363  21.0969696  33.7700768  87.9978485
  21.4133511  32.8542061  89.1606293  50.5699081  18.4249859  81.0333786
  51.2773399  18.8058014  81.5537186  50.0945549  17.8660679  81.6480942
  44.0758018  66.9040298  52.5165329  43.7477264  67.5273743  51.8684273
  43.6017151  67.1212769  53.3192024  74.8486099  59.5344963   5.6061873
  75.0167999  60.4653816   5.7524557  73.9041977  59.4394264   5.7297902
  29.3943558  54.6746292  80.6025925  29.0534649  55.4772339  80.2078094
  30.1467724  54.4411354  80.0589142  64.1726761   9.4531422   1.1215959
  64.6964722   8.7380276   1.4828176  63.7545357   9.8527241   1.8843040
  44.2799072  14.7573729  84.6111755  44.9723511  15.3818617  84.3949280
  44.5098152  14.4374151  85.4835358  17.8399944   0.3673740  54.4985313
  18.0207481  -0.3522425  55.1032715  18.1659088   0.0576789  53.6534882
  45.9442940   0.3344576  75.4294052  46.0407295   1.2175115  75.0728302
  45.7496719  -0.2115087  74.6676483  79.9208755  27.9500217  72.5589676
  80.6093445  27.4714756  72.0971909  79.1065140  27.6390972  72.1635208
   4.5580273  20.8727779   5.6152806   3.6407597  21.0886745   5.7833304
   4.6524525  20.9509869   4.6659656  65.7520905  25.6751652  44.3433609
  65.9844513  25.0491352  43.6575584  65.8162918  25.1743565  45.1565666
  11.9566059  54.9027290  72.2938614  12.6228333  54.2167664  72.2511292
  11.5716085  54.8087502  73.1651688  77.2477188  61.9153557  22.7795982
  77.5045471  61.6319313  23.6570587  77.8569870  61.4650917  22.1945496
  66.2026443  48.0474396  76.1194687  67.1205902  47.7989540  76.2284164
  65.9088135  48.2717171  77.0024185  48.6788559  10.7955532  10.9691000
  48.3870850  11.7050762  11.0312881  49.1131325  10.7410069  10.1178303
  81.3138580   7.7372723   9.9538507  80.6396713   7.9210105  10.6080217
  81.6845245   8.5946236   9.7445927  84.6888199  29.7684631  58.4135551
  83.9633484  29.8534851  57.7949295  84.8070450  30.6502476  58.7667007
  18.4658680  49.6767731  48.1025696  18.7227631  48.8011322  47.8136215
  18.6173534  49.6711655  49.0476875  83.9140472  58.8359604  21.0926590
  84.6495590  58.3465118  21.4610214  84.1179962  59.7521439  21.2804031
  42.6525421  12.9056091  58.4328499  41.8118019  12.4652596  58.5572548
  42.9666939  13.0772400  59.3205910  31.6923866  66.8957748  52.4934464
  31.2292023  67.1759262  53.2828827  31.2774029  66.0672302  52.2535820
  22.3613033  46.2779465  68.8446198  21.7130737  46.8290977  68.4061432
  23.0178738  46.0987244  68.1715469  71.5414276   5.0684562  23.2969284
  71.3835449   5.1901979  22.3607235  70.9719696   4.3395066  23.5430584
  75.9078064   7.3106556  78.5450439  75.2678452   7.3843451  79.2530365
  75.3904190   7.0603337  77.7796173   0.0463085  34.1445312  23.8980427
   0.9275419  34.1074448  23.5261784  -0.4026613  33.3852654  23.5263271
  14.2072535  36.6457367  50.0168343  13.5452719  36.9777985  50.6232567
  14.8636723  36.2355499  50.5799446  11.6511145  64.5667648  58.5774345
  12.5791512  64.8012009  58.5818672  11.1981430  65.3775864  58.8089867
  54.9051857  57.8216629  78.1589355  55.7149315  58.1754570  77.7910080
  55.1302910  56.9281998  78.4183273  60.3660049  63.2474442  73.5283356
  59.5143585  62.8151932  73.4644012  60.3018036  63.9926758  72.9310532
   5.7064376  12.4566803  53.3113976   5.4558682  11.5911331  52.9884834
   4.9809675  12.7204027  53.8774147  14.7588015  34.2468224  85.3910141
  15.5964451  33.8043823  85.2537842  14.7780542  34.9888878  84.7866974
  74.1535110  67.8579025  31.5923672  74.9232559  68.3915329  31.3949795
  74.4838028  66.9597397  31.6137066  84.2897644  42.2311096  73.1641998
  84.3846588  42.2073364  74.1163940  84.8131485  42.9842033  72.8900757
  14.2918558  44.2429237  87.3290558  13.7374668  43.4638329  87.2854691
  14.6376801  44.3407440  86.4418869  18.0824528  45.9369736  11.2336178
  18.0010300  46.1705475  12.1583042  18.9694996  45.5865898  11.1522989
  42.0494232   4.9151392  43.8961182  41.2248383   5.4004807  43.8690376
  41.9069862   4.1683283  43.3145523  84.3531494  19.3197784  14.0910511
  84.3809586  19.0989246  13.1600943  83.5008163  19.0006580  14.3875637
  70.8017273  22.2093353   0.3496492  71.5868149  21.9422321   0.8276847
  71.0362778  22.1064320  -0.5726463  60.1313057  55.2312851  27.2543697
  60.5601234  55.4875755  26.4378757  59.4708977  54.5918159  26.9875927
  18.6958427  28.7545567   0.2915861  18.3983841  27.8474388   0.2216769
  19.4140129  28.7230835   0.9236245  16.5256062  33.7102470  60.1879883
  16.5447617  34.6095543  59.8606987  15.6901598  33.3604202  59.8783379
  59.3237419  41.0928726  65.3399506  59.8164177  41.0714912  66.1603394
  59.9399109  40.7707520  64.6820679  25.3533821  61.0928307  83.5758972
  25.3110924  60.3161583  83.0180283  26.1128922  60.9424057  84.1387024
  27.3606644  48.5629234  81.6125565  26.4332809  48.6018677  81.3787231
  27.6114216  47.6540833  81.4471207  69.6024399  24.5425949  44.0791702
  69.7047958  24.3941803  45.0192413  69.3127289  23.6982956  43.7335434
  70.9044342  44.7805367  54.9255524  70.3482285  45.3256035  55.4821205
  71.2089233  44.0807152  55.5032845   7.1104898  41.2455521  73.2654495
   6.4642186  40.5660744  73.0734253   7.8317084  40.7779465  73.6866684
  84.7350616  42.0940552  37.2133980  84.6241226  41.3485985  37.8034973
  83.9542770  42.0796356  36.6598740  50.7381630  15.2103395  74.4101868
  50.2365417  14.8787432  75.1549377  50.2468643  15.9759283  74.1123123
  51.5814743  11.1089916  56.6787949  52.1720734  11.6741610  57.1767960
  52.1569786  10.4634972  56.2684746   2.2560346   9.7309618   4.5988679
   2.2133284   9.0467281   3.9308622   3.1411707  10.0868940   4.5209031
  81.7672729  11.5295801  86.8621216  81.6963043  10.7170582  87.3631287
  82.4202652  12.0459862  87.3345261  47.3045044  25.5185070  18.9962959
  46.5995979  25.7506638  19.6008129  47.1209908  26.0283737  18.2072525
  80.0671005  44.8858490  28.2773705  79.4111481  45.4665947  28.6629810
  80.0190048  45.0608063  27.3375263  83.9240646  33.6793671  88.1860199
  83.4281540  34.4735718  87.9871674  83.3354187  33.1603661  88.7340775
  58.1384163  11.1863785  38.8925858  58.2711220  11.7403259  39.6618500
  58.9912720  10.7792168  38.7406349   6.2306423  47.2694473  44.3180923
   6.1741948  48.1563835  43.9625816   5.9954419  46.7018013  43.5841370
  80.2839355  64.9507675  71.3818665  79.4864502  65.3644943  71.0516052
  80.3722229  64.1518707  70.8620529  54.0043602  54.1198273  16.3766270
  53.6318588  54.0906868  17.2578888  53.2512627  54.2605324  15.8028002
   7.2590957  67.9239502  84.2371674   7.1524358  68.4030228  83.4153748
   7.0953183  67.0099869  84.0045929  46.4086342  40.7374840  71.3720932
  47.3011856  41.0369186  71.5450821  45.8856049  41.1256714  72.0735092
  72.7859344   7.1226101  40.0007133  72.1897888   7.0061421  40.7404976
  73.1243896   6.2445903  39.8253136  63.9691467  16.6282291  60.2929344
  63.2972488  16.0278053  60.6158524  63.5976677  16.9940224  59.4901695
  18.1524658  37.2930832  51.5921021  19.0591984  37.5988655  51.5683136
  18.0615330  36.8797684  52.4506645  83.9848328  63.5115662  55.7688675
  83.4742813  62.7136688  55.6312790  83.6156921  64.1417923  55.1501694
  13.2978325  50.1316185  17.9287472  12.5534544  50.5318375  17.4793491
  12.9653540  49.2896194  18.2397594  30.7797832  46.7592392  50.4245834
  30.4561424  47.2118759  51.2034340  30.0576172  46.1885910  50.1617775
   3.6486690  11.4624786  19.2545052   3.1298826  11.2478123  18.4792557
   4.5370588  11.5879946  18.9209766  68.3839645  56.7490501  74.1405563
  69.0811615  56.2691116  74.5875702  67.8174667  57.0610466  74.8462296
   3.8752341  38.8703194   7.0577941   2.9456477  39.0983772   7.0483575
   3.9099932  37.9911385   6.6808724  72.4139862  61.1518440  78.9812088
  71.6966553  60.8634377  78.4168701  72.4799347  62.0934753  78.8224182
  22.3470440  13.7456570  15.1345387  22.2533073  14.1054039  16.0165977
  22.3890457  12.7983789  15.2654333  28.0209942  14.2703514  35.7147446
  28.6275616  13.6242857  35.3529320  27.4495430  13.7649307  36.2928658
  21.6251736  59.3577003  67.6498032  21.8137856  59.7979813  68.4785461
  20.6705513  59.2918968  67.6253815  24.4320068   5.8060279  66.2532730
  25.3418331   6.0672760  66.3953781  24.2501564   6.0547557  65.3470154
  36.5278549  27.1682549   5.7686734  37.2030525  26.8135509   5.1902924
  36.9543190  27.2330551   6.6231685  49.3808708  49.3161163  76.2705612
  48.6246910  48.7580261  76.4521103  50.1164169  48.8651237  76.6850586
  45.8546906  14.9225254   0.6483810  45.9911842  15.7227602   0.1412067
  46.1975098  15.1286974   1.5179794  45.9836845  27.9128036   4.7829289
  46.8110580  27.5413208   5.0890069  46.0587311  28.8490639   4.9673643
  30.6630116  26.1468906  17.9318752  30.5866375  26.8243885  18.6037350
  30.8097954  26.6309280  17.1192284   2.9831657  42.9534416  30.0753689
   3.0415094  43.5554085  29.3334389   3.5900180  43.3119736  30.7229919
  58.7053566  52.0077934  24.4410763  59.0709343  51.4084969  25.0917892
  57.8181458  51.6827965  24.2878799  71.4080887  19.4365692  19.3263588
  70.9218369  19.0332108  18.6072693  71.6778412  18.7005272  19.8756390
  42.8407822  65.0726089  51.0377197  43.0894127  64.1945267  51.3264885
  43.3863373  65.6601410  51.5606079  45.3703423  56.8935013   9.8790350
  45.5374603  55.9778099   9.6558399  45.7980347  57.0153198  10.7266617
  76.4380646  25.6321831  55.6354561  76.4483109  24.6826248  55.7557220
  77.3618546  25.8827724  55.6289902  49.8029442  48.3781204  69.4883194
  50.5816841  48.1294174  68.9903717  49.3470688  47.5518303  69.6484833
  22.6456261  62.9415894  87.2491074  23.1464748  63.6999321  87.5496063
  22.0258732  63.3002892  86.6139069  39.1085091  49.0052490  60.3606339
  39.7416153  49.2919922  59.7024689  39.4324989  49.3752594  61.1818275
  26.7562885  19.4187298  74.2513580  27.4276562  19.0790005  73.6596756
  27.0384235  20.3125019  74.4457779   3.1865013  48.1457405  22.8486843
   2.6671999  47.4973259  23.3241997   4.0257411  47.7126884  22.6925602
  74.6766434  30.5618820   8.0296354  75.5877609  30.7850800   7.8391633
  74.5341187  30.8779030   8.9218521  48.1559448   9.4185543  13.7327576
  48.4395790  10.1844664  13.2335958  47.4767418   9.7526140  14.3186922
  47.4835091   7.3974671  38.2803612  46.7096405   7.3773198  37.7173729
  47.1348228   7.5277419  39.1622200  32.9648972  25.0442142  65.3643341
  33.2032166  25.8126259  64.8457031  32.0077286  25.0474339  65.3713150
  37.3700829   3.9771748  62.9732361  36.9677811   3.2159364  63.3914528
  36.6316795   4.5379210  62.7354202  37.1722031  49.5428696  14.6561060
  37.5159416  49.7693901  13.7919521  36.3025398  49.1832428  14.4812050
  73.2968140   4.0940843  50.5797043  73.3238831   3.4595764  49.8635368
  72.4370270   4.5073962  50.5011406  27.0094051  27.2569122   4.7890477
  26.2857742  27.5625839   4.2420974  26.6399059  27.2099152   5.6708035
  41.7288895   5.0795832  30.5199299  41.5072823   5.4649353  31.3676491
  40.8852119   4.9566598  30.0848122  55.0932846  60.1276016  20.1304703
  54.8266335  59.5126953  19.4470806  55.5478783  60.8262787  19.6599083
  48.9980659  57.0680618  49.1350403  48.2014122  56.5387535  49.1725159
  48.6870651  57.9723129  49.1778870  66.0343781  52.2268181   5.6860132
  66.3991089  51.3504448   5.5628572  65.3928680  52.1226807   6.3887601
   7.1644568  34.5882492  40.2438316   6.6173239  34.8003654  41.0000648
   7.0083566  33.6566353  40.0890427  33.6802597  67.7978516   5.7954502
  33.1902390  68.4966888   6.2287331  33.1071548  67.5079880   5.0856862
  77.9304123   1.5605752  43.0562439  78.7241592   1.7097056  42.5424805
  77.7756729   2.3919261  43.5047340  77.4438553  30.2406540  74.8077850
  78.0795670  30.2744102  75.5226059  76.9599075  31.0634613  74.8785934
  82.8897018  20.8022232  60.7832413  83.5561981  21.1889820  61.3510704
  82.3543625  21.5443535  60.5023727  31.4725151  51.4620972  59.1199112
  32.4142151  51.5638046  59.2580719  31.2684135  52.0667992  58.4065323
  19.1398716  37.0919914  85.5399628  18.8321896  37.1999054  84.6400070
  18.4922047  37.5546989  86.0716248   2.1080072   2.1077638  31.0871220
   1.8298951   2.9107926  30.6466331   1.3107665   1.5820705  31.1525860
  60.5867043  61.0028648  61.6575279  60.5297127  61.9152031  61.3735771
  61.3848801  60.9654655  62.1845474  86.4956512   9.5712032  52.0093575
  86.6387405  10.3687592  52.5189285  86.9380646   8.8850842  52.5091019
  65.4073410  26.2179451   2.2076645  65.7411194  25.3587761   2.4658313
  64.9489517  26.5399303   2.9838314   2.7073579   4.9397602  25.3088360
   2.7723184   5.2225342  24.3966675   1.7798846   4.7372293  25.4313354
  37.9995461  39.0934982  12.9304390  38.0389481  38.4078674  13.5972157
  37.4038887  39.7481346  13.2949543   0.0211889  69.6778412  52.6815186
   0.5876534  69.7450256  51.9128571   0.1590632  70.4992752  53.1531830
  78.9962997  35.8733559  38.1536255  78.3177643  36.5415611  38.0570908
  78.9869461  35.6554070  39.0856361  27.6652355  20.8082008  20.6886425
  27.4141521  21.6224632  21.1247215  28.4284153  21.0443592  20.1613693
  18.8249969  51.7012138  20.5448856  19.3493862  51.8520164  19.7584343
  18.5915146  50.7738762  20.5028992  20.7093887  65.6733398  48.1901131
  21.6664543  65.6857529  48.1798897  20.4693813  65.1057281  47.4576950
  67.0356827  12.4153032  44.5131340  67.8582764  12.7219038  44.8946724
  66.3847504  12.5592241  45.2000122  32.0513992  64.6094818  10.7610321
  32.2481995  64.1781006   9.9295206  31.1225929  64.8329620  10.7009802
  75.9369049  66.7248688  67.6518707  75.5879440  66.0255508  67.0992279
  75.1612701  67.1687622  67.9947815  76.3620300  53.5155792  80.0183868
  75.7900620  53.1875992  80.7123032  76.8625641  54.2184219  80.4327698
  57.7388000  49.1726990  23.5948486  57.5313034  49.0076981  24.5146046
  57.1040115  48.6470299  23.1080761  70.8199615  60.5848045  88.8375473
  71.2423477  61.3468666  89.2338867  69.9336243  60.5872536  89.1989899
  32.7790298  25.8385544  74.8977280  31.9691296  25.8838577  75.4058990
  32.4959831  25.9268265  73.9876022  73.2486191  13.9107819  31.4646950
  72.7810822  14.5379868  32.0162926  73.9030457  13.5224342  32.0453339
  78.5902328  53.2364388  42.7067604  79.1179733  52.6604843  42.1535912
  78.2187805  53.8768616  42.1000366  14.9851961  16.7217426  15.6554670
  15.1512413  16.0535622  14.9904890  15.0426331  16.2514133  16.4871674
  33.8252716  64.8073273  61.2140732  33.4437790  65.2045212  60.4311752
  33.3680992  63.9713516  61.3055611  26.4629860  14.8964815  72.3290024
  27.2089520  15.4843473  72.4480820  25.7643070  15.4603100  71.9970703
  39.1711273  59.6578903   0.6303574  39.3453941  60.1018562   1.4602720
  39.2202797  60.3516273  -0.0273255  75.5893250  30.0338593  29.9154930
  75.6686020  29.4561749  30.6745892  76.3688965  30.5879650  29.9537468
  23.7841988  17.0419159  15.3069420  24.4851856  16.4168644  15.4917698
  23.3500919  17.1712074  16.1501904  33.2320557  36.3424072  85.8855286
  33.3868599  37.2742233  85.7306366  33.1905251  36.2616615  86.8384094
   0.5409130  42.8423424  12.2387514   1.2513889  42.2130241  12.3629189
   0.7102158  43.2282028  11.3792868  68.4134979  13.6820631  73.8289719
  68.3717346  14.6355515  73.7558441  67.9974594  13.4878139  74.6688538
  85.7175903  63.9524231  61.3692322  86.4777832  63.5461769  60.9529419
  86.0361633  64.8028259  61.6718216  27.8228645  18.4922905  78.8877716
  28.3679523  19.1699486  78.4879074  28.0774536  18.4936619  79.8104858
   0.4381283  33.7448120  37.0272980  -0.2886389  33.5375214  36.4398689
   1.1938736  33.8426018  36.4480591  22.2693558  64.0472488  67.5158539
  22.4001312  63.1863823  67.1183243  23.1056099  64.4968033  67.3941422
  53.2963676  35.5092850  33.7988930  53.4758720  36.4279289  33.5986328
  53.9304008  35.2842598  34.4797745  45.0489349  53.2283974  71.7220612
  45.7677155  53.5716362  72.2528839  45.0619049  52.2848663  71.8827057
  23.1775646   6.7768416  78.5343475  22.2883358   7.1309361  78.5453110
  23.5286140   7.0373316  77.6828003  17.5755806  41.7812576   1.3597393
  17.3295078  42.2542267   2.1547115  17.9075947  40.9404259   1.6743761
  49.5920143  34.3786926  44.3946114  50.3893471  34.0022087  44.0221176
  49.1659508  34.8151779  43.6569214  25.4319935  40.8761101  53.2119408
  25.4466057  41.7550659  53.5906944  26.3244743  40.5502853  53.3283310
  50.6650009  23.5777168  27.7653294  51.3155670  22.9183960  28.0067692
  51.1712189  24.2681828  27.3372726  32.0999947  15.3157778   3.9623754
  31.2348957  15.4385395   3.5715237  32.6048470  16.0745850   3.6698520
   1.0330794  13.0834122  56.1108856   0.1049493  13.2523870  55.9488564
   1.4705881  13.9005260  55.8718414  23.9786091  29.1229782  68.4321136
  24.1950798  29.9235001  67.9540558  24.7418690  28.5580978  68.3113861
  11.9109497  61.9625778  36.6886330  11.1714573  62.4130211  36.2806091
  11.6519451  61.8576927  37.6041374  64.8943710  20.0204792  69.2746964
  64.1568069  19.8409672  69.8577957  65.5577393  19.3763885  69.5223236
  55.8815346  54.2009277  80.8678207  55.4207726  53.3662300  80.7829132
  56.4024620  54.1069031  81.6653366  36.8278732  71.2461395  78.8807831
  36.3888054  71.2528076  78.0302505  36.2680550  71.7810822  79.4435196
   9.4052420  52.2917862   5.7240753   9.2656860  51.3877258   6.0059161
   8.9992142  52.8218651   6.4099231  50.2026558   3.1628075  41.2985992
  49.8185158   3.5153849  40.4958801  50.8003159   2.4783936  40.9975815
  86.0455627  12.6381130  63.1465950  86.7636948  13.2403412  62.9520569
  85.7274704  12.9143810  64.0060806  74.6685333  48.8043480  41.9016457
  74.3426895  47.9860191  42.2763405  74.5972748  48.6795654  40.9552917
  31.0295849  68.2731323  55.1453590  30.1815605  68.5434875  54.7932243
  30.8375664  67.4853287  55.6540031  50.2118835  37.6721001  55.6292000
  50.3615646  38.6174774  55.6386337  49.4679222  37.5532761  55.0387421
   9.5192385  41.1829681  32.4796944   8.9186058  41.3457069  31.7523804
   9.0179996  40.6388588  33.0870972  32.4722137  55.3562126  13.1729364
  32.2772560  56.1771622  13.6248941  31.7072220  55.2001534  12.6191616
  40.5114594  14.4988661  65.2593536  40.5238113  15.0923176  64.5084305
  41.4233780  14.4580355  65.5473938  61.4123344  43.6385422  75.9340744
  61.5555382  44.4832802  75.5072861  60.4828644  43.4554482  75.7969742
  56.3006783  37.6876030  88.6208649  56.5376778  37.1427650  89.3713379
  57.0734062  37.6669197  88.0563354  72.1263275  39.3862038  76.5376205
  72.6795883  38.6929932  76.8976059  72.0833893  39.1960106  75.6004868
  70.8034821   5.7720170  12.0807648  70.3858719   6.6150126  11.9041519
  70.9631271   5.3976369  11.2144022   3.4559069  44.6391640   7.2227077
   2.6957688  45.2024231   7.3681693   3.6955209  44.7915726   6.3086028
  57.2173882  28.5050201  63.3762970  57.8406067  29.0085354  62.8525581
  57.6219215  27.6421394  63.4658508  72.2812424  49.9917107  56.9302063
  73.0673447  50.4780159  56.6816521  71.6079407  50.6635437  57.0376015
  44.3292542  66.2100449  42.2909241  44.7927589  65.4026642  42.0683670
  44.1674118  66.1417160  43.2318649  70.8222733  34.0053635  83.1501923
  70.2075500  33.3540001  83.4879456  71.6691055  33.5591583  83.1521530
   8.5288439  38.3209114  32.1110573   8.1952209  38.8406219  31.3797398
   7.9492950  37.5600052  32.1481972  73.2365341  63.0901413  82.5627975
  73.3898926  63.9906006  82.2766495  74.0577774  62.6358604  82.3745880
  55.5556259  40.3427925  24.6911755  54.6586456  40.3150368  25.0241833
  55.8569221  39.4354897  24.7386665  55.3377304  14.3692446  75.4358902
  55.5271149  13.6625557  74.8186722  54.5486145  14.0813417  75.8948441
  43.6380806  38.6966896  71.4699860  44.3582306  38.3247795  70.9607697
  43.0705032  37.9503746  71.6626053  41.7266769  70.0192719  37.8620491
  42.0140266  69.9512100  38.7725601  41.2529755  69.2036819  37.6987877
  24.6999817  25.2387924   9.7532053  24.9238434  25.3907623  10.6713676
  25.0306091  24.3597221   9.5683975  25.1745758  61.8971672   4.3120327
  25.7480106  62.2229347   5.0057750  24.5723038  61.3022423   4.7587571
  10.3563929  33.8848686  20.9069309  10.8864069  33.0902939  20.9699097
   9.5535736  33.6031303  20.4683723  77.6851730  64.8860855  52.1950150
  77.7398376  64.9518967  53.1483803  78.5950165  64.9222260  51.8998718
  78.4921646  15.7677488  48.4700127  77.9493942  15.6978970  49.2553482
  78.7950058  14.8743019  48.3079185  26.0805244   6.2270823  19.7983971
  25.9957237   5.4765558  20.3864040  25.3241844   6.7773628  20.0017967
   5.7423220   2.9542768  23.5392914   6.4228344   2.2933567  23.6670399
   5.4168696   3.1364491  24.4208393  12.9583597  66.9197845   2.7649114
  12.5793619  66.5165787   3.5459454  13.8891182  66.7009659   2.8100629
  82.1097946   8.8380213  25.2132950  81.4551773   9.0638876  25.8741226
  82.8225098   9.4599524  25.3598118  58.1005516  67.2890778  37.4146881
  57.6794052  68.1388779  37.5439491  58.9507141  67.3750076  37.8460464
  28.9225349  39.6309013  73.0412140  28.6412392  39.6706657  73.9552841
  28.6944447  40.4886971  72.6828918  50.7971458  63.3620872  39.6586876
  50.7933502  64.3153610  39.7451782  51.0433044  63.0437698  40.5271988
  75.7536469  21.9034309  30.5237598  75.7865372  21.5273991  29.6441307
  74.9856873  22.4746685  30.5114803  59.2635384  32.8849564  51.8968430
  59.3916359  33.2277374  52.7813301  58.6061058  33.4625397  51.5090141
   3.1772323  30.1196899  43.6383820   2.9498894  30.3612213  42.7404900
   3.0114944  29.1779728  43.6823578  39.5377769  53.0907249  33.5382118
  39.4204330  53.5168152  32.6891479  39.3653488  53.7810555  34.1784859
  34.9418564  55.3041992  18.5341339  34.9100685  54.5014534  18.0137291
  35.8666344  55.4078178  18.7583542  81.3758240  36.1468658  83.7645721
  81.5594788  36.6176186  84.5775223  80.9477310  36.7942810  83.2043762
  76.7656555   0.8291624  50.4273567  76.4794235   1.4614553  49.7681847
  76.0759888   0.1654772  50.4380150  32.5982933   5.6568866  83.5337830
  33.5026169   5.9051108  83.7256470  32.0970612   5.9809303  84.2821045
  42.4261475  65.9400482  37.4936943  43.1175117  66.2925797  36.9333687
  41.9729919  65.3021393  36.9423790  37.9167290  28.2033024   7.9834003
  38.8634186  28.1117249   8.0912237  37.5732040  28.2074623   8.8768234
  55.2254639  66.6136932   7.9172893  54.8796577  65.8734283   7.4186320
  55.8052902  67.0655212   7.3041997   6.6277137   9.6955004  75.8985291
   5.8693748  10.1277428  75.5056915   7.3824096  10.1024132  75.4729843
  59.3317337  17.4782047  39.2331429  58.9334526  17.9315815  39.9761467
  59.1819611  18.0609627  38.4887047  64.2294159  17.5421448   3.5298896
  63.7912407  18.2216282   4.0422726  64.9484177  17.2470665   4.0886326
   7.5885634   1.6689770  26.5765324   6.7569532   1.9635574  26.9478531
   8.0238028   1.2121241  27.2963142  49.7757263  61.0264626  60.3014717
  49.7344322  60.0732880  60.3788338  50.4567719  61.2877846  60.9212456
  73.3172989  46.7983932   4.8295751  73.8778229  46.1817665   4.3586054
  73.8672180  47.5710526   4.9592404  51.5563202  41.8815765  67.4329453
  52.3132858  42.3973083  67.1549988  50.8079453  42.4630432  67.2985458
  47.2530785  59.0334625  69.0827026  46.9849243  58.5806007  69.8822250
  47.9785500  58.5097466  68.7426300  36.3367424   1.8778392  70.3648453
  36.0025597   1.4476552  71.1519318  36.0943756   2.7974746  70.4732971
   6.5312510  27.6833305  85.7474670   5.7301579  27.2117882  85.9757843
   6.8506045  27.2450638  84.9586945   1.1180911   9.6787348  80.3170776
   0.2422564   9.6282578  80.6999512   1.3602197   8.7674904  80.1520309
  83.1758118  49.9571495  21.6234150  83.7717667  50.6309929  21.9505234
  82.3016434  50.3162994  21.7753277   2.2423136  41.4726105  32.3265495
   2.7280467  41.9420128  31.6483517   1.3229115  41.6544800  32.1319885
  76.0535889  51.4080658  38.9143906  76.1839371  51.3345528  39.8598175
  76.9390030  51.4239731  38.5510559  49.5266724  43.7542267  71.7101822
  50.4744911  43.6822777  71.8228683  49.2299309  42.8514786  71.5952072
  75.3290710   6.4863372  14.5785866  74.8387604   6.1065297  13.8494987
  74.7601700   7.1787758  14.9149084  45.4250450  11.3069944   5.5744743
  46.0586853  11.9981976   5.7667551  44.6048050  11.7726297   5.4113107
  82.3017349  42.1662636  62.8177872  81.7335815  41.4191093  63.0053635
  82.6872482  41.9658318  61.9648819  29.2474976  50.1670647  22.3522968
  29.9192257  49.4893837  22.2764034  28.4363842  49.7305298  22.0919800
  22.0445976  37.5820312  27.4863014  22.2274494  36.6683006  27.7051525
  21.1310158  37.7111435  27.7411156  64.0865173  30.4726639  26.8734360
  64.2478027  29.5718594  26.5927753  64.9595490  30.8514519  26.9762554
  50.9132881  51.1981888  16.2179585  51.4240341  51.7889595  15.6644611
  50.6437798  51.7387962  16.9604836  71.1234207  17.1765308   6.6284471
  72.0058517  17.5437794   6.6801348  71.1843414  16.5009346   5.9531026
  77.0249710   3.4939423  68.8515167  76.7179718   2.5893388  68.7908707
  77.8278656   3.5098245  68.3306198  64.6692657  57.3569107   6.5223417
  63.7703209  57.2884140   6.8439555  65.1934509  56.8942833   7.1761284
  21.6268692  25.7862682   3.1417544  21.2913857  26.6691074   2.9859426
  21.4438763  25.6202564   4.0665169  81.6344376  58.7067223  56.3496056
  80.9406967  59.1396370  55.8520660  81.4065857  58.8649139  57.2657356
  58.8774872  68.0669708  30.8513546  58.6388245  68.1330338  31.7759666
  58.0397339  68.0302429  30.3897820  40.4727631  33.6204224  25.2650356
  40.2896690  32.7469902  25.6111870  40.6833153  34.1449280  26.0375595
  64.2276993  27.0541420   4.5789800  63.4928207  27.6400833   4.7602334
  64.4815521  26.7156487   5.4375925  77.6172714  25.5086498  20.3828030
  77.7516022  25.1238480  21.2488937  77.1378098  24.8390560  19.8949623
  30.9382420  42.1522408  40.4437599  31.8912621  42.0795975  40.4957924
  30.7835712  42.7627182  39.7229080   5.5821061  34.5571480  57.1969147
   4.9272299  35.2375336  57.0405693   5.4057908  34.2552452  58.0879822
  62.9610786  69.5897217  17.0106239  62.7870560  68.7508545  17.4375343
  63.6437531  69.9939423  17.5461559  70.2131195  23.6097469  62.3692818
  71.0528488  23.2297535  62.6275139  69.6436386  23.4685650  63.1255875
   4.9309678   7.2154007   8.5343580   5.7476487   6.7492456   8.7131405
   4.3008585   6.8389215   9.1487331  79.7503967  55.8161354  31.7354221
  79.0362091  55.5704880  31.1473560  80.0438309  54.9878120  32.1149139
  70.9483871  58.1820107  38.5636826  71.1680298  58.7460556  37.8221703
  70.0939178  58.4965019  38.8589935   5.0230579  38.4123192  75.7520370
   5.5434747  38.5309372  76.5466003   4.3119588  39.0477600  75.8343887
  58.3977776  16.6176186  30.7636967  58.6261597  17.2013531  30.0402832
  58.2615242  17.2021980  31.5093040   9.7931843  38.4373894  71.4698486
   8.8823528  38.3618431  71.1854019   9.8154459  37.9996529  72.3208084
  16.0238075  52.2929726  24.9649467  16.8345852  51.8300476  25.1760693
  15.3527155  51.6104507  24.9596806   1.8289354  52.7864075  65.2582550
   1.4949594  52.6718292  64.3685532   2.7687051  52.6201668  65.1845779
  66.8999252  49.7605286   5.9268498  67.7972260  49.4279785   5.9489155
  66.4553070  49.2973595   6.6367974  67.2245941   6.7054615  36.5360298
  67.1901169   6.1265969  35.7744827  67.7747345   6.2399454  37.1660118
  42.0225906   1.0120261  22.0673237  42.4182892   0.8764194  21.2063560
  41.2731590   0.4167604  22.0829258  65.4180984  14.1790857  60.2889557
  65.0970840  13.9139357  59.4270515  65.2125778  15.1123161  60.3444023
  21.6095905  49.1995888  29.3953304  21.5728016  49.1899681  30.3517742
  21.0954742  48.4376450  29.1281891   7.2883806  22.2315807  16.3930950
   7.4635968  21.3348961  16.1076355   6.4784493  22.1678600  16.8992405
  13.8202162  28.3239937  69.6173706  14.4087152  28.0660458  70.3268509
  14.2757540  28.0565338  68.8191376  77.4377594  43.7369995  30.5525169
  76.9579926  43.1781807  31.1638870  76.7654953  44.2921104  30.1573620
  14.6575718  18.4649143   5.3539195  14.7828360  17.8196888   4.6580567
  15.2957554  19.1518364   5.1613274  50.0614395  28.0268116  80.5332718
  49.7870941  28.6015739  81.2478485  50.9152946  28.3673019  80.2663879
  85.2723083  16.7838669   8.1230354  85.2712479  17.7032948   7.8567958
  86.1977692  16.5697250   8.2409325  75.3389511  56.1970253  50.3416519
  74.5889359  55.6469002  50.1156807  75.1232300  56.5539818  51.2032051
   7.4155669  11.4552307  18.5903854   6.9905214  12.0821066  19.1757011
   7.7762990  10.7884541  19.1747761  53.2689514  66.3428802  76.2557602
  53.9903450  66.1680069  75.6514130  53.6096764  67.0134277  76.8477936
  13.2001162  35.8654709  52.5051041  12.9200478  35.9486694  53.4166260
  13.9770308  35.3076324  52.5432167  32.7733459   6.7441282  77.6945496
  32.3531647   7.2763433  78.3701401  32.9648361   7.3611298  76.9882431
  19.3313007  65.5874023  40.7221680  20.0358315  65.6682053  40.0792542
  19.7474194  65.1842194  41.4840851  59.8416367   1.6126258  84.9377365
  60.6112137   2.1733096  84.8396759  59.7119102   1.2300177  84.0699768
  22.1841278  58.1877899  59.7009048  22.4621124  58.3819122  58.8057671
  21.4077606  57.6376915  59.5966263  79.0123596  25.9304962  29.9206219
  78.2444000  25.4768333  30.2679768  79.3176422  26.4747829  30.6464195
  68.6546631  60.8652573  13.0184689  68.5403824  61.7929802  12.8123055
  68.7595139  60.4417229  12.1664972  51.3592987  68.9982681  80.7774811
  50.7255783  68.4869156  80.2743378  51.3049049  69.8789978  80.4065475
  33.9458351  28.5709610   8.6271830  34.2794762  29.0142097   7.8471527
  34.6712456  28.0177917   8.9170380  15.2058010  56.1275101  81.6773529
  15.3658552  56.4082222  80.7763519  16.0196857  56.3289452  82.1391449
  52.2181625  17.3399181  33.6919174  52.1163750  17.7334366  32.8253059
  51.7687607  16.4972992  33.6266251  72.8392105  12.1725483  29.5295887
  72.5013885  11.4834213  30.1016159  73.1073380  12.8701935  30.1276112
  84.4505081  63.7447815  86.0449371  85.3979721  63.6118355  86.0745010
  84.3452988  64.6728058  85.8353195  79.1463928   1.2264457  79.4476929
  79.3982773   1.7956102  80.1749115  79.5145340   0.3722118  79.6735077
  16.8438759  42.0412560  42.4940987  15.9216652  42.0985794  42.7440453
  17.2942734  42.6246452  43.1048622  78.6594620  57.3255310  76.4304810
  79.2420273  57.0742569  75.7137451  79.1559753  57.1255608  77.2240295
  78.0277481  11.1627283  59.9248466  78.3713989  10.3363600  60.2643356
  77.1005859  10.9881821  59.7631760   9.6991940  47.4106827  36.6085434
   9.2995710  47.7245293  35.7973518   9.2935524  47.9394951  37.2955971
  59.9660835   7.3440895  14.7962494  59.9469376   6.4291844  15.0769882
  59.9543877   7.8451529  15.6117430  58.1646576  57.8618050  56.8113136
  57.2107277  57.7832947  56.8206139  58.4797058  56.9588623  56.8522072
  40.5612946  22.1746349  14.6257401  40.7319527  22.7403164  15.3788071
  41.3140068  21.5841560  14.5942736  24.7034206  13.1122179   4.8916001
  24.5003452  13.5704870   5.7070642  25.5825958  12.7590694   5.0278606
  25.2442989  68.2527008  39.7494736  25.1559658  68.9662323  40.3813744
  24.5064754  68.3700027  39.1510658  13.3662367  52.3738403  61.6304855
  12.5746164  52.2175522  62.1454048  14.0741425  52.3777885  62.2747574
  73.7822723  54.6991501  24.0832005  72.9048920  54.5655479  24.4417896
  73.7545013  55.5771828  23.7030468   1.5773824  16.7679844  51.0071220
   1.1464721  16.1230145  50.4462624   2.2289166  17.1809673  50.4403954
  83.0368042   1.7653508  87.1578751  83.2765579   1.9581232  88.0642929
  83.7357254   1.1927546  86.8418503  72.7004776  61.9072800  15.9570961
  72.7268677  62.8373299  15.7322912  71.7760620  61.6695862  15.8850298
  37.6118622  65.9496918  38.5481873  37.6508484  66.8905869  38.3766327
  38.2458725  65.5689621  37.9404831  42.5275192  33.9271317  47.2358742
  42.1099396  33.3805733  46.5701942  43.3602943  33.4909401  47.4160156
  78.1566696   2.3427784  73.1500397  77.3294678   2.6469505  72.7766190
  77.9256287   2.0379772  74.0275040   2.2178040  52.3550949   5.5175595
   2.9026587  52.8996124   5.9057670   2.5919137  52.0538101   4.6896095
  55.8294907  19.5484009  36.3083763  55.3589935  20.0927677  36.9396667
  55.2574234  18.7935848  36.1697350   0.4864363  10.8886395  61.0760956
   0.7504591  11.7579451  60.7747116   0.5546917  10.9348059  62.0297432
  69.7566986  38.7335663   4.4127450  69.8804855  39.0867920   3.5317574
  70.2613449  39.3181534   4.9782720  66.1443253  25.3776073  16.4486237
  66.6880722  26.0975780  16.1289101  65.2728424  25.5616989  16.0981083
  51.7092667   6.1704144  67.2790680  51.1141167   5.9414439  66.5652008
  51.6890488   7.1268916  67.3102875   1.6126584  68.3007812  44.4286880
   1.3303097  68.9891663  45.0308838   0.9694574  67.6016083  44.5456467
  13.7206593  37.8789635  12.8744192  14.2877407  37.2099152  13.2578592
  13.5044966  38.4575195  13.6057024  31.6452999  41.1066132  57.5251007
  32.2408142  40.4446983  57.1737289  32.1830292  41.8944817  57.6047363
  42.8681717  61.4538612  41.6308365  43.4865456  61.7179298  42.3120918
  43.4043007  60.9906960  40.9871979  69.1052475  35.3859787  44.8416672
  69.2056732  34.6226463  45.4104080  69.9204254  35.4206467  44.3411522
  77.4498825  10.1874523  66.2725525  78.1355820  10.3981295  66.9063339
  77.7452316   9.3751259  65.8613052  14.7685881  25.5185280  15.9475212
  15.6438160  25.9059982  15.9389162  14.4240026  25.7244987  16.8164673
  10.1696558   4.2205710  30.8176384  10.9721413   4.7089925  30.6340809
  10.4574642   3.3121052  30.9075718   6.6599202  44.1223488  36.2375031
   6.6775188  44.9620972  36.6965752   6.0179963  44.2451096  35.5381508
  24.7436104  47.5597420  27.8896637  25.5775795  47.9240837  28.1862888
  24.3728142  47.1450539  28.6686211   3.9202509  46.1641655  27.1027145
   3.0186968  45.8649254  26.9848690   4.1787148  45.8156052  27.9559059
   4.2515850  13.8620129  70.6578217   3.3260958  14.0692739  70.7872238
   4.5443735  14.4809103  69.9888916  50.6212311  13.3572655  37.2614670
  50.5961838  12.4518766  36.9518280  50.1415024  13.8511639  36.5965195
   0.1485286  45.3749008  34.7319260   0.5171753  45.1139374  33.8879929
   0.6998008  46.1027298  35.0193291  81.9299088   1.4990513  71.7381058
  82.5544205   0.9825748  71.2287216  81.6768036   0.9243780  72.4605408
  14.6304970   6.7312517  14.4581995  14.5307388   7.0356779  15.3601999
  14.0031290   6.0128756  14.3770990  86.2101974  48.2021484  65.9622192
  85.9354630  49.1174316  65.9073334  86.4504700  48.0788612  66.8805313
  49.2593117  51.6462822  12.5533381  48.3234711  51.6912613  12.7493286
  49.5078239  52.5507736  12.3626461  54.5413284   7.1635804  64.1368484
  55.3338699   7.6329374  63.8764267  54.2552567   7.6026173  64.9378738
  82.8935089  67.8154068  63.4836464  83.7210693  68.0489883  63.9041405
  82.5494003  68.6457291  63.1544228   6.3466926  50.2888527   9.9367399
   6.7385020  49.4187355   9.8618212   5.4418812  50.1221619  10.2008657
  79.0514908  50.9828072  36.7673607  79.1605606  50.1249695  37.1777840
  78.8349686  50.7864456  35.8558846  21.8209381  67.3360672   6.8087807
  20.9162693  67.0242767   6.7843747  21.7886677  68.1223526   7.3537040
  37.1764107  55.5133133  69.3695831  36.9026794  54.6892090  68.9668961
  37.7857475  55.2517967  70.0599060  34.4809799  53.1403160  16.7752972
  33.6692581  52.8791046  16.3404274  35.0184135  52.3482323  16.7751045
  45.6452065  54.3711357  74.7856979  46.1603279  55.1280365  74.5064468
  46.0475159  54.0987129  75.6104202  17.2435989  32.2804527  81.2112961
  16.6840324  31.5066833  81.2775879  18.0273170  31.9710693  80.7570953
  43.2063370  63.8667946   9.5540695  43.4522247  63.3870125   8.7631350
  42.9966202  64.7478638   9.2442732  80.8559036  15.3187580  75.4469147
  80.0567169  14.9369688  75.0839157  81.4556961  15.3712416  74.7027893
  27.2878494  58.2389793  16.5138702  26.9069729  57.4601173  16.1082344
  27.8360004  58.6219749  15.8289776  60.8633461  21.7864475  33.0445747
  60.3551445  21.4694061  32.2979507  61.5982780  21.1767063  33.1103096
   2.4600317   6.9772139  31.2487125   1.8349843   7.4455700  31.8020573
   2.0552247   6.9722447  30.3813381  63.0784111  44.2854347  58.2570000
  63.8344841  44.5478859  57.7319260  62.3490639  44.2730331  57.6372147
  52.0846519   1.2319069  57.9557228  52.9178658   0.8120732  58.1695595
  51.4345207   0.7462895  58.4634018  74.8853683  32.5592384   0.1780598
  75.6026306  32.3236237   0.7664869  74.7628021  33.4987717   0.3140471
  83.3601837  53.2143364  38.6218567  83.1909256  52.9073524  39.5125542
  82.4960861  53.4419518  38.2787056  43.3760681  48.8313370  25.8299313
  42.6857414  49.0212135  26.4652500  43.5967369  49.6835785  25.4541397
  33.2577553  35.6502457  66.3585587  32.7664757  35.8169441  65.5541458
  33.5663300  34.7486572  66.2682648  39.1075592  65.1077881  25.8265152
  39.4062958  65.1915741  24.9209957  39.9013786  64.9093628  26.3232212
  23.3168926  22.6567574  15.9878054  23.1882839  22.1732922  15.1717463
  22.6092739  23.3012695  15.9984264  51.0106544  29.7335091  53.6288185
  51.8659973  29.6658955  54.0531349  50.6570549  28.8445492  53.6596565
  73.1764984  21.3423100  82.1733093  73.2154541  21.9471664  82.9141693
  72.4130936  20.7932835  82.3522491  38.7764397  68.6127243  27.4584503
  39.3567810  68.2039871  26.8162861  38.2399368  69.2173386  26.9457741
  55.4893837   4.3023553  53.4052353  56.1477890   4.9391317  53.6831741
  54.6991348   4.5498700  53.8853149  33.4244003   1.8194348  67.0617218
  34.3453865   1.5682805  66.9914703  33.0011635   1.0654128  67.4722748
  46.2404289  34.7448959  66.3971405  46.7981110  34.0223007  66.1089020
  46.7734756  35.2189713  67.0353775   2.6681321  14.5968275  86.2505722
   2.7514443  13.6629381  86.4432983   3.1473620  14.7158527  85.4305725
  43.0127258  31.7940483  75.2172623  42.3648376  31.1142292  75.4025116
  42.6665802  32.2525406  74.4516296  46.9889984  62.0754128   3.4581811
  47.0469475  61.6176529   2.6195323  47.8891830  62.3379745   3.6504364
  13.4161234  28.2538490   7.9514284  12.9898500  29.1085186   7.8876734
  13.4597845  27.9400024   7.0481977  61.6466942  45.5403900  38.8812599
  61.6111565  46.0935593  38.1008911  62.0918922  44.7444458  38.5905647
  62.0170212  20.5035763  28.6264172  62.6121597  21.2522621  28.6653137
  61.5351067  20.6229572  27.8080425   5.2499132  20.8533688  31.9946842
   5.2948556  20.5052643  32.8852081   5.8925967  20.3407116  31.5044079
  74.0536804  49.9709473  75.0438843  73.1454315  49.7772980  75.2758789
  74.5723724  49.5210686  75.7108154  74.9084320  34.8347740  68.2248230
  74.2371216  35.3220634  67.7471924  75.7086487  34.9689522  67.7170105
   5.0511951  13.5124140   6.2035627   5.8536677  13.5599289   6.7231894
   4.6981878  12.6418266   6.3871264  57.7511101  47.2588654  74.0021439
  58.5355186  46.7279243  74.1401291  58.0625267  48.1627998  74.0485153
  11.5590191  31.4764652  10.6534481  12.3682184  30.9892445  10.8085070
  11.6599894  32.2780685  11.1667433  63.7351532  55.6456871  23.5016136
  64.1528549  54.9041519  23.0635681  64.2549286  56.4044037  23.2362442
  77.5886993  13.8558140  70.2511520  77.3890686  14.7917509  70.2711716
  78.5371704  13.8105774  70.3719406  75.1580124  25.2064266  13.6411247
  74.7696533  26.0688934  13.4942951  75.4934311  25.2441311  14.5368395
   1.2611187  59.1076164  80.9084015   1.5437856  59.2964134  81.8032150
   0.9583310  59.9502716  80.5700455  79.0531921  17.1790085  12.2844210
  79.0657196  16.7368679  11.4355469  79.9767227  17.2916660  12.5094452
  43.7627602  45.2216759  84.8376770  43.5475845  45.0027046  85.7443085
  44.0186157  46.1435432  84.8681793  56.6986160  54.8431206  17.0578842
  55.7606010  54.6807251  16.9579487  57.0069847  54.1297836  17.6167164
  31.5826244  62.5125694  37.0296478  31.4805241  62.7373009  37.9544754
  32.5256577  62.3959999  36.9141884  49.3973656  36.5805092  63.8422928
  49.8653984  36.4021950  64.6580048  48.6652603  35.9638786  63.8465004
  81.2589798  35.1584473  47.0495834  80.9066391  34.6744576  46.3026962
  82.1878357  34.9279633  47.0677147  85.9567261  50.2329330  24.9432659
  85.8804016  50.6875076  24.1043568  86.4623184  49.4450531  24.7436275
  43.1884003   0.3576671  63.0964127  43.7376785   0.8581799  62.4930763
  43.7589455   0.1727295  63.8424072  14.4167824   2.6922014  80.4277039
  13.9225321   2.1597710  79.8044357  14.3074608   2.2430751  81.2658997
  73.7926407  54.9949150  17.0791225  73.0071411  54.5968666  17.4543304
  74.3502655  55.1822586  17.8342342  23.5265598  63.5988922  25.1078548
  24.3623257  63.3252144  24.7299271  23.5102310  64.5487366  24.9905357
  24.1087875  65.8587036   7.9344802  24.3177109  65.2980804   7.1872931
  23.2194729  66.1673660   7.7610559  52.8331871  38.8381920  36.4201965
  52.5990334  38.3221626  35.6487579  52.1606712  38.6220093  37.0661201
  52.9185257  61.8281136  87.3502197  53.8746986  61.8034706  87.3133545
  52.7219276  62.2581139  88.1824875  33.3297920  44.2548141  51.9210701
  33.9197350  43.5422935  52.1670761  33.6834221  45.0237427  52.3682022
  81.6626358  50.3660736  41.8474541  80.9052658  50.6150017  41.3176765
  81.2931595  49.8580322  42.5696831  67.8193054   5.5179820  13.7461233
  67.1826324   4.8082442  13.8306742  68.2908859   5.5172029  14.5790977
  85.9928665  57.3999214  88.5822678  85.1925812  57.3846970  88.0573502
  86.5144958  56.6717033  88.2448730  50.7197151  27.7325420   5.4086995
  51.4791794  27.9022141   5.9660654  50.8650970  26.8499374   5.0679560
  66.7695160  48.6325798  50.7971001  67.2321014  47.9168167  51.2329102
  66.5029068  48.2669868  49.9535980  67.4648743  12.6256962  50.2162666
  68.3533173  12.9485970  50.3667107  66.9153137  13.1611261  50.7885704
  68.1796036  16.3067074  72.9990311  69.0222855  16.2308865  72.5513992
  68.3610992  16.8592625  73.7592773  34.6957664  62.6603203  65.2527847
  35.1275826  61.8688278  65.5741959  34.2524986  63.0201340  66.0210800
   5.9599857  24.2425346  46.9466553   5.4968519  24.0268536  47.7561111
   6.3702340  23.4201584  46.6790276  84.5031433   7.9803681  43.9495277
  84.6932983   8.4318275  44.7718773  84.6550217   7.0553970  44.1434174
   8.0634394  51.6758957  23.4100990   8.7685871  51.3136215  22.8736687
   7.3810468  51.0048485  23.3936462  85.0755539  10.4426765   9.3374500
  85.4711075  10.9838705  10.0207319  84.1380081  10.4618587   9.5294800
  18.4548264  60.7598801  26.0869179  17.9957047  61.5867882  25.9397469
  18.7338200  60.4822426  25.2143841  82.2617035  41.7358131  52.2752991
  81.6106186  41.5013008  52.9365959  82.8297806  40.9677277  52.2155380
  82.6839294  29.4459991   8.0740423  82.8537674  28.5613899   7.7502322
  83.0860825  30.0207691   7.4227819  55.0766182   6.0491748  85.3007812
  54.9600830   5.2955856  84.7221985  55.2996864   6.7705641  84.7125015
  27.4127388  62.4071159  86.3295975  27.3361568  63.1753769  85.7637863
  28.2789211  62.0502853  86.1330414  25.2545528  -0.1623000   2.0848396
  24.6174526  -0.3943994   2.7604599  25.1692696   0.7864653   1.9910175
  84.8285675  68.6908264  80.5004044  84.1640701  69.2933578  80.1662827
  84.7655640  67.9246216  79.9301376  21.2322960  43.0147743  31.9617481
  20.3924961  42.6519623  32.2434158  21.5432148  43.5135307  32.7172623
  68.1774063   6.8449197  53.4603233  67.6758804   6.5599427  54.2241936
  69.0922470   6.7510242  53.7258072  60.1554375  40.6358681  87.2303696
  61.0555649  40.3242035  87.1362000  59.6837616  40.2287712  86.5037079
  52.7325592  30.9684124  66.7410965  52.5496330  30.1670208  66.2506409
  53.6836815  30.9715023  66.8487473  79.3044510   8.6180668  11.7029886
  79.3789139   9.2754335  12.3947668  78.8555222   7.8822036  12.1191607
   4.6101160  14.4122829  55.6697731   4.6329489  13.6540546  56.2535553
   5.2045369  15.0440826  56.0744019  25.7672863  42.5489616  74.6424866
  26.5445004  41.9922752  74.5948486  26.0962601  43.4336891  74.4835434
  36.8871231  28.3039474  22.6058903  36.2576180  28.5487366  21.9276333
  37.2959137  29.1304588  22.8627930   2.8345604  19.3179302  32.4053078
   2.2607336  19.3461437  31.6396961   3.3975556  20.0863018  32.3111038
  65.6969986  48.0668297  68.7374115  64.8418045  48.3850861  68.4483032
  66.0049515  47.5184708  68.0158157  28.4184380  45.6734085  81.9380569
  28.9224625  46.0214767  82.6736145  28.9967937  45.0245934  81.5370941
  56.3329010  59.2289925  54.7458954  57.2281303  59.2179794  54.4072571
  55.8529587  59.7891655  54.1358986  71.0328445  34.2302132  88.5522156
  71.7710724  34.0404968  87.9731979  70.9142685  35.1777649  88.4865189
  52.0988998  64.2188644   8.9667625  51.7290077  64.8088684   9.6235037
  52.5651512  64.7958908   8.3618860  56.5922165  36.2099228   5.7834086
  57.3173637  36.6142197   6.2597847  56.3859291  35.4214249   6.2853513
  72.8935089  35.9799309  35.2558174  72.7677765  35.2679176  34.6285515
  72.0257111  36.3729172  35.3491783  72.9441910   2.2028909  48.3462067
  72.3939667   1.9904351  47.5923157  72.7274780   1.5349698  48.9967041
  38.8640938  25.3378181  17.3305340  39.6640396  25.5034676  16.8316555
  38.6972160  26.1580582  17.7948513  60.0987930  60.5181007  80.4615250
  60.7570992  61.2124214  80.4895172  60.3745766  59.8991699  81.1376190
  55.6418648  22.1139908  52.1240540  56.1343193  21.9354191  52.9251976
  55.7413406  23.0560513  51.9867249  65.0873718  70.8020630  65.2620392
  65.5246735  71.1728134  64.4955292  64.1579056  70.8071671  65.0333405
  63.7911377  19.3785419  72.2601395  64.2085419  18.5533752  72.5073395
  64.4326248  20.0502148  72.4916229  68.9797287  42.1472054   5.1943464
  68.0858841  41.8303337   5.0644898  68.9435120  43.0723915   4.9515505
  58.8549347   0.9100296  56.1254845  58.8387299   1.6530918  55.5223045
  59.5648384   1.1117853  56.7350426  29.6019993  57.4574242  43.3044739
  29.3165112  56.6182480  42.9432068  30.2445202  57.2236481  43.9743614
   7.0166712  52.6378174  16.6076717   6.8386788  53.3155060  15.9555283
   7.9407706  52.4218788  16.4826050  59.8566780  65.3483505  38.8624268
  60.7082024  65.2876434  38.4294662  60.0277939  65.0821762  39.7658081
  69.4350662  68.7181320  63.7368202  69.0842285  69.0005722  64.5814362
  68.9313660  67.9340515  63.5183487  79.8755264  39.2553596  68.1582870
  79.6480026  39.2248802  69.0875473  80.6234207  39.8511391  68.1142349
  41.6101265  44.3844681  28.6205063  42.2237129  44.0598602  29.2795753
  41.0946541  45.0478325  29.0792713  72.6292191  38.4260216  18.0908279
  73.1851273  38.5968590  17.3305588  73.2445526  38.2679138  18.8067875
  42.8847160  25.3554554  79.1297989  42.9065170  25.5396328  78.1907425
  43.5570679  25.9264145  79.5015335  76.3682022  47.0301247  85.6373672
  76.5868301  47.9536705  85.5128860  75.4112930  47.0075188  85.6307526
  21.8785667  18.5034618  86.3227539  22.1291351  19.3058167  85.8648529
  21.5036087  18.8067055  87.1496048  85.6178741  57.0659676  68.8921967
  86.4804535  57.4218636  68.6788483  85.0141220  57.5445747  68.3241730
  28.4057922  55.3653526  60.8859558  28.7748184  54.9269981  61.6527023
  27.5090981  55.0351830  60.8297577  16.3315277  11.4936676  65.5392609
  17.2657490  11.5441704  65.3369904  16.2974186  11.3966274  66.4909134
  39.2267036  59.2338562  53.2236099  39.3335114  58.9012032  52.3324509
  40.1129646  59.4669762  53.5000725  38.7815590  46.7110863  77.0617523
  38.3902283  47.1085052  77.8396606  38.1204758  46.0928574  76.7503128
  36.7841530  33.9087219  73.4979095  36.5927582  33.4796066  72.6639709
  36.3858490  34.7754631  73.4182434  24.6649284  35.3522720  75.5286484
  25.3590279  36.0078049  75.5974426  24.9664516  34.7551231  74.8440170
  20.6133614  46.7480583  26.3540173  20.4795380  46.9594727  27.2779369
  19.7963295  47.0075493  25.9281597  82.4580307   8.5828867  65.6286621
  81.7312927   9.2057076  65.6157455  82.0908737   7.7946563  66.0288010
  81.1313553  48.5893173  55.4542007  81.5889587  49.4291573  55.4154243
  81.7933884  47.9697800  55.7609901  58.6756058  62.9239044  77.2298737
  59.3153381  63.4155693  76.7148590  58.9191017  63.0939636  78.1398315
  48.9365349  45.2130623  78.4411392  49.5888176  45.6331520  79.0017548
  49.4485474  44.8009644  77.7452621  52.2599564   8.7019005  68.0218201
  52.1790581   8.6401491  68.9735947  51.7767181   9.4953718  67.7913513
  60.7893639   0.4142797  17.6764297  61.5348969   0.1628140  18.2215652
  60.0756149  -0.1513907  17.9710693  13.2419691  57.4609261  51.4594879
  14.1834841  57.6232834  51.4009972  13.1634998  56.5069847  51.4680557
  14.1293201  30.3584232  72.0278702  14.6189680  29.5374928  72.0783768
  14.3193693  30.6972256  71.1530380  55.0497246  60.2272606  58.5974617
  55.6404381  60.8119392  59.0722694  55.2936134  59.3497047  58.8918152
  14.5691891  25.5788364   0.3234708  15.0538759  25.3270092   1.1095328
  14.4133234  24.7539158  -0.1363571  36.1267166  50.9202042  57.1062164
  36.4693642  50.0411758  57.2678642  36.2395058  51.0518684  56.1648483
  74.4906998  29.1482391  20.2176628  74.3201599  29.9091949  19.6625996
  75.2738876  28.7474194  19.8405685  81.7271423  67.8271332  67.9995804
  82.0820160  68.7021866  67.8428345  82.4701614  67.2393417  67.8629837
  42.6605721  24.1436863  61.8340034  43.2827225  24.6949501  62.3086281
  43.1699295  23.7737865  61.1129189  27.6083851  37.7035141   9.7772083
  27.9834347  37.1505814  10.4626532  27.3752918  37.0930023   9.0777960
   2.7732925  47.6532860  48.5974464   3.2205715  47.5928574  47.7533379
   2.9184978  48.5558014  48.8813782  58.9285126  20.8744125  62.5034218
  58.1194878  20.5561905  62.1028671  59.4403763  20.0830441  62.6706429
  86.4741364  23.8457947  -0.3260408  87.0179520  23.1937771   0.1159710
  86.2198639  24.4551449   0.3669751  65.4321747  17.4961681  45.3060989
  65.7271042  18.1815834  44.7065544  66.2274323  17.0099907  45.5238838
  67.6605911  46.3784790  31.0397987  67.2575912  46.0971336  30.2184162
  67.0745773  46.0467377  31.7200661  76.1293182  17.5194988  74.3821106
  75.8571396  17.5039463  73.4645538  76.3838272  18.4284477  74.5410690
   4.6855769  50.7500000   0.6804100   4.3502536  51.6367950   0.8122637
   4.7903748  50.6720924  -0.2678408  45.8868904  36.3128777  82.6014023
  46.4343987  35.6483727  83.0196152  46.3924065  36.5945244  81.8389359
  83.2688751  12.6106949  78.4374771  82.6536560  12.2479029  77.8002090
  83.4365692  11.8905325  79.0453262  27.4969330  44.4878845   7.6062818
  28.3273602  44.0251808   7.7182131  26.8370075  43.8793716   7.9386077
  28.4569721   0.9527678   3.5164454  28.1175995   0.4707533   2.7623100
  29.1246643   1.5322760   3.1495790  79.9563446  39.5605965  49.7098770
  79.0955505  39.6576881  49.3026314  80.4437408  38.9976463  49.1084137
  41.6915627  45.5583572  70.9423065  41.6709175  44.8093681  71.5379715
  41.2118874  46.2455292  71.4048462  15.1533442  38.4555168   2.3825915
  15.4668541  37.8637505   3.0665195  15.3769608  38.0142937   1.5631096
  80.3300095  67.2307587  38.7675018  80.9962845  66.5540848  38.8875847
  80.2039795  67.6005478  39.6413460  75.8131943  63.6895180  74.5879288
  75.9869461  64.5586014  74.2263565  76.6680145  63.3789902  74.8863907
  82.1770630  41.8382759  36.1190186  81.4746399  41.9159660  35.4734192
  81.7342987  41.9106178  36.9645729  72.3529358  24.9324570  49.6860390
  72.2822723  23.9782104  49.6604881  72.6168518  25.1769161  48.7990112
  47.0606842   0.7804049  44.9015694  46.6891403   0.8623367  44.0232315
  47.6797714   1.5073714  44.9685211  30.5783806   5.7793574  87.1001511
  31.4743881   5.6756792  87.4205399  30.4366150   6.7259150  87.0873566
  85.8323288  45.8504868  14.2743969  84.9856873  46.2890167  14.1900349
  85.6768036  44.9644814  13.9472265  15.2889662  51.2016258  40.7295799
  15.9634190  51.5557365  40.1499672  14.6033192  50.8916817  40.1379242
  58.4712143  36.9277725  64.1037750  58.9492455  37.2989388  63.3621826
  57.7761269  36.4054489  63.7034454  82.3218613   0.9400378  23.7511406
  82.8092041   0.1628568  23.4777870  82.9165268   1.3993485  24.3441334
  13.4008684  31.6210327  21.7529087  13.0203743  31.4768715  22.6193237
  14.1093531  32.2467995  21.9035568   9.2772141  66.9614792  60.8225861
   9.0839481  67.3295212  59.9603653  10.0908346  67.3896637  61.0888786
  28.2506809  12.1068974  80.8425903  27.8368435  12.9539919  81.0081177
  28.7493496  11.9242506  81.6389542  28.1898117  62.7011528  16.3131332
  29.0068722  62.5222626  16.7785816  27.5818081  62.0338783  16.6314220
  47.4454079  24.1212254  11.0173340  46.9367752  23.5308342  11.5731754
  48.2630730  23.6511898  10.8538465   7.5667520  21.6935368  74.4551773
   7.6650481  22.3552074  75.1398392   6.6453319  21.7465382  74.2013931
  70.1734619  13.2342501  21.9290638  69.6721878  13.2559900  22.7442265
  71.0330658  12.9001226  22.1853275  39.4247856  68.4169693   8.2594500
  38.7271385  67.8582764   8.6020584  40.0466957  68.4944153   8.9829578
  48.3730698  31.9783421  45.6795692  48.3559532  31.9933872  46.6364975
  48.5608025  32.8829231  45.4291267  78.4832535  60.9938354   6.2062864
  79.4239655  61.1465302   6.1169844  78.3521881  60.1056862   5.8742504
  23.4807854  38.5047684   4.2389817  24.2134037  39.1165123   4.1663876
  23.3046970  38.2339592   3.3379338  68.7456818  49.3902130  54.1097069
  68.8104858  49.4884186  55.0596466  68.0130997  48.7878113  53.9806175
  56.0254135  69.2928772   2.6378436  56.5659714  70.0804443   2.5764694
  55.6903954  69.3015900   3.5344598  86.1164398  51.0702667  39.6178207
  86.6568909  51.8019028  39.3197365  85.3133316  51.4807549  39.9383698
  44.9741478  16.0059223  74.9258957  45.2247963  16.9148159  74.7606125
  44.7853775  15.9763050  75.8638306   3.7195406  19.4992619  12.4192123
   2.9801824  20.0718403  12.6234999   3.6403806  18.7751026  13.0401478
  28.9453297   9.2536488  69.1662598  29.5029583   8.8342419  68.5109863
  28.4755192   9.9324989  68.6818237  19.0883579  26.6136513  17.2199821
  19.3137131  26.2484074  18.0755768  19.3599968  27.5300407  17.2716770
  48.2603989  14.9837351   3.0077658  48.2241364  15.9387894   3.0605597
  48.7337646  14.8065929   2.1948833  55.7976837   9.2000551  71.0177231
  56.1301460   8.8239603  70.2027054  55.9666367   8.5280085  71.6780624
  20.4847355  52.0246201  48.8879814  20.1450596  52.9155006  48.9727440
  20.6787434  51.9299812  47.9554367  75.6349258  60.7945709  86.4063263
  75.6666946  60.0780334  87.0401993  76.5511627  61.0376511  86.2734985
  48.3231850   3.8866336  80.5445251  48.9852295   4.2248673  79.9415894
  48.6456947   4.1262469  81.4133148  44.1046371  65.1048050   4.3796120
  44.9458008  65.4140167   4.7158647  44.1042862  65.3657913   3.4586794
  42.3863525  65.2004242  86.7280350  41.4480972  65.3653793  86.8212814
  42.6640587  65.7876205  86.0249634  29.5330162  36.5897064  77.0779724
  29.7225189  37.1440277  77.8349762  30.2899380  36.0075226  77.0119476
  30.4338207   6.9495869  67.1310043  30.8954563   6.2776527  66.6293793
  29.5100441   6.8131938  66.9206085  74.1640472  19.6878586  62.6850166
  74.2569046  20.0483322  61.8031616  73.2235718  19.5410385  62.7859497
  22.1346817  40.0077019  61.4390182  21.7981911  39.3394966  62.0361023
  22.4542122  39.5146523  60.6833496  48.6110954  67.4031982  22.9727535
  48.3872108  66.8263702  22.2424240  49.1736259  68.0734863  22.5848122
   3.9114435  11.5290861  66.3177032   2.9798548  11.3564692  66.4540024
   4.0329976  12.4323082  66.6103516  15.5590029  64.2184525  28.4188423
  15.1927137  65.0293045  28.7718029  16.4763699  64.2313004  28.6917973
  58.7086334  60.5454063  85.0126419  58.0107880  59.9167099  85.1969986
  58.4899101  60.9001617  84.1509399  39.3363724  55.3112297   2.2199695
  38.5710030  55.3857346   1.6499758  39.5284195  54.3737488   2.2417722
  29.4179306  35.3986664  52.4344749  29.8129787  36.2427330  52.6529274
  30.1318722  34.7682419  52.5297813  14.7466192  17.5401440  86.6426239
  14.3450890  16.6723042  86.5995102  15.6881771  17.3700619  86.6148300
  30.7478981  65.2276917   5.4482822  30.1110363  64.5241623   5.3230190
  30.3390160  65.8096390   6.0888948  38.7135086  55.4143181  39.6272125
  38.0547943  54.7229462  39.6930313  38.4715652  56.0413208  40.3087997
  14.8467293  49.9205513  83.1728821  15.3573484  50.0966492  83.9631271
  14.7833443  48.9661484  83.1364059  83.2694931  10.7727327  80.5189819
  82.7076187   9.9980650  80.4984207  83.2559052  11.0542612  81.4337387
  77.2197113  65.0799637  13.4923954  76.8280716  64.3982544  14.0384054
  76.4860306  65.4368134  12.9917984  36.0289917  52.5690765  24.8111992
  35.7864952  52.6246185  25.7355061  36.4329491  53.4151497  24.6183052
  77.0410080  38.6349335   4.3286576  77.7448807  38.9223938   4.9101696
  77.1173401  39.2023163   3.5615325  71.9590149  54.5715637  37.6495590
  72.8681717  54.8653069  37.5913963  71.9527435  53.7228622  37.2069550
  18.2908478  70.2708435  16.1852894  17.9791355  70.2926407  17.0900497
  19.0908985  69.7465057  16.2201653  58.5788727  26.7988739  24.3567047
  59.1799088  27.4140282  23.9365025  58.8581886  25.9388371  24.0427780
   3.8571398  30.3513298  22.3264503   3.3810387  31.1282940  22.0333881
   3.2473733  29.9039135  22.9131660  16.2944832  25.3281212  21.4128723
  16.7459602  25.3586426  22.2563591  16.9890804  25.4465694  20.7650013
  86.9167709  53.0071449  70.7222977  86.1884003  52.4350700  70.4805450
  86.4990234  53.7747154  71.1128845  41.4245911  64.5838623  13.5586281
  41.7287674  63.8042412  13.0939732  40.7735977  64.9722672  12.9741793
  49.1020050  59.8100319  15.2066050  49.7610893  60.3380013  15.6572609
  48.4613228  59.5965576  15.8849735  71.3535385  56.0761986  70.3541336
  71.8314438  56.8973045  70.2374191  70.4445038  56.3449631  70.4869995
   7.5233374   6.7685246  11.9128141   7.9430819   7.4188619  11.3496904
   8.2456055   6.3708458  12.3990364  42.6234398  63.6067276  35.2217293
  42.6688004  62.9245186  34.5518303  42.7891502  64.4207535  34.7461967
  50.6691475   2.3438935  28.4352074  50.4616547   3.2640102  28.5981903
  51.6057243   2.3409369  28.2375984  84.5812225  46.6508331  33.6000671
  85.3153763  46.3990097  34.1602859  83.8499832  46.7753105  34.2050629
  48.9534645  20.4760857  35.4925575  48.6482582  21.3044167  35.8626251
  48.5439529  20.4345036  34.6283798  65.4897842  68.8231049  43.3634682
  65.2011261  67.9389114  43.1373787  66.4455032  68.7698364  43.3655853
  31.9524841  21.0925770   2.7913291  32.4977188  21.3849010   2.0609212
  31.1285553  20.8260441   2.3834901  47.8766174  38.0391846  53.9559593
  47.6042786  38.8659554  54.3540916  47.1652451  37.4309578  54.1565628
  60.5326347  64.0490036  44.3542595  60.0367699  63.7299080  45.1082687
  61.4486694  63.9049263  44.5916443  23.3116093  47.4034348  25.5849800
  23.7553234  47.2477112  26.4187069  22.3795280  47.3487129  25.7958355
  23.0185223  48.4640427  17.3187351  23.9575710  48.4464569  17.1340427
  22.8929634  49.2526245  17.8465633  13.5098810   0.6499116  73.8416214
  13.0082846  -0.1527943  73.9840851  13.1847801   0.9907789  73.0083466
  81.8263702  59.0466156  86.8751984  82.1616287  58.2999306  87.3714828
  80.9146118  58.8213730  86.6902771  75.1599808  16.7537022  38.9475937
  75.3376999  16.7729454  39.8879547  76.0030365  16.5380402  38.5488739
  46.0089455   3.9650280  63.6590576  45.5350533   3.4852204  62.9797592
  46.8644943   4.1477704  63.2706337  41.8546104  54.0826988  84.7970428
  41.9118767  55.0213013  84.6182327  42.6565933  53.8813782  85.2792587
  71.0406570  25.7305508  75.1298828  71.1966400  26.2290382  74.3277512
  71.5764313  24.9435558  75.0308075  65.5320663  40.0869522  17.7710800
  65.9408875  40.2763596  16.9265537  65.9411697  39.2703362  18.0574398
  70.1858215  14.6078844  76.4710999  70.6846161  13.9952688  75.9306030
  69.2837830  14.2915106  76.4214020  48.2016830   3.7655509  19.1911736
  47.8790207   4.2399092  18.4249477  47.4101791   3.5019453  19.6604977
  22.6101913  57.5459785  70.1314163  23.2150021  57.7640610  69.4222794
  22.3940811  56.6247292  69.9870758  41.4752159  30.1638165  67.1520462
  42.1600189  30.7731094  66.8763046  41.1062965  29.8317738  66.3335800
  54.6260796  12.1701441  39.8795547  54.9639702  11.4855051  40.4569054
  54.6813774  11.7921667  39.0018845  14.3485394  36.5920677  10.1865501
  13.6513739  36.6551514  10.8393993  14.1189890  35.8232765   9.6645346
  28.4138851  52.6088753  30.0202713  28.8071175  53.1510696  29.3364410
  27.5947456  53.0539627  30.2373905  31.2867012  64.6645279  74.0419998
  31.7850876  64.9389954  73.2722549  30.6022778  65.3274765  74.1330795
  40.2211876  32.8451653  76.0339661  40.7757912  33.4573288  75.5503311
  40.6777725  32.7134552  76.8648758  26.5908051  59.7682037  73.7402649
  27.4006462  59.2856865  73.9062881  26.0771408  59.1879120  73.1784439
  29.4537392  45.3216591  86.6269684  29.2938652  45.9035378  87.3699951
  28.5815907  45.1236954  86.2857971  74.0398636  39.3894539  58.6967125
  74.8122940  38.9300575  58.3672676  73.5563583  38.7242470  59.1865654
   1.2109357  46.2761917   7.3342543   0.8050843  46.6713676   6.5626640
   0.6790158  46.5832443   8.0684280   1.3206533  42.7634315  86.0643845
   0.4265765  42.5332603  85.8116379   1.3536165  42.5970001  87.0064240
  15.9477158  70.1565628  14.6006737  16.8600101  70.1865845  14.8888569
  15.6709137  71.0727539  14.5859585  29.8266678  10.5625868   2.2397740
  30.6627827  10.9449224   1.9733824  29.1683121  11.0780334   1.7738187
   3.6225369  14.2673368  58.7815208   3.3064778  15.0487871  58.3280067
   3.4709890  14.4507399  59.7086830  72.4981384  57.2694588  16.4617538
  72.9772339  56.4892311  16.1825714  72.8978043  57.5095825  17.2977219
  36.5174484  64.9942398  34.7551727  35.8447456  64.4871445  34.3006897
  37.1053619  65.2895508  34.0599174  75.8273239   5.8536835  17.3739929
  75.7925186   5.8638606  16.4174786  75.8580399   6.7775817  17.6223888
  69.2797241  39.8513947  89.0308228  69.0827103  40.6804619  89.4667892
  69.1328506  40.0285530  88.1016922  69.0884552  43.2698860  78.6058960
  68.4398880  42.6650352  78.2456894  69.1548996  43.9665756  77.9528732
  57.9318886  70.8858185  23.1706219  58.1345062  71.3016357  24.0086365
  58.3625679  71.4386368  22.5186005  65.7192535  51.2216949  26.3840446
  66.1264954  50.4774590  25.9407635  65.3965683  50.8612289  27.2099838
  79.1278839  32.9573975   7.2705779  80.0157318  32.8853607   7.6209531
  78.8029938  33.7909851   7.6108971  85.2142639  44.8022423  72.2663040
  85.1983337  45.3710518  73.0360031  86.1434402  44.6276093  72.1167297
  53.7501259  13.8276510  12.3279476  53.3553658  13.0846338  11.8715248
  54.6886940  13.6397572  12.3243523  20.1459389  28.1632366  10.6090918
  19.2139721  27.9452038  10.6204786  20.5884571  27.3187637  10.5238008
  25.7907848  56.6501045  70.7405243  26.2395306  55.8539314  70.4559784
  25.0695438  56.7534103  70.1197357  20.7367687  33.5071831  21.0292015
  20.9046268  34.1243362  21.7413635  21.2439404  33.8479805  20.2924061
  60.3580399  37.9480247  19.2041721  60.8433609  37.2860756  19.6966362
  60.3808784  37.6376762  18.2989693  57.5202599  67.0287170  89.0141907
  57.0866852  67.4104385  88.2509537  58.2664604  67.6051483  89.1789627
   1.4517761  69.0508194  64.1793747   1.0891303  68.9930191  63.2954178
   1.0274924  68.3395691  64.6593094  28.3044949  45.0702667  24.0251675
  29.2382412  44.9478340  24.1965160  28.2666893  45.3958397  23.1258316
  73.3491592  52.0946121  48.1277008  73.6979523  51.2057953  48.0599785
  72.8644638  52.2244530  47.3125687  67.8829041  55.2442360  15.4855614
  67.3031693  56.0057678  15.4711800  67.9353256  55.0005455  16.4097366
  74.6949158  70.3541183  86.4455872  75.5892258  70.4251709  86.7793503
  74.1835938  70.0469208  87.1941910  51.5956383  69.5294189  71.0177612
  50.9928398  69.7838821  71.7164154  52.4168243  69.3342819  71.4692154
  83.9748077  18.6313629  44.4366798  83.1531296  18.1600075  44.5741386
  84.2784653  18.3378906  43.5776672  61.4325600  48.6106682  20.9664879
  61.8703156  49.2099152  20.3619194  60.9240990  49.1810989  21.5429497
  70.7647095  23.7886124  18.6502533  71.3161011  24.5554218  18.4946995
  71.1723709  23.3477077  19.3956699  80.8313675  10.3673935  59.1668663
  80.0468597  10.9158220  59.1709061  81.4192810  10.7857189  59.7958260
  28.5824947  69.1706009  88.5134964  28.0065823  69.1434708  87.7494202
  29.3976269  69.5504913  88.1856689  40.9371376  20.3573494  65.9789734
  40.7909889  19.4311180  66.1712418  41.0250206  20.3932858  65.0264969
  79.9302139  53.4464836  77.7165070  79.2187653  53.0964165  77.1802979
  79.6307144  54.3190460  77.9717865  60.7332458  12.0052671  70.2990646
  60.5273743  12.5682507  69.5528107  60.5366554  11.1199999  69.9926605
  55.6903381  65.5884018  16.3865070  55.3237190  64.7445297  16.1225014
  55.1895103  66.2337570  15.8875866  55.5016098  32.9962997  81.2127228
  55.6537628  33.4598465  82.0362549  54.6762924  32.5309219  81.3487701
  27.1642876  65.0174026  18.4016609  27.9262867  65.5568390  18.6128502
  27.3574562  64.6586227  17.5355244  56.2157059  19.3995895  46.1228561
  55.7823715  19.9758911  46.7524033  55.5219803  19.1445522  45.5146408
  55.7737465  68.7122116  61.6882744  54.9764595  68.5573349  61.1817398
  56.1010017  69.5530472  61.3686867  35.4029083  62.8171959  27.6706390
  34.9816551  63.6114273  27.3420410  35.5598946  62.9954414  28.5979023
  64.3454819  18.5178642  17.9578400  64.7509232  19.1558075  18.5450974
  65.0587845  17.9266605  17.7172070  19.3435497   4.7702622   2.5374289
  19.6420765   4.4747744   1.6773123  18.6158390   4.1865978   2.7519178
  80.5708771  67.3039246  19.8187618  80.0760040  67.3252945  18.9996948
  81.3771133  67.7817230  19.6240082  51.4265175  54.8092499  81.4596863
  51.7655182  55.4784889  80.8651886  52.1818466  54.2528000  81.6496277
  27.7353764   5.5856094   8.5793686  28.3951759   5.5402470   7.8873873
  27.1107826   6.2426305   8.2720613  81.3987350  30.8492432  39.1424026
  80.8117981  30.2443943  38.6886444  80.8424683  31.5920296  39.3770676
  69.3606644   6.0274644   8.9500437  70.0460510   6.2722831   8.3283176
  69.0068436   6.8620782   9.2573948  86.5964127  63.3658295  24.5676785
  86.1562881  62.9249153  25.2943897  85.9742432  64.0343781  24.2810135
  77.9283600  50.6079369  64.0178299  77.6228256  49.8317795  63.5482903
  77.6676941  50.4563522  64.9262924  45.1189690  51.4443817  62.2874832
  44.6346550  50.6353264  62.4521103  44.5074615  51.9941063  61.7974930
  53.0125656  42.2986450  17.5114937  53.8283844  41.8119049  17.6287804
  53.0617332  42.6365929  16.6172886  24.7177601   4.2140565  27.4895821
  25.6506138   4.0455790  27.3568096  24.3258553   4.0856123  26.6257858
  63.3395004  68.5392456  40.9171448  62.8877754  68.3924866  41.7481918
  64.2686234  68.4555588  41.1315308  76.3821793  34.8321686  59.2395554
  76.7627563  34.0479164  58.8441544  75.6765137  34.5017548  59.7955132
   0.7650604   7.0860696  44.6732140   0.6624345   6.2734218  44.1779327
   0.4699125   6.8668289  45.5569878   7.1039534  17.2570820  10.3241110
   7.8314071  17.7148037   9.9027634   6.6391268  17.9400234  10.8075991
  45.5702934  48.2052231  45.2980690  46.0662537  47.5681686  45.8122902
  45.8988228  49.0558434  45.5891800  41.1126900  66.7491531   5.6920052
  40.7312050  65.8785782   5.8051753  41.5263023  66.9406738   6.5337172
  66.9533920  33.0273895  61.7420349  66.0132828  32.9613037  61.5745277
  67.2067108  32.1518364  62.0343781  51.8967590   4.0844059  36.8451309
  51.0591164   4.5474577  36.8322716  52.0349998   3.8649535  37.7665253
  55.1516571  52.9949265   4.6535692  55.6335068  53.0589790   5.4781599
  54.2871819  52.6705093   4.9058948   8.8460855  27.1368256  87.0486374
   9.3271275  26.3117981  86.9841690   8.1774731  27.0781975  86.3661804
  36.5869560  54.9008598  32.1579018  36.1361656  54.5773621  32.9378815
  36.0019798  55.5705910  31.8036499  22.5190220  22.2957516  80.4270248
  21.6251755  22.3578453  80.7637939  22.4545517  21.6929340  79.6862946
   3.8490560  27.6618004  21.2255802   4.3534603  27.7986507  20.4236584
   3.4737284  28.5201874  21.4218769  41.1260300  49.3889923  27.2490406
  40.7834892  49.9945030  26.5915813  41.1923866  49.9139748  28.0466766
   7.8363690  44.0518150  73.7918472   7.6577668  43.1145821  73.8688278
   7.0566206  44.4101944  73.3678284  83.3181534  67.3286591  17.9404869
  84.0082474  67.8558731  18.3430386  82.7348633  67.9687119  17.5326519
  62.6403923  32.6356850  27.6057949  63.2772293  31.9319515  27.4815884
  63.1728745  33.4170761  27.7545300  78.8111877  12.1134968  25.1931534
  79.2630920  12.4341927  25.9736462  79.3439789  12.4267273  24.4622269
  45.6963043  32.0993042  75.4317322  45.8804741  32.9322891  74.9976273
  44.7433701  32.0163040  75.3963013  35.2192116  60.6561470  12.0227633
  34.3856163  60.1880493  11.9754725  35.0337791  61.5145950  11.6420879
  12.6330929  47.2047386  -0.1453808  11.9214268  47.3683510   0.4734848
  12.5843468  46.2655373  -0.3235873  72.1071472  47.3293304  56.5298538
  71.3975754  46.9356804  57.0375786  72.1166458  48.2467232  56.8028564
  75.2706375  34.2721558   6.4569440  75.6736145  34.7904358   7.1535258
  74.9102325  34.9215736   5.8531270  54.9679337  67.1958466  22.4986210
  55.4461937  67.8823013  22.0335522  55.4258728  66.3872681  22.2690258
  52.9908638  17.3474388  20.6248188  53.9060059  17.1114330  20.7766418
  52.5080566  16.5314999  20.7566204  45.5147972  25.3178806  65.6223755
  46.3448257  25.2945156  66.0985489  44.9426117  24.7247257  66.1091995
  32.0003700  66.5409088  42.3187675  31.9094028  65.7798920  42.8921852
  32.6669922  66.2828293  41.6821861   4.2372627  15.0537844  77.9025192
   3.5432520  15.2197227  77.2645187   4.8712440  14.5129557  77.4315643
  55.6836319  57.7606735  59.9259415  54.9827766  57.1238289  60.0654449
  55.9297523  58.0427780  60.8068924   2.2264943  56.1352310   7.4116082
   1.9470503  55.4674950   8.0379248   1.6934048  56.9012451   7.6243830
  47.7148781  21.9026031  87.8727722  47.1931839  22.5153332  87.3544846
  48.5848732  21.9324722  87.4747162  69.6491852   7.0064425  28.3339443
  70.2214050   6.7589183  29.0602531  68.7989349   7.1675034  28.7430496
  55.0967178  31.7073040  23.9089890  55.8530350  31.9158859  24.4573555
  55.2751312  32.1468925  23.0776272  50.2912598  15.5576935  45.1521912
  50.6205521  14.7646713  44.7292099  50.2991714  15.3515272  46.0868912
  35.0658875  55.8725090   8.5689182  36.0173645  55.9740257   8.5937052
  34.8533554  55.4084320   9.3786678  67.0460129  28.5651569   3.2895896
  66.7506104  27.6586418   3.2047591  67.4012070  28.7829552   2.4278274
   8.8595476  24.6593895  11.1452856   9.6012945  25.0064373  11.6408672
   8.7995310  23.7427616  11.4144030  18.4946041  67.5598984  58.9780350
  18.8627777  68.4193573  59.1829872  18.3602409  67.1472473  59.8312035
  61.2511482  25.0271053  29.8194351  60.5166664  24.7338181  30.3586445
  60.8507080  25.5837002  29.1515408  45.0779266  20.7752647   5.4066443
  44.5752678  21.3398647   4.8194566  45.9903450  20.9224167   5.1575022
  69.1787872  54.5971985  68.2864456  69.1207428  55.5398521  68.1306686
  69.2083817  54.5133133  69.2395096  49.1276169  23.9954281  17.2374306
  48.9807396  23.0826797  16.9893341  48.3162651  24.2591934  17.6714420
  23.4563637  14.6147642   7.1113601  23.3696918  15.5637960   7.2011323
  22.9290848  14.2574482   7.8258777  80.1574478  28.7325935  29.5187092
  81.0532761  29.0453949  29.6447411  79.8603897  28.4963436  30.3974438
  81.6764755   9.9050541  13.3093691  80.9079514   9.6238680  13.8058882
  82.1601105  10.4672298  13.9145870  73.0563507  56.0291023  58.2276382
  72.5965271  55.3087578  58.6587944  73.9738541  55.9079895  58.4720726
  64.4523468  48.8137970  47.8558502  63.9870720  49.5657043  48.2224350
  64.5317688  49.0128593  46.9229507  43.5465927   1.1240597   6.7349758
  44.3455276   1.6329304   6.5971875  43.1922913   1.4534367   7.5609384
  24.1053295  52.7228966   2.7581599  23.9111614  53.6575584   2.8284054
  23.2657623  52.3198128   2.5370593  52.8410950  63.4601250  75.3674545
  51.9523811  63.1557159  75.1837158  52.7194557  64.2901611  75.8283920
  37.8253212  57.0044594  41.6266708  38.5313873  57.1775665  42.2493553
  37.3225975  57.8186493  41.6021881  63.7589035  31.2016487  56.3238525
  63.0783195  30.6647739  56.7298164  64.0029907  31.8318386  57.0017281
  78.5096588  36.4382477  79.9612732  77.7349014  35.8860893  80.0666962
  79.2418823  35.8220901  79.9405823  40.1816902  66.2821884  51.0491409
  40.8319130  66.3670578  50.3518333  39.9666595  65.3495712  51.0639076
  23.0677814  50.8507919  42.2874718  23.3857822  51.2550774  43.0947266
  23.7451229  50.2157784  42.0546684  13.3214750  54.3867607  51.0329094
  13.0789623  54.3545990  51.9583206  12.4858665  54.3822632  50.5660362
  30.3472385  19.6754017  13.9748974  30.7281723  20.5176411  13.7263927
  29.5135021  19.9018764  14.3869934  68.1654816  44.4563217  34.5848579
  68.4070969  43.7195015  34.0236549  68.7639389  45.1583176  34.3293610
   7.3394899  41.6364059  56.7125969   7.0297246  42.5232773  56.8962593
   7.6236382  41.6663361  55.7990341  66.8365097   6.3906021  88.6527557
  66.1600037   6.4175782  89.3293991  66.9176102   7.2979460  88.3588486
  68.7409668  71.1482239  11.1863661  68.3327637  71.9746246  10.9281826
  69.1246643  71.3284531  12.0445766  70.7705154  22.0968666  86.3068542
  69.8768387  22.2155895  85.9851837  70.9151077  21.1514130  86.2688980
  82.1299438  37.2573586   3.9128675  81.5867844  36.5124283   4.1703229
  81.5433807  38.0117836   3.9677637  12.1652842  34.0904274  68.4028320
  12.3944139  34.8133316  68.9869080  11.7987318  34.5158005  67.6276398
  70.9332275  27.8726883  15.4128475  71.2166443  28.6825199  14.9884882
  71.0124817  27.2049065  14.7316608  85.9259644  61.9062538  89.3056564
  86.4719238  61.1330872  89.4484024  86.2289505  62.2625313  88.4704971
  86.7987518  66.1593933  17.4986095  86.3593521  66.9215927  17.1214924
  86.0854721  65.5941086  17.7951145  28.9240665  48.9712601  68.7449341
  28.3540363  48.7254143  68.0163345  28.6596794  48.3939743  69.4612274
   5.0321598  59.0876846  15.6447239   4.6827884  59.4592094  14.8346996
   5.9556637  59.3394203  15.6448994  73.8766479  12.7539959  49.6657944
  73.4818192  12.8641024  48.8007965  74.1457520  13.6366138  49.9203529
  18.6828804  62.4407616   1.7069299  18.2546673  63.0076332   2.3484299
  18.3242817  62.7191010   0.8642169  21.6759892  44.9249840  14.6395025
  22.3631973  44.9589233  13.9740505  21.6187172  45.8212738  14.9705849
  86.2151642  61.9746590  28.3690186  85.7752457  62.4986229  27.6995697
  85.6578140  62.0577469  29.1427689  43.4575195  20.6577682  81.5198059
  43.3134003  19.7118378  81.4937820  44.0050468  20.7954502  82.2927780
  55.5353584  21.6616554  42.2125626  54.9454460  21.1814156  42.7935982
  55.6715736  21.0732536  41.4699554  38.8912392  39.0387802  59.5887680
  38.7332039  38.8487854  60.5135193  39.8343201  39.1930695  59.5337219
  47.0476875  50.9434853  52.8493233  46.7719841  50.2096367  53.3985863
  47.5464211  51.5094986  53.4384956  73.3920288  13.1084232  47.1482201
  73.9043579  13.7380142  46.6409035  73.7437897  12.2547112  46.8958855
  56.1772804  16.8608894   2.5984101  56.7527008  17.3656712   3.1731455
  55.2940941  17.1442757   2.8348532   3.6518111  23.9088478   9.2580605
   4.4438834  23.4071712   9.0652561   2.9338195  23.3039551   9.0714493
  12.0553827  18.6419430   8.6629934  12.3843021  19.3479195   8.1065397
  12.5283279  18.7474957   9.4884701  71.5260239   6.8539939  82.6499405
  70.6536636   7.1730804  82.4188461  72.0989685   7.6102829  82.5234680
  63.4498901  68.6867752  19.7215614  64.2831650  69.1515579  19.6450138
  62.8087502  69.3732834  19.9056339  32.9185524  51.4166641  24.2769680
  32.9985237  50.4682350  24.1754055  33.7453041  51.6851845  24.6777363
  73.8689041   1.7866589   1.8449365  74.3097992   1.4268931   1.0752543
  73.5021362   2.6180515   1.5440979  56.5784607   7.9862552  19.8003330
  56.3663635   7.1548882  20.2246857  56.2035027   8.6519814  20.3769169
  35.7827225  34.7386436  80.6437073  35.8971252  34.5633240  81.5777359
  35.9583054  33.8989220  80.2191315  54.0895157  21.1732998  58.1365089
  53.6969452  21.4203243  57.2991905  53.7142715  21.7875652  58.7674599
  44.8661537  43.1538315  83.6521988  44.7331238  42.5699158  84.3989105
  44.5129509  43.9955025  83.9404221  65.9461212  42.2424774  60.3931084
  65.6075134  41.6737480  61.0845757  65.4220200  42.0215683  59.6232071
  48.5147667  43.6932335  41.0438805  47.6804428  43.3344078  40.7415924
  48.8538055  44.1778641  40.2912712  31.0414715   8.5770426   4.9945378
  31.6130753   8.5051622   4.2301192  31.5822411   8.2807798   5.7266774
  50.8992271  68.1779099  54.8657227  50.8436356  68.5934219  55.7262421
  51.8187637  68.2675476  54.6154213  37.1195183  56.9107590  25.8616524
  37.5334969  57.5728836  25.3080788  36.1848869  56.9889526  25.6703873
  61.0242386  63.6200600  26.8018246  60.4885674  63.8319168  27.5662880
  60.6369591  64.1288834  26.0895424  62.8745232  11.9924202  40.5406303
  63.3838997  11.2170496  40.7763634  62.2659187  12.1100311  41.2700157
  40.5001831  67.5284958  11.2525530  40.1013374  66.6586990  11.2771730
  41.4156494  67.3789749  11.4887753   7.6730862  28.4255524  79.7577209
   8.6160231  28.2951965  79.8582687   7.5964956  29.1683102  79.1588211
  77.5062027  37.9526634  67.0891876  78.2171021  38.3527565  67.5899734
  76.7892227  38.5844269  67.1444550  61.7532349  11.7965488  55.8529282
  60.9795685  11.2765598  56.0703773  61.5014267  12.6972847  56.0566444
  13.4382763  10.4664021  83.6141281  13.1749926  11.3022795  83.2291260
  14.2115145  10.6768045  84.1376343  46.2220764   5.8147869   9.7105465
  46.6029587   6.4351559   9.0890141  46.6541100   6.0124936  10.5415030
  84.7439880  38.5544472  62.9022751  85.4355927  39.1593132  62.6338577
  83.9307251  39.0000000  62.6649666  72.8605118  68.9176178  49.0278053
  72.8245239  69.5712280  48.3294373  72.8772125  68.0776520  48.5690918
  81.0157318  13.3223238  30.4898872  81.0976944  13.0711689  31.4099064
  80.2199097  12.8820829  30.1914139  70.4925919  11.3700523  87.8661270
  71.4403839  11.5014105  87.8918991  70.2066345  11.5109568  88.7686768
  64.7602386  17.9034863  22.1113453  64.9987793  17.1557636  21.5634022
  64.6953888  17.5417252  22.9951744  84.4240646  45.4326591  51.3264389
  83.4958038  45.2294235  51.2112808  84.8110580  44.6153564  51.6402702
  48.8201942  55.4959412  39.5036011  48.0413780  55.7232704  40.0115356
  49.4596252  55.2153091  40.1582794  21.0749187  63.7030602  84.1317139
  20.9000320  62.7730865  84.2759399  21.9954395  63.8134041  84.3698273
   4.8753424  22.5056820  69.0061874   4.0393143  22.0481358  68.9170761
   4.8357329  23.2059784  68.3548508  50.7587128  63.5753250  71.0025864
  50.2500000  62.9072838  71.4621124  51.2824364  63.0842247  70.3695297
  52.8543587   9.8495512   8.0931225  53.1535759   9.1307945   7.5362659
  52.9530487  10.6309967   7.5492153  29.6638069  14.1621466  86.1781158
  30.0367241  14.4603052  85.3484955  30.4090157  14.1303816  86.7780151
  63.9632149  24.1774979  57.2577324  64.7910767  23.6989021  57.2150917
  64.0510788  24.7399445  58.0272560  15.2035818  66.3245850  30.5180225
  14.9233150  65.9575882  31.3564720  15.9634390  66.8647385  30.7350121
  35.1514473  31.5577698   4.0164800  34.3674431  32.0775108   4.1937866
  35.8772163  32.1698036   4.1385722  46.7501945  54.4029503  37.0256386
  47.3972549  54.6969643  37.6668053  46.2320328  53.7468987  37.4918327
  67.2225189   9.9361038  43.0829201  67.9186630   9.4813080  43.5570259
  66.8493958  10.5392265  43.7257690  20.6188164   1.0070976  22.5215473
  21.2991047   1.0187656  23.1948261  20.8549099   0.2724150  21.9552155
  38.0220070  68.6483078  56.6045761  37.3734093  68.5432968  55.9084969
  37.9925194  67.8215866  57.0861320   0.1177281  18.8715630  52.1352539
   0.7987395  19.3961601  52.5562668   0.5938465  18.1600342  51.7071533
  86.1053314  20.1112766  48.6253166  85.3461227  20.6742401  48.7766800
  86.2406998  20.1412506  47.6782112  24.9936485  39.3393936  65.7169952
  25.4209194  39.2022591  66.5624924  24.3294296  38.6517639  65.6699677
   0.1789330  55.1599960  57.8452835   0.4907214  54.3894310  58.3198891
  -0.5874322  55.4515991  58.3391266  20.7202320  60.8041611   5.5032310
  20.8403053  61.6320305   5.9684711  20.0624886  60.9979553   4.8353610
  34.3469124  29.4099464   0.9442588  34.8321571  30.2292042   1.0421765
  33.4574432  29.6836987   0.7203444  10.4904957  44.8985863  73.7240295
   9.5677481  44.9487000  73.4745102  10.7593946  44.0154533  73.4710464
  78.4637070  21.1214695  33.9399376  78.8710709  20.9136772  34.7808304
  78.2657547  22.0564041  33.9942245  48.2630692   4.9601350  42.1164627
  48.8951149   4.2638941  42.2953453  48.6713791   5.4827428  41.4262466
  26.8719692  40.9847412  34.1933861  26.6198673  41.1915550  33.2934418
  26.6890392  40.0496101  34.2844772  58.6264381  65.8790588  83.7900696
  57.6754417  65.9793777  83.7480316  58.8749695  65.5828018  82.9144592
  68.9805908  52.9113121  79.7361450  69.6068954  52.5694084  79.0981216
  68.5772018  52.1314659  80.1174011  72.2745209  61.2587090  54.6997566
  71.4593201  60.8596954  54.3956680  72.8936157  60.5303802  54.7497063
  47.8059921  16.7215633   8.8618488  47.8349075  17.3386993   8.1307259
  48.3756409  16.0018063   8.5904102  62.9032707  13.9454823  74.5663757
  62.4963531  13.9519043  73.6999969  62.6686096  13.0938005  74.9348907
  77.3906097  56.4039154  11.0950956  77.8659134  56.1769981  10.2958326
  77.9002991  56.0026512  11.7989655  63.2959595  27.8655968  49.8981514
  62.9245415  26.9894371  50.0012360  63.2720299  28.0264263  48.9548645
  54.7118034  36.9658737  29.4686947  55.5410004  37.1336060  29.9164982
  54.9087791  36.2555542  28.8580532  75.2152863  51.6581116  27.0257664
  75.1598969  50.7772102  26.6553917  75.3371964  52.2294960  26.2675495
  46.9149284  62.9304695  60.7612152  46.7631989  63.4498634  59.9716339
  47.4562607  62.1983414  60.4659462  16.2064190  38.2222290  33.2184944
  15.9233198  37.4260368  32.7688675  15.8385496  38.9355431  32.6968765
   4.3753891  48.1820259   6.6038151   3.8032916  48.0451241   5.8487024
   3.7866392  48.4707069   7.3011446   1.7704489  46.9095383  13.6063204
   2.3650599  46.9064407  14.3564272   1.0550951  46.3286705  13.8653488
  42.0001717  42.9101715  17.2344704  42.6037254  43.6497307  17.1637192
  42.5684471  42.1430473  17.3038769  50.0981598  28.3488216  70.9644699
  49.8670883  27.7084923  70.2915573  50.1353493  27.8413925  71.7752533
  81.5657654  40.8541679  20.2538166  81.1671677  40.7956924  21.1221104
  80.8939056  40.5210800  19.6589279  28.9467430   2.3253996  23.3866711
  28.2481747   2.7292569  23.9015808  28.4893322   1.8557500  22.6892223
  36.8525581   4.9741812  23.3764362  36.7532082   5.8681474  23.7038288
  37.3364220   5.0718441  22.5563316  52.3002129  30.5630264  51.2961311
  51.5599060  30.7349815  50.7142296  51.9174995  30.0963936  52.0391121
  66.5669403  28.1107368  71.2693939  67.4225540  28.4130726  70.9648361
  66.5823975  28.2608662  72.2146225  26.6113262  48.5525093  30.0816021
  25.7236233  48.8247147  30.3142395  26.8734360  47.9616737  30.7876072
  30.1983719  51.5956917  31.7882423  30.7194748  51.1447258  31.1239262
  29.5957470  52.1454735  31.2874260   3.5405719  46.1572533  20.3622856
   2.9075377  46.8610916  20.5040894   4.2432189  46.5654068  19.8563938
  58.2867928  17.4659863  82.2372437  58.3982201  16.5174446  82.1733322
  59.0314445  17.7598019  82.7620239   5.6885471  59.1082573   4.9223585
   4.8306370  59.5320244   4.8970008   5.9607239  59.0634232   4.0057659
  35.0470047  63.1519012  21.8338909  35.9036598  62.7732925  21.6363258
  35.2382660  63.8847809  22.4191589   6.1608071   3.9014223  78.6588058
   6.5015597   4.4103131  77.9231720   6.0598378   3.0154600  78.3107986
  40.3604965  34.0113602  87.2034073  39.5230370  33.6645279  86.8958359
  40.9420815  33.9392433  86.4465790  82.4405746  66.0422668  87.7626266
  81.5688858  66.2627487  88.0909195  82.6618729  65.2216949  88.2029877
  24.7240982  63.5941391  34.0127182  24.2252560  64.4038391  34.1212463
  25.5355644  63.8682098  33.5853539  50.9225998  39.4944382  31.9388485
  51.5097847  38.8173637  31.6026745  51.1353149  39.5551262  32.8701401
  14.8454552  59.0376854  36.3140564  15.6694622  58.8203011  35.8781776
  14.5878191  59.8776131  35.9340935  31.9231796  48.2922554  78.6566467
  31.8424969  48.8828773  77.9077225  32.0614891  47.4289436  78.2670288
   7.4555631  56.2671738  83.3989944   7.1361923  57.1649094  83.3078613
   8.3089037  56.3584099  83.8229294  13.6093016  61.3704147  78.5535049
  13.8244610  61.3871765  79.4860535  14.4353857  61.5708694  78.1134644
  71.6487961  61.5177841  73.6220551  72.2414551  61.3665733  72.8857727
  72.1565475  61.2667999  74.3936920  28.2154579  33.4550743  10.8530998
  29.0474033  33.9250336  10.9099989  27.9008274  33.4148788  11.7562189
   6.9774342   5.3273673   8.2365952   6.8228455   4.9430876   7.3736563
   7.2560797   4.5906057   8.7804432  73.2329712  32.4183540   5.4031591
  73.6795959  31.8331623   4.7913470  73.9158630  32.6902657   6.0163097
  81.8057938  26.8425026   2.1077046  81.0667114  27.2848835   1.6902219
  81.4843750  26.6091690   2.9786119   8.5142946  11.8739529  14.6355991
   8.2909517  12.2532320  15.4855976   7.6844196  11.5366039  14.2983541
  18.9763374  49.7723160  14.1711826  19.1776466  49.9081688  13.2453041
  19.7108707  50.1718102  14.6371193  72.3165894   9.2157555  11.4354010
  71.3622513   9.1532936  11.3956766  72.4864044   9.8466749  12.1349258
  29.5930500  42.5408478  68.9268646  28.7200794  42.3958015  69.2917099
  30.0567760  41.7177505  69.0808182  76.1574707  63.4421501  85.2889099
  75.3564148  62.9386978  85.4341202  76.4176178  63.7354546  86.1621399
  36.5765533   7.5900893  12.6195908  35.7171936   7.6886110  12.2096815
  36.9001656   6.7485418  12.2981796  30.3424587  28.8107071  85.7559509
  29.5447578  29.3269043  85.8718948  30.5270538  28.8624840  84.8181458
  78.5980759  31.0754089  84.1162186  78.3771820  30.6184120  84.9277496
  78.8393936  30.3779659  83.5066528  61.4480171   4.3006210  45.8405914
  61.7207108   4.8028493  45.0727119  61.6460953   4.8715482  46.5829124
   2.4051094  48.4208298  64.5622025   1.8465616  49.1882401  64.4383545
   1.8257579  47.7622604  64.9454346  44.4736061  22.6450329  10.1754179
  44.5571861  23.5925331  10.2826099  43.5914192  22.5204811   9.8254633
  82.3220139  20.3315773  35.4758110  81.6925659  19.6491318  35.2427902
  83.0215378  20.2433681  34.8284187  58.0312500  49.6180420  52.6185608
  57.5236511  50.3093605  53.0435905  58.8812866  50.0202942  52.4400597
  65.2058792  58.9906006  24.0807724  65.0194244  58.8976555  23.1465206
  66.0536652  59.4338341  24.1128712  19.2871780  70.7114105  76.2907028
  20.1051426  71.1927872  76.1664352  19.3811665  69.9335098  75.7409058
  36.4737015  60.2885323  64.6636429  36.3074303  60.8557663  63.9107666
  37.2290649  60.6836433  65.0990219  37.3501549  18.2417755  80.7188263
  37.9096451  18.7119179  81.3370285  37.6445580  17.3325844  80.7729721
  37.5103455  40.2887917  66.5309525  38.3178024  40.6777573  66.1948776
  37.7571487  39.9197464  67.3789673  67.9276657  66.7148743  41.6240196
  67.0538940  66.4035187  41.8602753  68.1072083  67.4196014  42.2463989
  54.1729431  26.2842579  34.9983368  53.8782463  27.1195240  35.3612633
  54.8960381  26.0181370  35.5662689  84.4357071  60.7901268  50.1676788
  85.2843704  60.8948860  49.7375221  83.8369675  61.3289986  49.6506195
  34.2703476  34.6653061  20.0247078  33.7252655  34.2974243  20.7202511
  35.0198479  35.0450134  20.4832935  43.3512230  54.0398941  88.6127777
  43.3499947  54.7469101  89.2580338  43.8629951  54.3844376  87.8809280
   2.2645109  60.1127625  83.4105606   2.1982923  59.8534431  84.3295822
   1.7458359  60.9149780  83.3500824   0.6464397  49.9752846  84.1244965
  -0.1727784  50.4303551  84.3194962   1.1735629  50.6216621  83.6548538
  42.0253410  69.5871811  87.3075409  42.7413368  69.0195236  87.5927505
  41.2429199  69.0405502  87.3799591  18.7248020  41.7947502  30.7260342
  18.9186821  40.9630051  30.2937832  18.6722889  42.4294930  30.0114880
  36.0253410  47.5366898  71.8791351  36.6204033  46.9808617  72.3823166
  35.3197594  46.9490547  71.6088104  72.1619339  62.6901398   0.5697865
  72.6974640  62.7420158  -0.2218833  72.7786484  62.8398132   1.2863709
  41.6339188  62.8228798  71.3528748  40.8774796  62.2368088  71.3762894
  42.0018539  62.7744217  72.2352066  84.7320175  61.9227371  34.9456139
  83.9990921  61.3225937  34.8082085  85.1715851  61.5888748  35.7276268
  64.8656998  45.5261230  84.9220810  65.2557602  45.2715607  84.0858459
  65.6093521  45.6023331  85.5199127  67.5984497  56.4002609  27.4630814
  66.9487457  56.7588501  26.8584976  67.1209106  55.7380028  27.9626789
  46.6548195  43.8585892  48.4166756  46.4461632  43.9041214  49.3497467
  45.9997177  43.2625885  48.0535583  28.9738560  64.1115799  66.1778030
  28.8816719  63.5541267  65.4051590  29.8957996  64.3689728  66.1788254
  63.3402977  57.1568069  50.8936234  64.1818161  57.5657539  50.6915283
  62.7296028  57.8900337  50.9688492   0.1802714  47.4330788  24.8453083
   0.8430794  46.9398804  24.3619137  -0.5007520  46.7898598  25.0420570
  12.2974806  35.0822411  28.1833858  12.1457014  35.8055992  27.5751495
  11.9632435  35.4003487  29.0220318  45.2420120  57.0463181  65.0187073
  44.9938202  57.9660912  64.9257202  45.5853386  56.9797897  65.9097443
  52.5115776  15.7449341  67.5398178  52.2120781  16.5936775  67.8656540
  51.8051796  15.4452066  66.9676361  86.4087677  35.1553078  47.2750740
  86.5227509  35.9423180  47.8078575  86.7313461  35.4037323  46.4087830
  12.7840405  36.5846596  89.1374435  13.1061783  36.4546204  88.2455063
  11.8317108  36.6154099  89.0460510  59.3158302   6.8678231  40.0327797
  59.5102577   6.6980257  39.1110420  60.1201820   6.6314511  40.4947166
  79.8323517  56.4164162  74.2090607  80.6178513  55.9050140  74.0149307
  79.8478088  57.1304016  73.5717087  60.1921120   3.3485107  39.2648659
  60.6853485   3.6339352  40.0339470  60.0491028   4.1497707  38.7611160
  86.1682663  11.5998182  35.9557533  86.0630341  12.5081921  36.2386208
  86.5915451  11.1658020  36.6964951   3.1378064  -0.0925194  32.1431465
   4.0554261  -0.1471625  31.8762779   2.8605413   0.7819192  31.8698120
  21.4632530  64.6499252   9.5367813  21.2072544  64.3661270  10.4143648
  20.8335266  65.3353577   9.3135042  44.2074165  17.8802910   3.3370697
  44.6824417  18.1821594   2.5628228  43.4770699  18.4928951   3.4239323
  19.5384789  36.9066277  19.4491043  19.2227898  37.7843933  19.2344017
  19.9652634  36.6029663  18.6479321  30.7223167  69.3437347  21.5430775
  31.0128441  68.8012466  20.8099155  30.6770477  68.7400513  22.2845287
  14.3518353  36.4656487  38.8936157  13.9440727  37.3269806  38.9834518
  13.6181841  35.8665733  38.7554245  74.4552765  46.0583382  68.9047699
  74.0624924  45.6146202  68.1530609  75.1935196  45.5017204  69.1525726
  70.7538528  10.3878946  17.0018864  71.6289978  10.7755260  16.9926434
  70.2406769  10.9410000  16.4128551  78.5097885  31.3002205  88.1695709
  77.9180679  30.8768692  87.5475845  77.9502182  31.5374203  88.9090576
  51.1349945  10.2654562  32.2604294  51.5603142  10.8642178  32.8742828
  51.8418274   9.7004976  31.9482746  58.1806221  30.3072681  65.9835129
  58.7083244  30.7785969  65.3388367  58.5392876  29.4198036  65.9838867
  71.5187988  48.4265442  35.4561386  70.7112350  48.8903046  35.2347603
  72.2074127  49.0839729  35.3570023  25.2363091  49.2696266  41.8445702
  25.1336155  49.0325775  40.9228897  26.1803684  49.3770638  41.9604950
  11.8553400  57.9303665  36.7854080  12.1793995  57.5552101  35.9665871
  12.5924568  58.4382668  37.1244164  48.9595871  71.0037689  51.1773605
  48.2413330  71.5588226  51.4810982  49.2088547  70.4921341  51.9469910
  12.6220865  13.0533390  81.5640717  12.8577623  13.8334579  81.0619736
  11.7014875  12.9004898  81.3510818  24.3781242  12.1313057  33.8619728
  23.9339352  12.7710800  33.3055420  24.8035183  11.5335817  33.2471581
   3.6798980   3.0268199  48.3303719   4.1312318   2.2150998  48.5619736
   4.1941042   3.3893380  47.6089821  37.2148132  66.3998260  50.5003853
  37.6937141  67.2280273  50.4692993  37.4818153  65.9387665  49.7051735
  30.1651649  66.4667206  76.8410263  29.9830379  67.3642120  76.5625076
  31.0110283  66.2596283  76.4437103   1.3030995   9.8571539  87.1421127
   0.8732487   9.1456776  86.6674881   2.1771305   9.5200987  87.3388214
  43.7735863  44.7231712  58.4770699  42.8622856  45.0020180  58.5665550
  44.2677116  45.5396156  58.4030151  16.5464859   6.7799778  77.4722214
  16.9918194   7.1682830  78.2252960  15.6823931   6.5364895  77.8043213
  23.6332321  42.6751099  83.1444321  23.3394547  42.3739586  84.0042191
  23.2032299  43.5222702  83.0275879  29.8599014  25.9649715   7.1563430
  30.7891445  26.1550503   7.2852116  29.5483227  25.6961365   8.0205641
  75.0708847   7.6949139  32.5033150  75.0426865   6.9701929  31.8786411
  74.2744217   7.5931129  33.0243835  29.8084698  54.5157051  63.1700516
  30.0932331  53.6559677  62.8602257  30.3351231  54.6745071  63.9534111
  15.2310963  24.5127144  78.4301376  14.8010626  24.9136028  79.1855164
  15.5475845  23.6695175  78.7543106  79.0859451  22.8283443  41.5071068
  78.9160614  23.4885483  42.1790466  78.8143616  22.0028286  41.9083519
  22.6286850  61.5520515  20.1029243  22.3007088  61.6021461  19.2050629
  21.8473854  61.4025230  20.6353207  37.6626167  61.5433350  33.2037544
  37.5891304  62.0783920  33.9940376  38.6049728  61.4415169  33.0702209
  80.0276031  41.8645058   4.7633629  79.9046326  42.8039627   4.6272402
  79.2038422  41.5688057   5.1509371  72.4619293  70.7367401  59.4003525
  71.9738617  69.9310684  59.5703850  72.3202896  71.2719040  60.1812325
  75.1844864  61.5878601  26.9517689  75.9719925  62.1319237  26.9441395
  74.8333664  61.6871147  27.8366947  41.1463737  68.0363312  45.3758125
  41.6501198  68.8068466  45.6380615  40.3796844  68.3927612  44.9270706
   3.6577058  36.1558990  19.8425217   4.3177395  35.8914909  20.4833603
   3.3160734  36.9845276  20.1785259  64.5904465  27.9937668  23.3138046
  65.1574020  28.6557617  22.9181347  63.7948303  28.4703751  23.5505962
  55.6463776  38.8173256  37.1614151  54.7603226  38.4680862  37.0656586
  56.0598526  38.6573601  36.3130722  33.9607162  13.4972382   0.8676674
  34.7375641  14.0416336   0.9956120  34.3062515  12.6150150   0.7315801
   0.1964411  68.0781860   8.5788403   1.0693729  68.3785324   8.8318539
  -0.3430482  68.2289963   9.3550100  65.4507828  12.8133097  82.8348160
  66.2978439  12.5576296  82.4696579  64.9125824  12.0247154  82.7663422
  21.3497486  60.8022385  89.0176315  21.6685543  59.9108086  88.8763809
  21.8262863  61.3312263  88.3778610  64.4345703  30.1274490  11.3250818
  65.3788834  29.9808540  11.3799925  64.1039352  29.3767509  10.8317595
  10.0390635  38.6565132  48.0016708  10.1714830  38.8629379  48.9269180
   9.3751431  39.2811050  47.7095604  53.4331779  26.4826412  75.7989426
  52.9797401  26.0420990  76.5176544  52.9755020  27.3178596  75.7031555
  56.3189011  20.4561138  66.0619659  57.0873833  21.0154037  66.1753998
  55.5911713  20.9773636  66.4009933  51.0480042   7.2860022  47.3464165
  51.5500107   6.7898116  46.6998749  50.9246063   8.1461821  46.9450493
  46.0878983   2.2076187  16.9304333  46.1762390   1.2547745  16.9531384
  46.7266388   2.5226839  17.5699425   3.0669260  54.9047966  17.7150307
   3.8463535  55.3191299  17.3448219   3.2838881  53.9731064  17.7483540
  76.0557632  67.4944000  11.7561283  76.2544403  67.4602127  10.8203974
  75.1175919  67.6802597  11.7951508  64.2833023  16.2577324  40.0425720
  63.4118919  16.5655918  39.7933846  64.3398209  15.3756495  39.6751938
  47.6883659  62.7274361  43.4691429  47.5150604  61.8167877  43.2305717
  48.6260529  62.8413315  43.3141975  12.9138470  68.4659653  70.3175964
  13.0861063  67.6712570  69.8126144  11.9922266  68.3964386  70.5666199
  60.4469376  30.1552944  78.9075699  60.2562180  29.9546890  77.9912643
  59.5880585  30.1917286  79.3285599  83.9204254  16.2613354   3.4478505
  84.6375351  15.6424618   3.3101082  83.1724625  15.7125826   3.6837630
  50.5514488   6.8871546   7.6192222  50.7877388   6.0727415   8.0632153
  50.5913124   7.5539727   8.3047848  -0.0539047  13.2526932   8.9850321
   0.8544549  13.3298063   8.6931963  -0.0217421  12.6215353   9.7039461
  21.2262249  40.2105408  65.1597595  21.8214550  40.8657494  65.5239563
  20.8385468  39.7870941  65.9256821  31.2544441  67.8304596   9.2608538
  32.0519753  67.3015213   9.2809172  30.8641300  67.7082062  10.1262684
  56.4764900  44.7953148  25.1619091  56.2548370  44.3229790  24.3594112
  57.2504730  45.3091621  24.9313755   4.6671362  39.9979591  67.3393784
   5.5623536  40.3252831  67.2517776   4.1297994  40.6447258  66.8820038
  71.0469818   0.6925469  23.3396053  70.9867935   0.2093872  22.5154915
  71.9840088   0.8478215  23.4583302  82.5641479  10.4269037  27.5739670
  82.6266785  11.3750639  27.6893482  83.3888855  10.0883141  27.9223824
   5.3980083   4.7733808  64.4969482   5.2151661   5.6731038  64.7676849
   5.2745271   4.7790961  63.5477638  84.6096954  69.9573975  67.5059891
  83.8988419  70.5236969  67.2056122  84.9448929  69.5497437  66.7074280
  56.0180359  47.5684509  12.1611452  55.1796188  47.6073265  12.6213379
  56.1212044  46.6456070  11.9288845  20.6449604  11.1901608  72.3002777
  20.8052731  12.0974932  72.0408936  19.7181129  11.0465784  72.1090469
  39.6662865  51.1020393  58.3178482  39.0400238  51.8173866  58.2069321
  39.8358765  50.7920837  57.4282417  57.2440414  23.8489323   5.6169572
  56.7070847  23.5659676   6.3571196  58.1339073  23.5863857   5.8524036
  63.7846642   6.9199634  65.1611786  63.4750900   6.7279620  64.2760086
  63.1881332   6.4374142  65.7334747  79.9788589  36.9865379   0.4596661
  80.6701279  36.3383102   0.3248235  80.2204361  37.4285049   1.2736311
  50.5915108  26.1777725  16.5594959  49.9743042  25.5545197  16.9427052
  51.3536148  25.6475887  16.3264008   2.0642087  38.1557579  61.4793358
   1.5307442  37.3950310  61.2492409   2.8918977  37.7843552  61.7846603
  75.7942276  35.8018303  26.4950905  75.8657837  35.0320282  27.0594673
  76.2911224  36.4806366  26.9517517  48.8992844  64.4755554  28.7238655
  48.9466743  65.4315796  28.7277088  48.0456009  64.2796173  28.3377819
  78.5595779  63.9798393  40.8389359  78.1743088  63.4644394  41.5475693
  78.6021042  64.8707047  41.1864700   3.3394916  62.2655830  87.9210510
   2.9869890  63.1498489  88.0213013   2.5661583  61.7037964  87.8702469
   4.2067056  29.3390484  37.8464317   3.5250161  29.6245975  38.4547005
   4.1956983  28.3837452  37.9056511  58.9999199   8.1023092  58.8722038
  59.1122475   7.1690540  59.0528908  59.8414268   8.3790379  58.5095482
  46.4112587  30.5348778   5.2240405  46.2868462  31.4111824   4.8595653
  45.8111000  30.4978123   5.9688015  21.8274422  21.0542049  70.9710693
  21.6108227  21.1003246  70.0398483  20.9886818  20.8967857  71.4045792
  10.6768904  32.1572037  60.4452553  10.7653589  31.7600021  61.3116455
  10.5559654  31.4151764  59.8527985  34.2908401  42.6004677  17.1184235
  35.1910973  42.8766861  17.2900944  34.0478897  43.0613518  16.3154316
  43.1267624  45.0297012  68.6917648  44.0226364  44.7897530  68.9285507
  42.6796722  45.1435356  69.5304489  51.8417282  31.4097557  56.9349213
  51.9096718  30.4708996  56.7612381  51.5553780  31.4645615  57.8466415
  12.7851048  65.2728348  19.4749146  12.1695738  65.5331268  18.7896404
  12.5817604  65.8496628  20.2112198   9.4486437   2.6455376   0.2594369
  10.0477343   3.3743651   0.0977798   9.9797974   1.8623914   0.1152488
  70.1555634  15.7782583  39.9276733  69.3629913  15.2424927  39.8957634
  70.8311539  15.2305727  39.5278587  13.5672054  23.1421280  87.8753128
  12.8719769  23.7109909  87.5447311  13.1210194  22.5396500  88.4704285
  32.3328934  61.1096077  46.5182610  31.7627296  61.5042267  45.8583984
  32.2336006  60.1665878  46.3875427  54.2808762  19.3338242  43.8255386
  53.3708992  19.1670113  44.0711899  54.5265007  18.5795021  43.2899094
  45.6401253  33.1677170   4.9543910  44.6908188  33.2839775   4.9152532
  45.8229675  32.9999542   5.8788676  13.0035172  60.4041786  56.7581100
  12.4838114  59.7870789  57.2732086  13.7707586  60.5832825  57.3017044
  34.4266624  71.2076492  38.7908096  33.6020470  71.1006088  38.3166962
  34.2503853  71.9036713  39.4238243  26.0424271  60.0847092  71.0073853
  26.5222321  59.7387314  70.2548370  26.7210693  60.2892418  71.6506882
  39.6494560  36.5507317  84.7701874  39.0961227  36.2322845  84.0569992
  40.2832947  37.1266975  84.3426971  43.1423492  46.5902290  46.0827141
  43.9172554  47.0866699  45.8194809  42.5006523  46.7650375  45.3943138
  66.1841431  52.9479103   8.8000135  65.3974152  52.4474754   9.0164633
  66.6917572  52.9589882   9.6114550  12.2287025  32.9432755   3.4461792
  12.2755699  32.7108574   2.5188081  12.9221926  33.5921097   3.5658309
  68.5240707  59.9796295  85.1943436  67.6495972  60.3580437  85.1030731
  69.0583878  60.6928177  85.5437622  65.7900543  20.8882275   4.2335968
  65.1510010  21.4776573   3.8330803  65.2737579  20.1356926   4.5223160
  11.4483948  52.8359604  22.2460079  12.3697996  53.0926628  22.2827206
  11.0792980  53.3684540  21.5414162   3.4014885  27.2404823  12.5909157
   3.9529743  26.7740822  11.9627705   3.9918103  27.8677063  13.0084581
  78.0076675  22.5652695  38.6552963  78.5910339  22.3701000  37.9219246
  78.5960159  22.7901268  39.3760719  44.5705299  22.3965664   3.0803616
  45.1940079  23.1219940   3.1158957  44.2452850  22.4041634   2.1801457
  41.1417046  35.1406059  10.6165304  40.9270973  34.5869408   9.8657780
  41.6705971  34.5799866  11.1841650  58.5943184   8.9420137  83.6351852
  58.4980927   9.5205860  82.8787308  58.2585297   9.4528961  84.3717194
  78.1277542  56.6299973  53.3269844  78.1384811  57.5266914  52.9922371
  79.0161896  56.3073273  53.1759949   6.6535358  37.4856682  39.7351837
   5.8907914  37.5295792  40.3118362   7.0737739  36.6546783  39.9567451
  52.9289246   7.6910782  34.7416344  52.0947304   7.4695687  34.3277702
  52.7240677   7.7546287  35.6744957  23.3528042   4.4026294  87.6982956
  22.5248852   4.7492213  87.3656464  23.9992123   4.6510177  87.0374680
   1.6856037  42.6124535  34.9428673   1.6944035  42.1547852  34.1022148
   0.9330035  43.2012825  34.8871346  61.6169662  18.5435867  16.4880486
  60.9434319  18.0025387  16.9001770  62.4439087  18.1694756  16.7920837
   2.4083071  11.3382845  57.9296570   1.6552927  11.7201729  57.4786987
   2.2852688  11.5794926  58.8477592   1.1930556   4.0040941  64.6864548
   1.9725693   3.5084786  64.9373627   0.5030041   3.6720972  65.2607727
  11.0119371  56.4387283  58.2880554  10.0630322  56.5185852  58.3851776
  11.3240309  57.3420067  58.2340393  22.6053638  66.6061935  28.4446716
  22.2421284  67.1812439  29.1181736  22.3293419  67.0015869  27.6178074
  30.6496639  17.5316963  15.8491888  30.9826908  18.0795059  15.1383944
  31.2019405  16.7501717  15.8281660   3.2847056  64.3819809  83.9597702
   3.5087588  64.8514862  84.7632599   2.6788843  64.9652328  83.5025635
  55.2568626  66.2595291  58.3697433  54.7680779  66.8289261  58.9639626
  54.6222153  65.5970230  58.0967178  65.8617554  65.3254547  86.3398895
  65.7469635  65.0270615  85.4376602  64.9731522  65.5028000  86.6483994
  76.9956055  50.2814636  41.2697716  77.4286118  50.7531319  41.9812965
  76.3758011  49.6999969  41.7102013  55.0970993  47.9360275  46.0743294
  54.2284851  48.3380432  46.0854607  55.3490944  47.9357910  45.1508942
  49.9822350   2.6751308  64.8766861  50.8189964   3.0847239  65.0964355
  50.1357231   1.7378702  64.9959106  39.1992416  67.8080292  32.4152718
  39.2723961  67.6281891  31.4779701  38.9043884  68.7174683  32.4623528
  81.4327621  53.5883369  50.6312370  80.5130386  53.4905090  50.3847237
  81.4129105  53.7358589  51.5767937  55.6715622  35.5419350  38.0940552
  56.5935326  35.3917236  38.3029556  55.2490807  34.6981163  38.2544174
  61.8201408  13.9850874  58.3403511  62.4380722  14.6573639  58.0532265
  62.2962723  13.1614199  58.2349701   4.9369020  62.1261902   4.2288857
   4.7861099  62.0024338   3.2917740   4.4385233  61.4237251   4.6464934
  18.4458885  50.1589661  44.3372650  17.5380154  50.4201813  44.4914284
  18.5367641  50.1595039  43.3843918  17.5209255  61.1301994  40.2407913
  18.2337360  61.1033134  40.8790779  17.3087463  60.2107964  40.0798302
  53.9003525   4.5350199  83.4364090  53.3568268   5.2779288  83.6988907
  53.6539764   4.3675609  82.5267487  53.5233688  68.3963242  53.1621552
  53.8457298  68.5318298  52.2711143  54.3081245  68.1984482  53.6732674
  37.3550873   8.1853161   2.1477437  36.4830894   7.9719558   1.8155789
  37.3587799   7.8493638   3.0440438  35.2969360  70.5010452   1.4824809
  34.4715004  70.1958618   1.1059781  35.1260262  70.5544815   2.4227817
   2.2220554  52.1029510  83.1785736   2.9142618  52.7436600  83.3415985
   1.9879313  52.2319336  82.2594604  77.7869415  41.3717003  16.3562183
  77.4281616  40.4903145  16.4595394  78.5305099  41.2597084  15.7639437
  10.0470457  19.0495911  58.1936035   9.8481503  19.5615673  57.4096718
   9.3326254  18.4153214  58.2530785  30.2660828   9.7678986  74.1533508
  29.7535629   9.6007738  73.3623810  30.0647697   9.0304651  74.7294540
  10.1565695  12.0235157  81.0680618   9.4374599  12.2831764  81.6439896
   9.9742756  11.1083059  80.8550110  64.0375137  60.1587372  81.6186981
  63.9133949  59.2116623  81.6809464  63.9170570  60.3555412  80.6897278
  17.6591644  21.7989864  19.1853218  17.4593601  22.2212315  18.3498478
  16.9490242  21.1696930  19.3115158  74.6447906  26.6084747  83.5411758
  74.5153503  26.2603607  82.6589661  74.2608948  25.9480457  84.1179733
  15.6217451  38.5468674  18.6146812  14.7342710  38.3493080  18.9139977
  16.0352497  37.6900520  18.5092449   4.7382660  59.0450668  87.4677963
   4.6371298  58.7281418  88.3653259   4.8952570  58.2548065  86.9510040
  33.7215004  49.0945435  22.8557091  34.1009941  49.5572777  22.1086521
  34.4527054  48.9791298  23.4625454  43.7736855  55.8312035   1.4988712
  43.3895035  56.1987877   2.2948117  44.3757706  56.5077438   1.1890042
  15.7073936  10.2480030  13.5966663  16.3987789   9.9983835  12.9835529
  15.7967100   9.6306162  14.3226748  72.2616577  63.7829323  27.9856892
  71.5699692  63.9905815  27.3574524  72.8757401  64.5138779  27.9161034
  49.9912300  40.7030563  15.3072462  50.4123611  40.0369987  15.8506136
  50.5997925  41.4417992  15.3192120   8.5400076  43.9383278  67.5986481
   8.2341967  44.1248283  66.7109909   8.5336180  44.7888145  68.0378113
  81.8558273  67.9459839  82.1880875  81.7304611  67.8163910  81.2480240
  82.6855850  67.5097046  82.3814545  79.4618225  50.5400162  51.4444122
  79.2378235  49.8101120  52.0217323  80.4094772  50.4714737  51.3283348
  31.2045784  66.8364487  15.6002388  30.2865295  66.9727402  15.3660526
  31.3080502  67.2893372  16.4371490  64.9590378  40.3251877  62.3172836
  65.8239975  39.9186935  62.3706131  64.6572800  40.3661499  63.2247505
  27.7581863  66.6712265   0.8746871  27.7530632  67.5033875   0.4016949
  28.6246510  66.6311493   1.2794929  52.8243790   2.9132462  81.1590424
  53.0580559   1.9905105  81.2599640  53.6241341   3.3290031  80.8369064
  13.9209986  44.7065735  82.5341721  13.1860399  44.9203796  81.9594116
  13.9438305  45.4218025  83.1699066  50.5493050  31.9182968  41.9213295
  51.1897507  32.5495529  42.2493248  50.5896683  31.1913109  42.5426941
  21.8319416  57.5008163  25.6196785  21.6360245  56.7426186  26.1701183
  22.7767086  57.4529648  25.4735298  86.7119751  48.2832298   9.0491905
  85.7651901  48.3817139   9.1498957  87.0172729  48.0067673   9.9132462
  34.2798424   1.4502051  22.3484497  33.4960403   1.8311127  22.7444229
  34.0834274   0.5159196  22.2794247  14.3124113   1.5919673  64.5688934
  14.1180487   1.2613341  63.6918869  14.5452967   2.5103273  64.4324646
  59.3510818  33.5436935  36.5214767  59.8001137  32.7179031  36.7022285
  58.8438034  33.7189636  37.3140526   7.2842717  67.6238861   7.5997310
   7.3616109  66.9395523   6.9349451   6.4137278  67.9964523   7.4598007
  62.6632347  40.1422081  60.6885681  62.8448753  40.9425545  60.1959343
  63.3802643  40.0815506  61.3197746  43.1781616   9.8349037  86.5775604
  42.7369423  10.6678305  86.7442703  43.8187027  10.0355492  85.8951569
  41.7465591   6.6691546  54.5426521  41.1495781   7.3199043  54.1733704
  42.1124001   6.2200384  53.7806206  68.4725494  16.2707806  62.6130676
  68.2899246  16.9991875  63.2066231  68.0910339  16.5410099  61.7778091
  19.7036381  64.6535873  45.6527519  20.5972271  64.6471634  45.3096886
  19.3690529  63.7764435  45.4659462  72.8602600  60.7352562  51.9267006
  72.4249115  61.0730896  52.7093735  72.8964844  59.7884483  52.0626068
  49.5256386  13.2063923  26.4423237  49.4145126  14.1074762  26.7455254
  48.6598587  12.9528561  26.1223621  45.7554169  15.5208454  22.1228466
  45.9192505  16.4131489  22.4281101  45.8086472  15.5804634  21.1689892
  24.4282780  58.9562988   2.0091774  24.3098125  59.8904839   2.1809185
  23.5397797  58.6194344   1.8937361   5.5535340  50.3769798  24.1620884
   5.3126950  49.5797806  24.6340027   5.4292998  51.0797234  24.8000126
  83.1494370   3.9665194  70.3127975  82.6772995   4.5243893  70.9309387
  82.9033051   3.0747886  70.5586929  33.0952759  38.4394608  62.8705521
  32.4508972  39.0365105  62.4903717  32.7110939  37.5698547  62.7590828
   2.6790257  48.8835258   8.7211714   2.6944063  49.7842636   9.0446997
   1.7485741  48.6697426   8.6519785  43.9361305  71.5914459  17.3895798
  44.8687935  71.3774796  17.3652668  43.6169472  71.3710709  16.5144863
  46.0285187  62.1593170  47.8219337  45.5174599  61.6387711  47.2021904
  45.6671753  61.9339066  48.6791687  47.0575027  13.8776903  48.8135986
  46.7757759  14.7585754  48.5668106  46.6472206  13.3047304  48.1658211
  68.9775848  16.6031208  86.9596939  69.5002670  15.8086252  87.0683594
  68.4462280  16.6508179  87.7544403   9.4838457   9.5443287   3.4188282
   9.3447704  10.0892935   2.6442938   9.1328049   8.6877966   3.1752007
  74.8093567  60.3756599  41.9353981  74.4348984  60.8652802  42.6677094
  74.1215897  60.3771324  41.2696648  83.2586746  13.5622025   1.4560797
  83.4664001  13.0119362   2.2112536  84.0523987  14.0765991   1.3089849
  85.0028534  33.6345482  71.7205887  84.1969757  33.5803795  71.2069168
  85.6999741  33.6919670  71.0671616  58.1007271  64.3975449  88.2347336
  58.0367470  64.3011169  87.2845535  57.8207321  65.2971725  88.4035645
  59.4443092  38.4975586  35.8571434  58.9647713  38.9574890  36.5461578
  59.7865677  39.1945190  35.2973785  55.7187119  30.9239788   8.1158199
  55.0551453  30.4932747   8.6547127  55.2599792  31.6629200   7.7161188
  50.7997932  37.0521317   2.1912384  50.4192810  37.8061981   2.6415966
  50.0488586  36.5960503   1.8113517  77.1385269  30.4490204  34.3488235
  77.1557617  31.4058075  34.3266182  76.4349594  30.2363091  34.9619942
  40.3235703   7.3148832   1.6034745  39.5185623   7.8304434   1.5545394
  41.0096130   7.9133368   1.3077878  51.9310417  14.3649902  49.0370941
  51.0213280  14.4709072  48.7588310  52.4423141  14.4922047  48.2379379
  44.9161186  16.5174332   8.6347761  44.4550552  17.0185146   9.3075113
  45.8435249  16.6712570   8.8150139  64.8237991  62.2714043  52.7774124
  65.7002792  62.5471725  53.0456810  64.6802597  61.4459610  53.2403069
  13.6573496  55.8369179  28.7669830  14.5589943  55.8189201  29.0878334
  13.5395050  56.7263756  28.4335003  65.4110413  27.2458420  26.0377197
  66.3044281  26.9113998  26.1167564  65.3484802  27.5502739  25.1323814
   7.3004150  42.5529556  24.5646076   6.5335307  43.0733604  24.8039742
   7.5401845  42.0951500  25.3703117  71.1435928  19.2943439   2.5288918
  71.1756134  19.5885162   3.4392047  70.4996490  19.8684349   2.1141739
  40.4276237  54.3514938  81.7483673  39.9760246  53.6539764  82.2235107
  40.7907448  54.9121132  82.4339905  56.3353806  42.2548409  73.3397293
  56.9109268  41.6057243  72.9352264  56.0178833  42.7829704  72.6072617
  25.0258617   0.3258428  78.3458786  24.7306728  -0.4971651  77.9563217
  24.3231773   0.5716308  78.9475861  62.2799149  32.4645233   8.8230438
  61.9596558  31.6405849   9.1901836  61.6603546  33.1233330   9.1366539
  50.3888512  47.5237045  64.3033066  50.1605606  47.2887878  63.4039040
  49.5569458  47.4980354  64.7760773  60.3303642   4.8193374  10.7307148
  60.2062912   4.0164566  10.2245331  59.5813828   5.3677754  10.4973154
  57.2891350   3.6575589  27.7406025  57.3800888   3.0988722  28.5125008
  58.1146965   3.5497839  27.2683086  34.6602402  33.6758118  10.6071854
  34.6348343  34.3343964  11.3013411  35.4880829  33.8368340  10.1544399
  85.8397522  22.7035408  23.9596062  85.5420990  22.2505646  24.7485580
  86.4602890  22.0973148  23.5550671  28.5307999  37.6986542  30.9474106
  28.2885418  38.5327873  30.5452118  27.8742142  37.5624695  31.6304779
  61.4679451  70.9381638  55.2263641  61.9360313  71.1546097  56.0327644
  61.1983681  70.0271530  55.3430710  51.6421089   4.3078165  11.6770287
  52.0762253   4.9817910  12.2000341  50.7237854   4.5768690  11.6542072
  57.9742775  12.7104406  78.3525085  57.0960617  12.3799181  78.5415268
  58.0173950  12.7429686  77.3968353  67.8731079   1.3194681   6.7889938
  68.3656921   0.7648749   7.3939900  67.9616165   0.8856764   5.9403343
  75.2761536  45.9226723  46.1328163  75.0115662  45.7795105  45.2241211
  76.1696243  46.2606239  46.0717201   9.8061762  49.8634071  82.9895630
  10.0555897  49.1131096  82.4500504   9.4626837  49.4759064  83.7946014
  69.4538574  30.3406105  20.4414520  69.9960632  29.6244068  20.1108589
  69.1594696  30.0408478  21.3015175  83.7705460  20.4419956  77.2438965
  84.6948624  20.6511822  77.1093445  83.3108215  21.2622814  77.0649643
  15.4395666  26.3228149   6.4325495  16.0118122  26.0810928   5.7043066
  14.8218422  26.9485531   6.0542626  39.4730911   1.6393675  80.1167374
  39.0705833   1.3658593  80.9410019  40.1172371   2.2996871  80.3722534
  67.9755936  16.9938641  59.9598465  67.6626282  16.2278328  59.4787254
  67.4614792  17.7221432  59.6112404  43.9459305  61.2307549  21.2225990
  43.1304016  60.7302322  21.2475719  44.4886284  60.8386841  21.9066982
  53.6648483  44.4255981  52.4685822  53.0535889  44.1760292  51.7755356
  54.3249474  44.9584999  52.0252838   5.0264182  14.8329725  13.6950741
   4.6695666  13.9709988  13.9092970   5.2907786  14.7615547  12.7778807
  24.2201977  68.0835648  82.4085312  24.8239861  68.7707291  82.1266174
  24.7538700  67.2891922  82.4284744  84.5980911   7.0001969  64.5857925
  83.7839584   6.9167314  65.0822372  84.8578568   7.9139080  64.7036133
  74.9401932  42.0414658  21.7143269  74.8500443  42.9897842  21.6205444
  75.5212936  41.9293518  22.4666424  47.0373154  69.1538467  87.9308701
  47.9855652  69.1011353  87.8113861  46.7985725  68.3148804  88.3250427
  56.3048630  62.0423927  18.5531769  57.1110497  62.3686218  18.9530182
  55.8126030  62.8318825  18.3281918  68.3051300  38.1518860  78.1329041
  68.0519562  37.3645706  77.6509705  68.6058731  38.7598190  77.4574738
  14.5255032  46.1617393  59.7052116  13.9141169  46.7944527  60.0821877
  15.2311888  46.6972885  59.3426819  81.7345200  53.1301880  13.3163233
  81.7249756  52.1829453  13.1789598  82.6117935  53.3147240  13.6518288
  49.0414467  71.1454773  81.2436447  49.2922745  71.5190735  82.0884781
  48.0898285  71.2435303  81.2114563  78.9269791  18.9699402  18.8853111
  79.1602707  19.8805714  18.7048721  79.2350311  18.8162365  19.7784576
  14.6967058  63.9909172  85.8069229  15.3640327  64.4090118  86.3510818
  14.0251617  64.6633530  85.6925049  16.2024727  42.7293549  28.4839077
  15.4926128  42.3491325  29.0013638  16.0663261  43.6746101  28.5486488
  48.5421867   0.0502084   1.6272322  48.5445480   0.9657567   1.3479515
  47.7763901  -0.3296132   1.1965065  69.1528168  55.3204842  38.4180412
  70.0022049  55.1362572  38.0170097  69.0095139  54.5912018  39.0212364
  30.2043056   1.5204371  60.3794289  30.3778381   1.1715995  61.2537460
  31.0511723   1.4843688  59.9347382  18.0256004  42.0425758   9.2574806
  17.1629448  41.9849815   8.8466988  18.2825832  41.1321640   9.4035645
   9.1576900  41.7996597   2.3048754   9.6096764  42.4910393   2.7885423
   8.4992876  41.4704552   2.9167275  58.8512268  56.3505058  69.2172318
  58.9099121  55.3973160  69.1522751  58.6090813  56.6361504  68.3363190
  38.7335548  39.4254761  77.4825821  38.8214874  40.0400848  78.2111130
  38.8476982  39.9641914  76.6996384  12.3184967  33.6279030  72.0834122
  13.0556278  33.6713943  71.4743271  12.7146053  33.3924141  72.9223862
  18.3647804  50.8417740  25.4050388  18.2313862  50.0579910  24.8720074
  19.1192532  50.6316223  25.9553471  41.0778084  47.9799156  21.4115791
  40.4454918  47.9787674  20.6929646  40.9488792  48.8247452  21.8427086
  13.4989557  63.6050682  42.5270424  13.9578161  63.0738869  41.8762550
  14.1305733  63.7106628  43.2384796  34.1702499  55.2063332  70.8732376
  33.2184525  55.2724838  70.7961807  34.4986115  55.4606094  70.0108261
  46.5940399  16.1188984  83.8009949  46.7761154  16.3774700  82.8975449
  47.4516716  15.8986206  84.1645584  73.5879898  57.0300407  25.8051739
  72.8370590  56.7152100  25.3019657  73.6364288  56.4402275  26.5575066
  38.0488777  22.9461060  70.9941788  38.4369469  23.6188889  70.4347153
  38.4052734  22.1226177  70.6608887  76.0654831  35.1986771  63.6075935
  75.9730530  35.6071625  62.7468796  75.4772034  34.4441261  63.5790291
  23.9141674  19.6061440  13.8966112  24.3047276  19.2930050  13.0807447
  23.9009342  18.8371429  14.4664297  55.3842888  21.3626881  47.8073196
  55.9890823  21.6001453  47.1044159  54.5193481  21.5899029  47.4660263
  67.1727753  55.0689125  34.9230804  66.6979904  55.4381866  35.6676903
  66.4934616  54.6679077  34.3809013  53.9416733  40.7276268  54.4280891
  54.4086113  40.4487228  55.2157516  54.3985558  41.5203514  54.1468773
  23.7361336  47.5463371  56.1881180  23.4255161  48.4516411  56.2012863
  23.5445347  47.2402496  55.3016434  31.0977764   8.6780291   0.4212355
  31.4381237   7.8045282   0.6146062  31.2429466   9.1752481   1.2261775
  45.2204704   2.4396560  80.9965897  45.8747826   2.8408084  80.4245911
  44.6803551   3.1721201  81.2932434  73.8207932  51.8254356  52.0440521
  73.3593903  52.6222687  51.7825203  73.1422043  51.2714005  52.4297981
  14.3319035  45.8956070  32.5050468  14.8811970  45.4441071  33.1458740
  14.7957354  46.7135544  32.3260002  15.1300135  61.2700577  85.5054703
  15.3942757  60.9920998  84.6284714  15.2121611  62.2235909  85.4894180
   4.4643641  57.0711937  67.1096954   3.5545750  56.7855034  67.1927414
   4.9706674  56.3899612  67.5522079  78.2625961  47.9423523  33.7285652
  77.9010773  47.4863014  32.9685974  79.2092056  47.8230476  33.6515274
  51.9603348  24.1278305  42.8745842  51.8222122  23.8865910  43.7905312
  51.8297195  23.3127956  42.3899307  24.9394112  51.8829880   5.2630873
  24.4679451  52.3264694   4.5579090  25.1093616  52.5705566   5.9069796
  78.4077911  43.6736717  50.9526672  79.1871109  43.3173904  50.5261078
  77.7287750  43.0169563  50.7980843  83.4322128  59.4467087  37.1687088
  83.4823685  60.2529144  37.6822739  84.0270157  59.5937996  36.4333076
  30.3508282  66.0716019  33.2735672  29.4466228  66.2239075  32.9988861
  30.2797470  65.4484940  33.9967003  76.1399384   3.8048470  19.7648697
  75.6370621   4.5918713  19.9744911  76.8418884   4.1145115  19.1924992
  60.1065102  70.0081329  75.1481171  59.9153671  70.1151199  74.2163162
  59.9391861  69.0818710  75.3221283  16.3161316  55.8225899   6.8908591
  17.1195107  55.3899460   7.1800532  16.0893307  55.3834229   6.0711489
  25.0125160  63.8988838  75.4019394  24.9415073  64.7721024  75.0163574
  25.7921677  63.5203323  74.9956512  56.8080940  69.8632812  84.6744232
  57.6486511  70.1685867  85.0157089  56.3868141  70.6525650  84.3341522
   1.7746938  29.4235210  24.1389771   2.3188710  28.9538383  24.7710381
   1.1663470  28.7623940  23.8087368  29.3229141   2.3879395  70.5232773
  29.5091000   1.6357831  69.9612961  29.2384701   3.1243527  69.9176407
  60.9760094  44.7080154  43.2861176  61.6751404  45.3225365  43.5092926
  60.5707359  45.0804253  42.5029869  65.4044571  39.7262878  58.1048851
  64.7959366  40.3622093  58.4811096  64.9546661  39.3953018  57.3274727
  74.4407196   2.2536979  13.7500725  73.5506439   2.0699966  14.0504923
  74.4859924   3.2087681  13.7050991  64.6313248  30.6975460  30.4553032
  64.1866302  31.3936863  30.9388981  63.9311905  30.0945396  30.2054462
  42.5444145  44.6099586  47.6832924  42.1270866  45.0293732  48.4357262
  42.7695084  45.3344421  47.0996094  71.9117279  29.8027210  13.5402517
  71.8373032  30.7379951  13.7298756  71.3603516  29.6700611  12.7691345
  46.5635185   5.6774702  87.3923721  45.8775711   6.2499280  87.0488586
  46.2769661   5.4669061  88.2810745  59.7636299  49.9537544  39.6916847
  59.1203613  49.3891602  39.2631187  59.4790573  49.9908905  40.6048508
  51.0435638  34.8355598  35.4153748  50.5189743  34.4727402  34.7016525
  51.8141670  35.2036781  34.9830627  13.0305882  50.0202484  85.2825699
  12.7490606  50.9310188  85.3690338  13.4362726  49.9761314  84.4167175
  63.6818008   7.7315564  82.4869385  62.9139328   7.4810147  81.9732895
  64.3798676   7.1589737  82.1690063  73.6892395  15.7859335  72.7999954
  73.2639694  16.2884960  73.4948349  74.3353348  16.3876743  72.4302597
  29.5824928  14.9273386   9.0032949  28.8591614  14.8357573   9.6234856
  29.4925613  14.1755056   8.4177256  79.9756088  37.2187347  75.6955338
  80.5165024  36.7960205  75.0284653  79.2259979  36.6331749  75.8024521
  85.7285233  68.5367661  42.7850838  85.3128204  68.0292664  43.4821205
  85.6606979  67.9793701  42.0098839  17.8046360  66.5395889  67.3640366
  18.6471786  66.4220352  66.9252472  17.6627045  65.7179337  67.8341141
  61.5046768  47.2456284  29.7249317  61.0248299  47.4944878  28.9349651
  61.9085808  48.0594711  30.0261860  51.9644737  34.9741287  81.0591583
  51.9046097  34.3712273  80.3181076  51.1198616  35.4243889  81.0704422
   0.8288303  55.2987175  69.1861954  -0.0207015  55.7387161  69.2166824
   0.6160775  54.3656387  69.2043076   8.3363771  27.3991222  40.8503838
   9.0887365  27.9680481  41.0132027   8.6379204  26.5257874  41.1005630
  36.2892075  51.6295815  77.2411346  36.8090019  51.2886086  77.9689941
  36.7968521  52.3708267  76.9108582  48.2239227  61.0083084  77.9840775
  47.5784798  61.3963242  78.5749054  48.4246101  60.1574936  78.3740311
  24.3019199  22.7535839  83.4170914  24.4771824  22.3353462  82.5741196
  23.5194645  23.2831535  83.2636337  52.5972672  59.5169563  66.0880508
  52.1591072  60.3269730  65.8270416  52.3305969  58.8770103  65.4280624
  48.5151978  45.9707794  70.5375061  49.0187073  45.2698631  70.9515457
  47.9198990  46.2749176  71.2225952  18.0318871  46.0367622  33.7318840
  17.5238285  45.8715439  34.5261192  18.8766727  45.6178627  33.8964844
  73.9552612  15.1692314   7.5385332  73.0821533  14.7769928   7.5464711
  73.7968979  16.1082020   7.6359434  69.3011932  56.8761635  88.9833221
  68.9670639  57.6065788  88.4626617  68.7947922  56.9091682  89.7949295
   3.1047246  30.4472580  10.3722897   3.3071129  30.8536930  11.2149525
   2.2512996  30.0343857  10.5043325  57.6880264  61.8270569  28.2119770
  57.8217926  61.0467262  27.6739922  57.7588577  61.5118065  29.1129951
  15.9435034  66.5979691  47.6924934  16.6986485  66.7866516  48.2496185
  15.4148598  65.9861145  48.2047462  59.2805557  20.2901649  11.5866594
  60.0997543  20.2499046  12.0801439  58.6104202  20.0143642  12.2120266
  19.8960667   7.3980861  88.2870636  19.5826397   8.0416870  88.9225006
  20.7383766   7.1071043  88.6364594  22.5780354  34.9481354  22.3311825
  23.1763554  35.1412201  23.0529594  22.6052704  35.7312737  21.7814713
  54.2689590  26.4431763  32.2086792  53.4726295  26.0128098  31.8974323
  54.3026962  26.2377701  33.1429710  45.8572578  69.2427292  79.3630142
  44.9614105  69.0735092  79.6546555  45.8407402  70.1475601  79.0511780
  70.0585556  61.2868614  15.4195251  69.2677841  61.3404617  15.9562130
  69.7605133  60.9122887  14.5906124  18.0711803  10.1853609  71.9103012
  17.4225426  10.7105350  72.3790131  18.1396503   9.3782291  72.4202805
  46.2918205  22.3496742  23.2281742  46.2454185  23.0720596  23.8544617
  47.1997223  22.0500832  23.2749405  52.0144615  70.4075546   4.1729102
  52.0942192  69.4611359   4.0539117  52.6347618  70.6141663   4.8720288
  49.6014519  55.3729324  62.1719170  50.0227280  55.3164482  63.0295677
  48.6781845  55.1899605  62.3460617  69.0019226  63.7433472  23.7889042
  69.4202881  62.9687881  23.4130554  68.4409180  63.3990898  24.4838791
  48.1646614  32.4900131   3.7574058  48.7184258  33.0118256   3.1766381
  47.5857277  33.1285057   4.1738191  28.7761459  31.3702812  72.3421173
  28.0022755  30.8833981  72.0587463  28.5608082  32.2861061  72.1656876
   6.3355093  68.8881912  86.7934418   5.5985646  68.5015106  87.2663269
   6.6966558  68.1653214  86.2803421  14.5260706  13.8910074  87.2521973
  15.2915239  14.1883745  87.7440186  14.8818722  13.5823746  86.4188995
  56.1815033  70.6702271  73.3766937  55.6504745  71.3612976  72.9808731
  57.0558701  70.8000107  73.0094452  31.2161217  40.5097885  82.5273819
  31.5189915  40.7812843  83.3938675  32.0193634  40.3681602  82.0264053
  27.4096737   9.7975473  76.9781189  27.5312653   8.9499655  76.5502701
  26.7447662   9.6349068  77.6472015  43.4487648  68.4667892  58.0442810
  43.8522415  68.7397232  57.2202950  42.6138840  68.9343567  58.0685768
  17.2909813  45.3233604  46.9824600  18.0073204  44.7488136  46.7123032
  16.7750034  44.7933922  47.5900230  83.3507843  44.1925697  40.3645020
  83.5028839  43.2806168  40.6123619  83.9954147  44.6886253  40.8690910
  42.0507355  45.6878891  42.4805145  42.0991249  44.7881012  42.8034210
  41.3938942  46.1069145  43.0365791  21.1303082  51.6272125  55.9634361
  21.3190975  52.1731033  56.7267151  20.2052670  51.7877922  55.7770309
  39.7856636   7.9527202  20.2492962  39.4457512   7.4355369  20.9795113
  40.5511703   8.4008341  20.6090546  61.3323135  11.7585249   6.1159887
  61.3820572  12.3177242   6.8912649  61.8138313  12.2391844   5.4426842
  46.6250877  36.9092178  12.3472862  46.7037888  36.8843651  13.3009214
  46.2982941  37.7885017  12.1567650  61.9172707   9.8674164   4.1455822
  61.0768318   9.5600367   3.8058541  61.6840630  10.4779749   4.8449135
  17.7128410  67.0173874  18.2318020  17.6517048  66.1801376  18.6917076
  18.0412560  67.6291580  18.8906746  81.0246048  59.9585762  79.7977295
  81.7999115  59.4065590  79.8997498  81.1614761  60.6796799  80.4121475
  35.4330444  62.7642746  55.1874199  35.7484627  62.3219452  54.3993263
  34.9093666  62.1030083  55.6398811  55.3922539  22.4535160   2.8591437
  55.6526985  23.1781006   3.4278059  54.8865547  21.8727245   3.4276335
  15.1710787   8.9245253  25.0625782  14.7173967   8.7604656  24.2358456
  14.5290813   8.7011805  25.7365131  46.6522331  57.1072960  74.1056290
  46.0260124  57.4354706  73.4603577  46.7379341  57.8191490  74.7397842
  84.1128159  19.8210926  73.4817276  83.3065186  19.3771534  73.7444687
  84.0955353  20.6510067  73.9583588  15.9198780  60.5344238  53.0174446
  15.8100681  59.9876328  53.7953911  15.1801462  61.1412811  53.0448685
  24.1659107  69.5095367  77.1082382  24.9258900  68.9350510  77.0153656
  23.4188957  68.9128647  77.1548538  28.2099152  32.3073235  87.9924011
  28.9932232  32.6005630  87.5269241  27.5298748  32.2740440  87.3195953
  71.7556305   4.1016545   1.0934584  71.3537750   4.2067575   1.9558372
  72.4411926   4.7690892   1.0657287  52.6278076  15.4970102  40.2901497
  53.0368538  14.9400167  40.9524689  52.9716415  15.1717796  39.4581413
  20.7628326  37.7065430  51.9778061  20.6868134  37.3842468  52.8759041
  21.0336342  36.9411507  51.4707794  83.6068802  13.9196978  41.7525711
  84.1961594  14.5487823  41.3363647  83.3148270  14.3577347  42.5519829
  59.4756584  51.2332535  54.8506393  58.5992279  51.0406837  54.5174484
  60.0172844  50.5116234  54.5310783  47.7105942   0.0130538  23.3477306
  46.7589798  -0.0891996  23.3622169  47.8623276   0.8921736  23.6946545
  63.5725937  19.3149509  75.2607651  63.3293762  19.2813530  74.3355942
  63.4150620  18.4272118  75.5822220   5.5226269  63.6985779  17.5777931
   6.1111107  62.9496078  17.4831181   5.8194318  64.3217163  16.9145927
   1.4881781  56.1913185  43.7934952   0.6875079  55.8786469  44.2146797
   1.4316094  55.8614120  42.8967285  44.0256462  45.6475830  73.0607529
  43.3745918  45.1250839  72.5923996  44.0939674  45.2311172  73.9198914
  10.0626678  32.8380470  24.9558983  10.0182238  33.6619797  24.4707298
  10.0529327  32.1609192  24.2794094  61.3196220  11.5765018  26.8140469
  61.0397377  11.1007595  27.5960751  61.1217842  12.4928312  27.0075245
  43.8381500  49.1604309  62.5910492  43.0495644  49.5979805  62.2702522
  44.0407867  48.5092392  61.9193954  56.4157715  60.5702705  24.8932190
  55.9151993  60.0263710  25.5013599  55.7857513  60.8129234  24.2146740
  85.2325134  15.9093838  64.3293686  86.0391235  16.3903580  64.5145187
  84.9464569  16.2402096  63.4779243  62.5119095  27.8493919  64.6934509
  63.1394119  28.0324345  65.3927155  62.4851685  26.8940792  64.6396561
  58.0967903  46.9017868  36.4263191  58.9623299  46.9212646  36.0180435
  57.6152000  46.2361717  35.9351387  86.5548401  40.8173027  61.3186264
  87.2297440  40.4350739  60.7576981  86.4578934  41.7144623  60.9993477
  45.2147522  25.5962677   7.3224115  45.7902946  26.0702801   7.9226589
  45.5194702  24.6898232   7.3641086  49.6258850  49.5941124  47.2934875
  49.0392303  50.1473846  46.7777786  50.1298409  50.2099609  47.8254623
  84.9048767   8.5912418  34.2951508  84.2499390   7.9341016  34.5306244
  84.4227753   9.4181395  34.2882538  33.3608093   5.9616027  44.4199295
  32.4393234   6.1333585  44.2260437  33.8268929   6.7125983  44.0525017
  47.8352661  44.2062683  73.9976654  47.4389915  44.9325333  73.5162811
  48.3809052  43.7593727  73.3505249  43.4450912  59.1507072  18.6325550
  43.9064331  59.5141869  17.8767262  44.1182709  59.0707550  19.3083248
  66.5481262  64.2025070  38.0698509  67.1420441  64.5166855  38.7516060
  66.8451996  64.6411514  37.2726288  32.2999039  27.6691608  78.4411240
  33.0704231  27.3989334  78.9406281  31.9996433  26.8680077  78.0119095
  13.4893427  57.0499725  66.1348114  13.6981773  56.3525543  66.7562790
  13.0332413  57.7087555  66.6584625  75.7913208  57.0415344  85.4320374
  75.0793839  57.6812897  85.4415207  75.6836395  56.5512657  86.2470627
  73.4884109  56.7351036  29.5381279  73.0382538  55.9995880  29.9535789
  74.2190094  56.3338432  29.0675373  66.9733963  10.5953417  77.3175735
  67.1348572   9.6745577  77.1118546  67.1137924  10.6578636  78.2623596
   7.5311208  25.3447304  44.8789406   8.4168663  25.5674515  45.1654396
   7.1626368  24.8443012  45.6069679  47.7670555  35.1705818  84.5404510
  48.0730705  34.8596458  85.3924561  48.5192184  35.0564232  83.9595490
  81.4853821  41.2950172  68.9508896  82.4359894  41.4010201  68.9874878
  81.1873627  41.4987144  69.8374100  85.9882660  46.1846542  16.9380436
  85.9843750  46.1629715  15.9810963  85.9768906  45.2636490  17.1985340
   1.4065847   6.5808320  41.7001190   1.1169064   7.3768711  41.2544289
   1.0010614   6.6299319  42.5657806  15.2225742  38.1879997  85.1039581
  15.7833891  38.7004318  85.6863022  15.8249292  37.8085098  84.4641190
  14.3083878  33.4295197  65.6985397  14.3511000  33.9624138  66.4925385
  14.0046873  32.5735207  66.0006409  45.2554779  25.5475101  68.6608276
  44.6073036  26.1883163  68.3684692  45.4169502  25.7712364  69.5773926
  61.8364792  43.1592026  27.4976330  61.0120964  43.5542107  27.7815132
  62.5133171  43.7303505  27.8608322  74.8487854  56.6247711   1.6558384
  74.0755920  57.1738205   1.7859976  74.6161575  56.0530434   0.9242378
  64.6380081  70.8612137  14.5817490  64.2093201  71.7133636  14.5024290
  65.4028091  71.0281906  15.1325855  52.1551323  67.7108459   4.4250565
  51.3764114  67.9537506   4.9258795  52.0339012  66.7817230   4.2294302
  41.9225235  45.5258789   5.8200550  41.6639442  45.0378685   5.0382533
  41.2293472  45.3456383   6.4550767  70.3719940  39.7280273  42.7114334
  70.4583969  38.9151840  42.2133827  70.8272629  40.3828125  42.1820793
   2.5247560   1.6344612  22.7969971   2.7784228   2.3495543  22.2134514
   3.3027639   1.0791435  22.8475704   9.6979656  65.2941742  28.7915936
   9.0785427  64.8255997  29.3510456   9.7675228  66.1632385  29.1867104
   8.3275547  30.3777809  70.4129181   8.9996119  30.2631264  71.0848007
   8.3711090  31.3068371  70.1866760  85.3157883   5.4458776   0.7651646
  85.0119324   5.5868278   1.6618459  85.6130371   4.5360794   0.7532273
  86.1462708  20.0397549  10.6041689  87.0630341  20.0362682  10.8794231
  85.7103271  19.4462719  11.2156944  56.7611656  27.8356133  72.2299118
  56.5806160  27.0874939  72.7990799  57.0128555  28.5377388  72.8298340
   6.0919294  52.9865646  45.3543129   6.6761665  52.4432983  45.8832359
   5.2149301  52.6578903  45.5519867   0.1423676  42.1903534   1.9708923
   0.8264374  41.6165962   2.3159738   0.3225211  43.0429382   2.3669701
  28.1258240  41.4952202  21.3535194  27.2870903  41.5655861  20.8976612
  27.9301338  41.7485847  22.2555981  74.9271469  67.9263229  77.9724350
  74.8122635  68.7769547  78.3960648  74.0458450  67.6757507  77.6953888
  38.4313126   9.3438129  86.2628784  39.2124519   8.7926559  86.3106461
  38.5138206   9.8043442  85.4278183  31.0688248  39.7574654  15.8584871
  31.8589630  39.6120262  15.3381376  30.8267593  38.8870659  16.1747837
  42.2372093  70.4820251  45.8805771  41.6599655  71.1776962  46.1953278
  43.1022148  70.7188797  46.2150841  47.0702629  33.8885307  55.7538528
  47.7335587  33.6234512  56.3910370  46.3755493  33.2365189  55.8459892
  27.2595825  45.3120918  53.0293770  26.9969940  46.1939735  52.7656288
  28.1340313  45.4240189  53.4022636  24.2856331  69.8506775  54.5102081
  24.5629330  70.4626541  55.1919785  24.5161076  70.2859726  53.6894569
   0.9323538  48.3391037  17.8460655   1.8559273  48.1235199  17.9755592
   0.4910221  47.4904633  17.8104687  58.9534454  69.4696655  45.7830086
  59.8117180  69.5182800  46.2039986  58.3914566  70.0286407  46.3196144
  32.4863586  53.6080780  74.7767105  32.8744850  53.4822159  75.6425934
  33.2270203  53.8290443  74.2120590  82.4455719  16.9544086  59.9577904
  81.5986557  16.5808296  60.2015114  82.2926254  17.3571911  59.1030350
  27.1043015  11.6279984  15.3574705  26.8216457  12.3431005  15.9275293
  27.3687286  12.0595703  14.5450325  29.8794308  68.1778107  11.6851768
  29.1735268  67.5313416  11.6877508  29.8279247  68.5921173  12.5465298
  57.9286041  29.3190804  31.9174538  58.7636871  29.0871258  31.5111694
  57.8231277  30.2522373  31.7321835  65.4288406  53.7950783  18.7721577
  65.2361526  53.3986511  19.6218338  64.6995163  53.5284042  18.2125168
  23.6766701  41.9908791  56.6531258  24.5340614  41.5962639  56.8124771
  23.8574352  42.7302017  56.0726471  79.7252960  26.8557205  40.3007736
  80.6053238  26.6233654  40.0044823  79.8632812  27.5661774  40.9272270
  13.2005272  63.3862572  27.5187454  14.0819626  63.2460365  27.8646393
  12.6778183  62.6821861  27.9025249  64.2563934  24.4031868   8.8081522
  64.4581299  23.5678387   9.2297249  64.4916687  25.0634384   9.4600306
  63.0454521  63.3786659  45.6044540  63.0895462  64.1002274  46.2318611
  63.4017105  62.6271477  46.0783043  41.8145485  50.8886261  54.7146339
  42.3896217  50.1587029  54.9442749  42.0109863  51.0682106  53.7951813
  18.5709457  67.9469833  20.9117298  17.8710403  67.4736862  21.3615646
  19.3111076  67.9127808  21.5177193  83.2776260  14.8720627  57.1388779
  82.4748611  14.3568010  57.0594826  83.9393539  14.3572102  56.6770554
  78.4040909  37.6213341  15.3337784  78.3490143  38.1510162  14.5383949
  78.5257111  36.7261391  15.0174446  21.5133286   3.7635748  69.5576706
  22.3585777   4.2034960  69.4668121  20.9186726   4.4482484  69.8639984
  68.6336136  12.3143578  27.5516644  68.7586670  11.3999090  27.8053913
  69.3218613  12.7886209  28.0181637  83.3235016   0.6368468  66.7496109
  82.5311356   0.4083245  66.2636490  83.4600830   1.5654887  66.5619888
  44.8080292  55.9864845  30.8840599  44.7739868  56.6773491  30.2224102
  44.3990059  55.2307167  30.4624634  61.9095001   9.5126371  31.6349258
  61.3917465   8.9854889  31.0264225  61.6837425   9.1707029  32.4999962
   0.3249591  19.9176464  79.8561783   0.2173022  20.7694149  80.2794189
   0.3846517  20.1199646  78.9225082  74.2911072  13.6519547  75.9107132
  74.0674820  14.5734997  76.0410080  73.4580536  13.1886768  75.9980240
  83.0146179  11.9426365  54.6543274  82.4348755  12.6720400  54.8736534
  82.7803497  11.2547798  55.2773895  86.5507812  54.9514694  41.9486618
  85.8862305  54.3415108  42.2689095  86.1408768  55.3791695  41.1968040
  71.7047424  14.5750704  35.3317528  72.2121048  14.8828173  36.0828247
  70.9400864  14.1480570  35.7180099  45.4328194  69.2390671  75.8333130
  45.1236763  70.0294952  76.2759094  45.2708321  69.4056091  74.9047394
  82.7032623  62.9185715  40.3599548  82.7540741  63.8690567  40.2588387
  82.6732178  62.7796745  41.3065453  80.3760529  13.6398630  70.6831207
  79.9710388  13.3953142  71.5152206  81.2825928  13.8472939  70.9098053
  43.7612190  59.7346268  48.1049767  43.2947769  60.5512390  48.2833366
  44.5878258  59.8223686  48.5795898  50.9897346  71.3308487  83.5912552
  51.8390121  71.1717606  84.0031357  51.0294609  72.2434464  83.3052139
   2.0788260  35.3580666  22.6572571   2.1883154  34.8844910  21.8326550
   2.9614861  35.4070892  23.0243263  55.9188347  36.2927399  54.0755882
  55.3408623  36.6518059  53.4023476  55.6685562  35.3710480  54.1394081
  43.8231659   5.3934765  11.9424973  44.6957512   5.3155298  12.3281727
  43.9160233   5.0257516  11.0636415  53.7198296  15.3989258  35.2949753
  53.1229019  16.0216885  34.8801575  54.0449257  14.8613529  34.5727844
  36.4479980  33.8954048  46.5114708  35.8129463  34.5996284  46.6418915
  37.1821213  34.1264725  47.0805931  50.1184196  43.0431633  44.2898216
  50.6353912  43.4813957  44.9657822  49.4569740  43.6878357  44.0385857
  28.1230793   3.8724699  64.8848801  27.7035427   4.3238020  64.1524048
  28.1988106   2.9635458  64.5944366   2.8311689  30.3005981  75.4860077
   2.2311544  30.1914158  76.2237701   2.9449720  31.2478008  75.4079895
  13.9838934  53.8041840  85.0045090  13.1511946  53.4589882  84.6825027
  13.7398863  54.3838158  85.7261124  60.6015244  34.4832268  54.0656548
  61.1965828  34.5668945  53.3205833  60.8300781  33.6421890  54.4614487
  17.4382725  63.7933884  75.1989670  16.9217682  63.6023064  74.4160614
  18.0990028  63.1012917  75.2248154  57.8583984   0.9859181  42.3410187
  57.6134338   0.3586235  43.0212555  58.7342072   0.7129948  42.0676994
  47.4838676  13.2583771  22.8728256  46.9980240  14.0288935  22.5787296
  47.3769341  13.2564735  23.8240318  22.7826118  65.9020767  21.7440453
  23.2804337  65.5732346  22.4925556  22.7044888  66.8427505  21.9029789
  41.0193100  58.4386559   6.5386181  41.0144577  57.4978485   6.3622780
  40.1291084  58.7251930   6.3344893  33.4998207  34.3173409  77.8990784
  33.5282478  33.3607864  77.9197922  32.5668907  34.5298653  77.9256516
  77.5129623  62.1025047  31.3717346  77.3107605  61.7639923  30.4995213
  78.4044876  61.8003120  31.5451965  54.9212952  65.6736755   3.3024843
  55.5175896  66.2519455   3.7781625  54.5135269  66.2380219   2.6456211
  12.5949669   5.8890290  29.8707294  13.3890572   5.4992294  29.5050678
  12.2377214   6.4183173  29.1576653  10.0481997  37.5703545  74.0092850
  10.2461519  36.7441063  74.4501419   9.0962496  37.5663834  73.9092560
  44.6404724  40.5835724  17.3936710  44.4863625  39.9325867  18.0782852
  45.5929108  40.6159897  17.3040180  13.4350891   2.3395982  10.2409029
  12.8956690   3.1302872  10.2326136  13.8459435   2.3390033  11.1054430
  25.3230000  68.1984940   9.5171175  25.1156921  67.2667160   9.4460392
  24.4763947  68.6386719   9.4414167  50.0005226  57.9613037  67.8704071
  50.4350548  58.7642899  67.5829544  50.7173424  57.3712959  68.1034088
  86.4215164   3.1063485  84.9594650  85.7932205   2.4880855  84.5863419
  87.1818085   2.5695431  85.1831436  20.9416389  42.5836716  12.4323263
  20.9366570  43.2506256  13.1188965  20.7146168  41.7716980  12.8855314
  82.0417099  65.6357040  44.0776443  81.9343109  65.0524826  43.3262787
  81.2201157  66.1249695  44.1204338   4.9083114   3.1564701  20.2196732
   5.0369711   4.1026468  20.2862186   5.5557218   2.7840309  20.8183231
  49.2408791  36.5830803  19.2751064  49.8188133  36.5708237  18.5121689
  48.4220543  36.9567490  18.9493332   9.1354752  33.9239693   6.7202034
   8.1812220  33.8512573   6.7016144   9.3030968  34.7720909   7.1310854
  23.2794800  56.9506149  40.0536613  23.7831287  56.1391792  40.1180191
  23.0383301  57.0101585  39.1292534  44.5335197  20.2022190  86.4372635
  45.4730263  20.3440800  86.5531921  44.3322792  19.4566746  87.0028610
  42.1793175  52.9128990  20.5708179  42.9457588  53.4251976  20.3132324
  41.8707466  53.3311729  21.3745995  66.4494705   2.0596323  69.7905502
  66.8417206   2.0078421  70.6621475  67.1657486   2.3422501  69.2219467
   8.5659065  40.6286888   6.9139128   8.0822983  39.8200188   7.0824480
   8.9724274  40.8440208   7.7533207  84.9225693  52.2390327  53.0232925
  85.4471512  51.6849747  52.4453087  84.7991562  53.0502052  52.5303383
  67.5880508  57.8602448  58.4606934  67.2453537  58.1757050  59.2969170
  67.7794189  58.6562233  57.9646797  73.5183029  13.3564672  11.8327942
  74.2792358  13.2630768  11.2596540  72.7732925  13.1129513  11.2833548
  72.5048599  27.0751438  41.2295189  72.3673401  26.7881794  42.1322784
  71.7325211  26.7623367  40.7584763  70.4107361  25.6637020  85.9026260
  69.8170166  24.9160500  85.9714737  70.6676559  25.6814232  84.9807205
   2.5830197  37.6329918  87.7948380   2.6541853  37.9901237  86.9096069
   3.4223397  37.1983147  87.9459305  44.0243454  17.2724113  61.9192314
  43.3211670  16.7446156  61.5408020  43.5958214  18.0850754  62.1878853
  81.4133682  24.7922935  54.3702354  81.3507156  24.0241241  54.9378815
  81.7048492  24.4442558  53.5275383  62.2095451  31.9161587  46.7946663
  62.7264442  32.0144005  47.5942879  62.8440399  31.6454716  46.1310577
  18.2719707  18.7723980  11.9022713  18.2756996  17.8152390  11.8942537
  18.7588043  19.0071983  12.6922665  83.1396332  11.0979967  41.2535973
  82.1956711  11.1039877  41.4120979  83.3999939  12.0164871  41.3230286
  68.8848114  22.5222397  14.1344757  68.2771759  23.2536488  14.0247316
  69.1453247  22.5632782  15.0546284  46.0923233  63.7583199  33.4893608
  45.8656235  64.6842422  33.5759735  46.9074364  63.7572327  32.9875412
  72.6666412   0.5744517  61.7513237  71.9273605   0.0033335  61.9599304
  72.3674240   1.4511907  61.9922104  30.8017426  53.5685844  57.1084862
  30.1715355  54.2270699  57.4008293  31.6130962  54.0576782  56.9716492
   2.1004245  43.3280258  17.1220875   1.8662615  43.4403839  18.0433788
   1.8848913  42.4154549  16.9297523  51.8442116  40.4420471  80.2995911
  52.3088264  41.2432747  80.5412445  52.3128548  39.7454834  80.7593765
  45.4829102  40.8500519  76.3554764  45.3472443  40.4917870  75.4782791
  46.2880898  41.3625603  76.2829819  67.9732666   1.9411043  57.8864136
  68.7584457   2.2833481  58.3137283  67.9746857   1.0070049  58.0954285
  59.1059113  31.2187347  39.2589149  59.2212067  31.9821796  39.8246841
  58.7370453  30.5481319  39.8337708   0.2808302  19.6063366  17.2686214
   1.0263900  20.0531349  16.8676929   0.5325881  19.4958572  18.1854877
   5.7987828  47.8254776  86.5166016   5.1556683  47.5104523  85.8814697
   5.7635484  47.1877556  87.2295532  79.4488297  16.2378883  67.4463654
  79.9072723  15.4951143  67.0535049  78.8379135  16.5278053  66.7688980
  63.5388794  55.7057648  32.6151619  62.6953812  55.4318085  32.9752922
  63.9158936  54.9043961  32.2519875  16.4287853  59.7111053  72.9298019
  15.5294991  59.6286011  72.6124573  16.8359127  58.8713875  72.7168503
  83.4576416  65.4298401   4.0857968  84.0560074  64.7614441   4.4196305
  83.0471954  65.0240173   3.3222034  65.6125107  23.4764442  20.2988434
  66.4247131  23.2718773  20.7622128  65.1256180  24.0355110  20.9043274
  33.3636017   8.1581488   7.6619759  33.0148621   8.9477730   8.0756264
  32.6114006   7.5697870   7.5967116  80.1386414   3.8051863  25.9914322
  81.0230026   3.4389446  25.9949150  80.0364380   4.1760483  25.1149349
  72.5994263  55.8389969  46.1144409  73.0094299  56.1912804  45.3244896
  72.2203979  55.0052605  45.8361282  65.6094513  40.4008217  79.2687988
  66.3095322  40.8601608  78.8049850  66.0046692  40.1390419  80.1003723
  67.8095703  66.9613419   1.6985469  67.0000229  67.0010757   2.2077553
  68.3571777  66.3320847   2.1680045  64.8432083  10.3535128  14.4479179
  64.2144699   9.8060474  14.9182367  65.6477966  10.2903900  14.9625893
  71.5972824  59.1606636   4.0913229  72.2200851  59.8397598   4.3505144
  70.7411270  59.5839653   4.1549520   2.6916044  15.9034634  35.1796303
   2.4908519  15.6721849  36.0865173   2.1284785  15.3328381  34.6566505
  44.3061028  60.3737297  56.3747673  44.9229126  61.0678635  56.1424866
  43.6078911  60.8232079  56.8508987  15.8641968   6.0509415  69.0451126
  15.7601824   6.8077741  69.6218414  14.9961920   5.9193931  68.6636734
  23.1226063  11.5364780  88.4215927  23.7411175  11.4488907  87.6963348
  22.8581829  12.4562025  88.4011307  82.3026886  19.1975040   8.7270041
  83.2001953  18.9785423   8.4764795  81.8901825  19.4854336   7.9126530
  12.9356604  56.5213394  85.5188980  13.2273979  57.1763039  84.8847504
  13.0435944  56.9468079  86.3695145  60.5205612   0.8015059  26.9794655
  59.6424942   0.7227663  26.6065998  60.6591072  -0.0246945  27.4425316
  25.4259663  69.1821671  66.9540939  24.7585373  69.8162003  67.2163315
  24.9653416  68.5754013  66.3745270  70.1148300  57.0711174  79.5666046
  70.5296631  56.5272064  80.2361603  69.6124802  57.7185059  80.0613403
  42.5483932  18.4492016  85.3216858  42.1317520  19.2934399  85.4945984
  43.3335075  18.4529591  85.8692322  48.8151398  15.7953110  17.8064499
  49.5457687  15.5383415  17.2439766  48.1545486  15.1170177  17.6658421
   9.6427479  47.9206085  33.7906303  10.5615454  47.6587143  33.8493958
   9.6446857  48.8521729  34.0106697  79.2522888  56.3918877  21.7211857
  79.5927353  56.0743141  22.5575333  79.8951187  57.0390892  21.4311447
  16.6357861  14.3243055  20.5912495  17.1029167  13.6749496  20.0655518
  17.2842350  15.0081635  20.7588406   9.9716930  32.9588509  76.0732727
   9.8619690  32.5140877  76.9137344   9.1875172  33.5005836  75.9847946
  55.5085831  60.2578430   3.1699901  54.9183502  59.7693253   2.5962257
  54.9391403  60.6143875   3.8517828  61.3310356  54.2430649   2.8474622
  61.4598236  53.3313828   3.1091619  62.0215836  54.7232475   3.3044057
  60.0444069  14.7908211  54.5134659  60.3161736  14.1874285  53.8218803
  59.9288483  14.2352238  55.2843056  84.1792603  22.2029552  75.0711136
  83.8620682  23.0599194  75.3561249  84.4761429  22.3442936  74.1721649
  77.6511230  30.8277931   7.9444375  77.7730255  30.7601223   8.8914299
  78.1998672  31.5677891   7.6845884  30.3226452  37.3476982   0.1386384
  31.2036495  36.9752808   0.1016527  30.1444092  37.4488029   1.0736475
  70.3938751   9.5518990  59.6098022  71.2425766   9.8653431  59.9223518
  69.9041367  10.3488941  59.4068604  70.2933731  47.3759537  52.2246628
  71.2361603  47.2204056  52.1681824  70.1972351  48.0086899  52.9364433
  47.5718460  34.2950096  62.7294617  46.6481438  34.2514153  62.9766617
  47.5620461  34.3401337  61.7733765  32.0586891  54.8008499  44.7677345
  31.9003639  55.6891937  45.0871353  32.9130936  54.5650940  45.1291771
  63.2530098  67.7886581  86.7643585  63.6356430  68.1426849  85.9615555
  62.5105095  67.2641144  86.4647217  46.1861649  38.2202454  75.7617493
  46.9537392  37.6599121  75.6473312  46.4444351  38.8447609  76.4396210
  60.0640411  46.6530685  61.9526978  60.6375809  46.0876808  61.4353752
  59.7055550  47.2746086  61.3191338   3.6092777  59.1797562  59.5405807
   3.7322547  58.4165497  58.9761124   3.3333771  58.8140793  60.3810501
  47.3382111  64.7181168  11.8396444  47.9541702  64.1515121  12.3041697
  47.3643456  64.4088058  10.9341736  17.3814964  70.7343445  67.4915924
  18.0179462  70.3078842  68.0654373  17.1588669  71.5481110  67.9437485
   2.7191031  65.9198380  76.1239243   2.5637500  66.5752640  75.4438477
   3.5645692  66.1623077  76.5015869  36.1026497  21.0052967  17.8204517
  36.0309143  21.5048027  17.0070763  36.3233757  21.6587582  18.4841499
  22.1418896   2.9442339  11.1062660  22.4575691   3.3711905  10.3098450
  22.9181194   2.8685074  11.6612101  30.8494339  45.6351776  23.8840389
  30.9027367  46.2713356  24.5972672  31.7265682  45.2549477  23.8361874
  68.7608871  10.2705717  49.8786507  69.4620132  10.2700691  50.5303040
  68.5008926  11.1890163  49.8072777   2.2134824  62.6867485  10.1485853
   2.3399785  63.5542145   9.7642241   1.6397471  62.8388557  10.8995333
  70.2912521  15.3714266  18.6485329  69.8640442  15.5128794  17.8037148
  69.9728928  14.5162926  18.9377136  12.7548161  57.9546928  19.3813591
  11.8206167  57.8664322  19.1923790  13.0866661  57.0568962  19.3733540
  75.6869659  17.1324921  59.5733261  76.0647430  16.5257015  60.2099686
  75.8684235  16.7314777  58.7233315  25.1303997  57.6055946  19.7785950
  24.5614643  57.7480736  20.5350628  24.5294895  57.4014206  19.0620403
  39.0118370   6.9107060  38.7919159  38.9554634   6.9035850  37.8364067
  38.3844109   7.5804873  39.0638771   9.7175016  65.0102005  78.8872757
   9.8262072  64.0682297  79.0180969   8.8060665  65.1102371  78.6124802
  86.3203964  64.5232849  66.4309540  86.8457031  64.4319687  65.6360016
  86.7206192  63.9162979  67.0535431  49.5119057   4.4323072  48.8492851
  50.1931267   4.7166643  49.4586372  48.8415718   4.0372615  49.4067955
   7.5122204  37.3874626  15.5876408   8.2120800  37.3942223  16.2406216
   7.6436119  36.5718575  15.1041594  36.5122299  44.6353378  30.6173382
  36.0858917  44.0716667  29.9717808  36.0905952  45.4875374  30.5068321
  57.2973022  18.7249851   4.3729281  57.3864250  18.0226650   5.0171618
  56.8367500  19.4218102   4.8404284  18.3763237  15.8103714  12.7139969
  17.8876076  15.2939072  12.0731745  19.2841511  15.7680635  12.4135113
  69.3831253   5.6522355  79.7182007  69.2698135   5.9729662  78.8234787
  68.5637054   5.8771920  80.1588593  79.9353638   1.1214011  63.3191147
  79.1054840   1.5981342  63.3350220  80.0968933   0.9526594  62.3908577
  41.9210396  53.4108429  56.2826576  42.7813911  53.2603607  55.8910179
  41.3686752  52.7178383  55.9208946  32.2129021  62.4753952  85.7320404
  32.7831841  63.0954781  85.2776108  32.6609039  61.6334991  85.6499710
  20.7776852  67.8159637  30.2592735  19.8340416  67.7360916  30.1200237
  20.8970394  68.7080154  30.5852032  41.4654655   2.9341991  39.6141357
  40.9422188   3.5872653  40.0788422  41.2032890   3.0249696  38.6980247
  62.6573601  37.5055656  36.8225365  61.7932777  37.2206039  36.5252342
  62.9725952  38.0811844  36.1257401  52.2247887   3.2427931  49.1087685
  52.0127106   3.4083304  48.1901512  53.1176758   3.5720756  49.2115364
  75.2112732  24.0290813  40.6666069  75.8852386  24.7067699  40.6142845
  75.6781464  23.2127056  40.4883156  86.3185577   8.8275414  37.0342865
  87.1127853   9.2821093  37.3149948  86.1863251   9.1125650  36.1301231
   0.8284930  65.2345276   9.3509531   0.0216691  65.7208939   9.5204048
   1.3373297  65.8072052   8.7770519   0.9639698  26.5536823  11.1831093
   1.4795734  26.4946632  10.3788071   1.6079460  26.7350883  11.8676662
   7.5667224  63.0266457  77.3265762   8.1019154  62.3273125  76.9514389
   7.0324297  62.5897942  77.9898453  72.6415710  52.7802391  62.7807999
  73.1461945  52.0704536  63.1780281  72.9249649  52.7930908  61.8666039
  70.7411728  64.8307571  14.6683588  70.1492462  65.0680618  15.3821831
  71.6174545  64.9353790  15.0390472   4.7839870  38.9656563  24.6603508
   3.8910651  38.6308022  24.7427692   4.7253251  39.8771820  24.9465618
  81.8620071  63.3189278  88.8283997  82.0735092  62.5412827  88.3118973
  80.9092789  63.2953033  88.9177094  62.7436142  22.9261055  21.7719917
  62.2583046  22.1067314  21.8685837  63.5726280  22.6674309  21.3694286
  57.4203300  46.3756943   8.0767469  57.5717850  45.4441605   8.2365417
  57.1983871  46.4262352   7.1470065  67.3905640  29.4517555  81.0811310
  68.3172531  29.6851540  81.1358871  67.3173828  28.9505825  80.2689133
   7.1346617  26.7468948  38.5566559   7.3393350  26.9050293  39.4782486
   7.5377588  27.4805717  38.0924759  34.4106598  23.4306545   2.1599472
  34.4968338  22.7707825   1.4719236  34.5163383  24.2661953   1.7050472
  59.0986443  42.0601158   3.8833714  59.1531639  41.7974396   4.8022070
  58.2866898  41.6628799   3.5684738  71.1231461  55.3080444  24.7318497
  70.3912964  54.8369904  24.3334389  70.7139816  55.8848381  25.3769264
  36.1681709  40.5950661   8.1023779  36.9567299  40.4083977   8.6118536
  35.4466362  40.3230400   8.6694937  10.1647959  15.4661541  13.9271898
  10.1415958  14.8168592  13.2242603   9.3295021  15.3570089  14.3817263
  65.9447708   8.5692072  70.4625092  65.0512924   8.2599783  70.3131714
  65.9009323   9.0335989  71.2983627  45.3688622  69.2365799  66.2126617
  44.7948532  68.5659180  66.5827408  45.2418098  69.1651306  65.2666245
  61.1831551  67.0096359  76.5243378  60.9720345  66.0773163  76.4748764
  62.0274658  67.0879059  76.0802155  66.3084946  55.7979202  71.0481796
  66.5896606  55.0705910  71.6033096  65.8359146  56.3826332  71.6406479
  62.6264992   7.3798289  53.0737877  62.0906067   6.9315810  53.7280998
  62.3643723   8.2982054  53.1378670  76.6031189  12.7714195  23.8465710
  76.1875763  11.9092569  23.8313732  77.4830399  12.6072521  24.1857147
  79.9761124  66.0204163  48.4352913  79.8921204  65.4865417  47.6452522
  80.1610336  65.3902512  49.1316566  82.2036514  49.4288559  66.2282410
  83.0212326  49.9244652  66.2748260  82.3825150  48.7304001  65.5986404
  48.4904938   8.6684484  46.5847549  48.4200897   7.7674618  46.9001884
  48.5345192   8.5859537  45.6321335   7.7632446  15.2785492  81.4777985
   8.5615482  15.7875423  81.6187592   7.8843894  14.4911718  82.0084534
  23.2601261  25.8696308  74.8825607  23.3943157  24.9447727  75.0895920
  22.4412003  26.0972404  75.3227768   3.9369161   4.6356425  79.8752060
   4.8348999   4.4211597  79.6225128   4.0331059   5.2592711  80.5949783
  55.5415421  71.3039398  19.4620838  55.1564178  72.1603012  19.2762089
  55.9306297  71.0308685  18.6312561   2.5143580  31.4808502  65.8443909
   1.8339834  32.1517258  65.9014053   3.3053598  31.9619770  65.6013565
  38.7191391  41.2314911  35.8743095  38.1579208  41.0089645  36.6171074
  39.4533653  40.6206207  35.9374008  16.2242355  46.1250610  68.1088867
  15.5128613  45.5116653  68.2930756  16.9731216  45.7752686  68.5916367
  47.3565292   8.8105087  21.6291428  47.3909340   8.7852345  20.6728954
  46.6293297   8.2316952  21.8580284  67.8799591  61.9664459  53.4725647
  68.0030136  62.3323364  54.3484726  68.5047226  61.2427902  53.4253426
  80.1486664   0.5859331  60.3407364  80.1949234  -0.3565310  60.1799469
  81.0384903   0.8292972  60.5961113  25.2462864  56.7313843  52.5657959
  26.0580311  57.1007156  52.2180977  25.4318962  55.7978020  52.6668243
  59.9936905  51.9460106   4.7937727  59.1500359  51.8909531   4.3449454
  60.5947456  51.4530449   4.2352471  39.0957756  32.2149467  73.6531525
  38.1826706  32.4837990  73.7540970  39.4869881  32.3679466  74.5132523
  65.0747528  61.2244568  88.5218658  65.1747360  62.1267891  88.8252258
  65.6994934  61.1434364  87.8012009  59.2381554  62.2469826  58.8826942
  60.0622063  62.6314011  59.1816902  59.4572754  61.3371086  58.6818428
   9.6452761  54.0902786  69.3764267  10.4987879  54.3032570  69.7537689
   9.3253078  53.3593216  69.9051514  11.1482677  65.8136673   4.5870571
  10.2286129  66.0324173   4.4366846  11.2673931  64.9685440   4.1536794
  23.3361645  59.2874908  57.3317223  23.5498085  58.5809555  56.7223015
  24.1066380  59.8553467  57.3196754  82.7508926  49.9691429  35.8208313
  82.7353745  49.8145447  36.7653351  83.6183090  49.6738625  35.5440140
  63.5166550  14.8951263  47.4682808  63.0190086  14.5328922  46.7352257
  63.5147476  15.8400364  47.3153992   2.1776505   2.5133824  78.8879013
   1.4655749   2.5103929  79.5275726   2.7815042   3.1850522  79.2048492
   1.2519965  68.1605835   4.8115687   0.7715890  67.4866714   4.3306475
   1.4540271  67.7550354   5.6547480   2.7703581  54.7055054  25.3098831
   2.8218338  53.8608971  24.8624268   3.5930583  54.7701492  25.7948761
  72.4092789  32.1925354  30.3259068  72.3491669  33.1411324  30.4389668
  71.5000916  31.8931961  30.3262558  65.7076340  47.2560997  40.0330620
  65.4280319  46.3433456  39.9627686  66.4425354  47.2349472  40.6460037
  22.2958927   7.2125745  68.6084061  22.8516312   7.2960997  69.3832703
  22.5553818   6.3788195  68.2163010  32.7867775  39.0756950  74.8757553
  33.5064125  39.3082581  74.2890091  33.2030487  38.5788956  75.5801239
  19.1062984  58.2574463   8.6393833  18.2389469  58.2741356   8.2348413
  18.9315395  58.1878281   9.5779161   3.1105685  40.5627403   1.4659111
   4.0160909  40.8727303   1.4529397   3.1478200  39.6973038   1.0586495
  70.8657684  17.3378792  37.6940041  71.7401505  17.0275040  37.4587059
  70.7738724  17.1153164  38.6204224  26.7423649  19.0665569   3.3308549
  26.5208359  19.9494896   3.0349000  27.2421589  19.2021370   4.1358743
  12.6593351  15.3268862  -0.1412591  12.9112787  15.7617750   0.6733745
  13.4527206  14.8732958  -0.4259120  72.6338196  64.8559875  40.3651848
  72.7944336  63.9123611  40.3678474  73.0004959  65.1590118  39.5345459
  56.7793541  40.7645264  28.8046360  57.5019836  41.2704506  29.1762314
  56.0739632  41.4016724  28.6919479  62.0488014  69.7380753   6.6460381
  62.9886131  69.9195404   6.6537719  61.6529999  70.5391922   6.3028259
   6.6914811   6.8987956  61.1176491   6.0899878   6.2105303  61.4017754
   6.4448276   7.6626935  61.6390419  64.6647797  57.2862434  30.4906616
  64.1017303  57.1737518  31.2565269  65.4925308  57.6086235  30.8472157
  33.6078606  63.3541641  19.5452919  34.1286354  63.2704315  20.3440533
  33.5228577  62.4580460  19.2197514  61.8738785  46.4462204  22.9374809
  61.7795906  47.0506401  22.2012634  62.4828987  46.8852158  23.5312939
  75.8446426  12.5277004  31.8404484  76.0177155  11.6360712  31.5383301
  76.2696075  13.0874968  31.1906300  73.2989883  56.7091370  67.4783783
  72.4612656  56.5811424  67.0333252  73.9386444  56.2741737  66.9145737
  81.3060837  36.9785233  73.0575867  82.0527573  36.3866310  73.1490402
  81.4875793  37.4711647  72.2572174  16.8146057  69.7164764  76.6091690
  16.4771633  70.0064392  75.7616501  17.6289387  70.2064896  76.7230988
  41.4815140  27.0658073  88.0686493  41.1632118  27.2251301  88.9572067
  42.0206184  27.8305264  87.8666382  44.7324944  43.3749847  19.5078697
  45.3598480  42.6520500  19.5123100  44.5400772  43.5308075  20.4324932
  78.6447906  24.8038273  13.7492981  78.8025589  24.9250355  14.6855936
  79.2616425  24.1197224  13.4890556  36.0049438  38.5713043  76.0824051
  35.3898697  38.0118980  76.5567245  36.7541008  38.0037308  75.9011459
  21.4892654  45.1053314  86.5775986  20.5487118  45.1723251  86.4129639
  21.7435398  45.9795151  86.8731995  48.6497574  51.8756180   2.4764142
  48.0377159  51.8420296   1.7412229  48.8392830  50.9580650   2.6723955
  85.6112213  58.7105370  60.6985970  86.4556503  59.1606903  60.6753654
  85.3412018  58.7551079  61.6158371  33.2304192  21.1314201  11.7305813
  32.9378357  20.2266293  11.8400135  32.5811081  21.6519737  12.2034969
  54.9396439  67.4048157  43.1455803  54.3978424  67.8000107  42.4625664
  54.6683731  67.8450012  43.9511147  58.7361183   0.3784088  20.9105320
  58.9940033  -0.1048447  20.1255512  58.9460449   1.2905291  20.7100315
   1.1939558  44.4530144  72.1155396   1.5826406  45.2828178  72.3922729
   1.8812329  44.0251122  71.6048660  36.6073647  42.3793335   2.8100603
  36.7089233  42.8326683   3.6469605  35.7178917  42.5930557   2.5282905
  43.2058983  46.6319504  80.1933517  42.3613510  46.7068977  79.7491150
  43.4098434  45.6971893  80.1640091  62.6321716  66.1439590  13.9222622
  63.3695221  66.7225800  14.1165495  62.8728485  65.7171402  13.0999880
  -0.0334886  35.2230072  87.7468185  -0.5258200  34.6199036  88.3036957
   0.7361598  34.7233353  87.4744263  65.6759186  32.7867775   4.3177872
  65.5546341  32.9292450   5.2565227  66.6223755  32.8447380   4.1870518
   4.9587455  10.6740227  49.5320969   4.4565811  10.2167120  50.2065811
   5.6447697  10.0546923  49.2830315  71.2348175  42.9657555  85.6378632
  70.7124786  42.6412926  86.3714294  70.9028244  43.8495178  85.4798279
  16.9885082  60.2392616  49.9397697  17.6361980  60.7611961  49.4661522
  16.2769165  60.8518524  50.1257896  -0.0978357   6.5042539   4.4135580
   0.4917740   6.6270041   3.6695654   0.2486509   7.0839000   5.0919304
   4.0560622  18.5124073  20.1145668   4.9212112  18.9201527  20.0759354
   3.4938440  19.1802464  20.5071659  67.4211121  59.8796806  25.7921829
  68.0487595  60.4755936  26.2010632  66.8934860  59.5511894  26.5201511
  22.9962597  14.9132767  82.0028915  22.1421070  15.1825066  82.3407822
  23.3461781  15.6990089  81.5828781  76.2954330  41.3829079   9.4399557
  77.1092453  41.1477280   8.9942675  76.4319229  41.1104393  10.3473492
  59.1467247   4.7871289  55.8590965  59.6820641   4.0245543  55.6397209
  58.5354691   4.8692460  55.1270752  71.1613388  38.0932045  44.9576759
  71.2644882  38.3954430  44.0553207  70.9507523  38.8848534  45.4528313
  45.8856964  14.7621508  43.3245277  46.2171478  13.8641739  43.3279648
  46.6428757  15.2978430  43.5610580  10.6263170  63.1888428  53.8810883
  11.0539036  62.6302185  54.5301933  10.0410995  62.5990410  53.4058113
  67.1658936   6.4740200  41.1566200  67.4469910   5.5601592  41.2021408
  66.2790756   6.4342718  40.7985535  12.1119099   7.6197414  80.7458267
  12.3140497   6.7715688  81.1407700  11.1850519   7.7594852  80.9398422
  57.6347504  13.2929211  64.7719650  57.8860588  14.1645947  64.4665756
  58.2837753  13.0774355  65.4417114  35.8613510  25.1498909  89.2027512
  36.7353439  25.2709351  89.5738602  36.0076256  24.6373672  88.4076691
  31.8672962  59.0527000  11.8690271  32.4343224  58.9298363  12.6303520
  31.1873379  59.6547089  12.1714735  24.5400238  50.5780449  37.3792648
  24.4648819  51.2028847  36.6580429  23.7981586  50.7800179  37.9494171
  84.6632538  71.1084061  34.1552048  85.2036438  71.2016754  34.9397507
  84.2486420  71.9643173  34.0468140  47.4897804  39.7326889  26.2977467
  47.2079620  40.3113976  27.0061970  47.8743439  40.3201790  25.6472111
  37.8207321  37.5326157  22.2392712  37.3457031  37.4585114  23.0669727
  38.7038727  37.2237434  22.4414787  41.2203140  18.6534882  78.3081665
  40.3049583  18.9330044  78.2932587  41.1865578  17.7374344  78.5837326
  78.9423981  60.1233978  60.4754791  78.9996796  60.2365379  61.4242401
  78.7825165  61.0048904  60.1383705   1.6813288  47.9263115  42.8921700
   2.1655233  47.1387901  42.6439743   0.9347615  47.9470978  42.2934761
  46.4930992   2.6610863  37.3930016  45.7031746   2.3819458  37.8559570
  46.8084335   1.8688185  36.9581375  18.6983738  55.1270523  37.0711670
  18.3935337  55.7493095  37.7315483  19.6529121  55.1581154  37.1353607
  12.2754297  13.3963833  84.4228897  13.2274904  13.3666620  84.5173874
  12.1304693  13.4665670  83.4793396  51.7083511  56.3686867  69.2288132
  51.5320282  56.8543053  70.0346146  51.7628822  55.4544830  69.5071793
  79.0781403  15.0218582  88.8542786  78.3966370  15.6707296  88.6789246
  79.1942139  14.5652695  88.0210419  15.2005816  63.0508308   7.6974792
  16.0503864  62.7624512   8.0304976  14.5767374  62.4177055   8.0527258
  83.6472168  24.9059525  66.7653503  83.9684677  25.7236824  67.1452789
  83.6652985  24.2815208  67.4906082  23.1793728  26.5686893  78.5471115
  22.2778759  26.6602802  78.8555679  23.7068348  27.0058727  79.2156067
   2.0103626  30.0227528   1.3331025   1.2436296  30.4366760   0.9368445
   2.4444954  29.5768242   0.6058414  84.6767120  30.3299236  17.8954983
  84.4188309  29.4104977  17.8292961  84.7830811  30.6147938  16.9878826
  27.2741585  39.5798988  15.6094379  27.4584064  40.5182381  15.6519194
  27.8304977  39.1956596  16.2869911  37.6204491   8.5848789  15.3183556
  37.2432365   7.8471637  15.7976456  37.4759369   8.3707333  14.3966780
   1.8234957  21.9633102   8.9125795   2.0107965  21.0538921   9.1451969
   1.4553462  22.3435860   9.7101307  66.7300644  23.1443195  87.7107010
  66.8043442  22.6280308  88.5132904  66.1938400  22.6060982  87.1284485
  82.8946991  36.0100250  77.4141541  82.2686996  36.6815567  77.1432266
  83.4539337  36.4486237  78.0553360  51.0255280   6.4241056  88.1198196
  51.6082230   5.8893104  87.5806580  51.3451157   6.3000102  89.0135193
   2.9385848   1.7028403  58.3347015   2.0208397   1.8960146  58.1432343
   3.1636579   0.9912635  57.7353401  30.7415619   0.1626955   7.7631855
  29.8309898   0.1451456   8.0577745  31.2505150  -0.0500618   8.5454464
  62.0393372   7.3906980  36.3913727  62.1584206   8.1343555  36.9821548
  62.8621979   7.3367577  35.9053459  28.0617905  46.9697647  70.3667297
  27.7687645  47.1612206  71.2576294  27.6812725  46.1142006  70.1680984
  39.4144058  56.1882477  74.0877686  39.4545517  55.6372681  73.3060760
  39.7606125  55.6355553  74.7884140  52.5317612  48.6859550  17.2395802
  52.6671600  49.6186066  17.0720692  52.1227608  48.6548538  18.1044407
  39.8578873  31.8312950  55.1379967  40.0668106  32.7624817  55.2119713
  38.9013100  31.7987823  55.1496887  36.5518723  58.2427902  80.3287277
  35.8481903  58.3626671  79.6910095  36.8144150  57.3279877  80.2265701
  69.8398209  43.9066811  52.7488480  70.2103806  44.3162193  53.5306396
  70.3394699  44.2804451  52.0229797  80.4474182  18.6961136  39.5538330
  81.3294830  18.6491108  39.9225883  80.2697754  17.8080902  39.2438469
  70.6468582  13.3941088  82.0921249  71.0333481  13.3331461  82.9657059
  70.7439041  12.5152769  81.7254257  45.1511230  36.2923012  30.4216080
  46.1062202  36.3432274  30.4594536  44.9711609  35.4131241  30.0886021
  10.0952377  64.6786423  23.9486752   9.4987040  65.2629929  23.4807854
   9.9859152  64.9127045  24.8703575  73.8529205  28.1441841  10.2924137
  74.6817703  27.6792583  10.4067831  74.0191956  29.0196857  10.6418133
  36.9601059   5.1640644  79.3433075  36.5279694   4.5629110  78.7365952
  36.3948517   5.9363923  79.3585358  62.4157944  42.6925430   4.0049224
  61.8319778  42.2236519   4.6011882  62.2470169  42.3015289   3.1476877
   9.1660433   4.0318050  18.3428078   9.8927431   4.3162775  18.8970776
   8.9185963   3.1759632  18.6928596  82.0921478  17.4199867  57.3459358
  82.4493484  16.5380135  57.4496880  82.1623993  17.5980473  56.4080696
  30.2261772  39.6963921  70.1434326  29.3395023  39.3547668  70.2589035
  30.5518036  39.8235207  71.0345230  16.4539852  42.6084290  67.8749084
  17.3929558  42.7836723  67.8127899  16.1801395  43.0520401  68.6776810
   0.8392045  52.0172386  27.4282227   0.3356342  52.2881165  26.6605797
   1.1018229  52.8382912  27.8443222  25.7676983  67.3971558  49.4678154
  26.5036392  67.8174210  49.9127846  26.0325375  66.4815979  49.3792953
   9.4648733  47.9798622  16.1479855   9.7429352  47.9166183  15.2342501
   9.9529390  47.2885132  16.5952663  67.6571426  31.2219067  69.0828247
  66.9014511  30.7216396  68.7747803  67.4820099  31.3727856  70.0116882
  45.7751427  60.1065712  49.8020287  45.6440964  60.0635681  50.7492409
  46.7154617  60.2512627  49.6966553  14.6860409  27.7740288  81.1923294
  13.8200779  28.1251049  80.9847641  14.6655254  26.8755741  80.8628006
  76.6485672   7.2432280  59.7870522  76.2867126   6.8007102  60.5548210
  77.1519165   7.9736638  60.1466751  21.1839943  67.8627625  11.0280638
  20.6429501  68.1713104  11.7549086  21.9478321  67.4680710  11.4487753
  10.6282310  63.9120865  42.9181213  11.5333586  63.9230804  42.6069069
  10.5118113  63.0357819  43.2852325  20.7874050  53.9533463   4.7645421
  21.3133125  54.2697258   5.4990869  20.3104343  53.2022209   5.1174455
  70.2544250  26.0701046  60.9179802  71.1651840  26.1025486  60.6252518
  70.2013702  25.2747860  61.4479675   7.4422669  63.5925140  80.9548645
   7.2373066  64.5131226  80.7914505   8.3982906  63.5519562  80.9302597
  34.9992065  59.4899063  23.0495415  34.4686928  59.3272057  22.2695942
  35.9025841  59.3856392  22.7507668   9.2965393  27.3357449   1.9567606
   8.4635429  27.7639008   2.1543260   9.3568621  26.6237507   2.5936744
  64.6037216   4.5460973  55.0956383  63.8566666   3.9678841  54.9413185
  64.2995987   5.1561780  55.7676086  76.6989975  61.1913834  47.2471085
  76.9296875  61.8610573  47.8909645  77.4840927  60.6486740  47.1742058
   0.4930811  71.6094589  54.8110428   0.2589287  72.2487259  55.4839020
  -0.0098136  70.8273697  55.0383568  55.0301361  53.6106834  54.7141380
  55.3074608  54.0513535  55.5173416  54.0751686  53.6754303  54.7229080
  67.6995087  14.1162291   8.7352858  67.4385376  13.2285461   8.4900370
  67.0188065  14.4069319   9.3422203  77.4457703  54.5549965  64.9953766
  77.6944046  55.4420090  65.2554092  77.9191055  53.9859314  65.6023026
  49.6785698  52.6088066  82.7600174  50.0979919  51.7853622  83.0095367
  50.3512077  53.2740250  82.9058609  11.3213968  48.6188393  26.3326988
  10.7424059  48.1805229  26.9563026  11.7961683  49.2626419  26.8583775
  43.8330421   4.0080996   4.9236698  44.0180435   4.5928860   4.1888018
  43.1703453   3.4042802   4.5883093  14.3678617  64.2479401  65.8077393
  14.8686695  63.5134087  66.1625443  14.9930038  64.9722214  65.7786255
  76.3550568  61.3393860  19.8806458  75.4200363  61.4076881  19.6875248
  76.4197006  61.5195312  20.8185177  73.4277115  41.9843102  48.4099159
  73.1572189  41.1210899  48.7228355  74.0190506  42.3105011  49.0882607
  70.8789978  46.7905922  44.8654900  71.4698715  47.3546524  45.3644218
  70.5516510  46.1598320  45.5067520   9.0030260  33.3798904  12.3305664
   8.9332952  32.8919983  11.5100012   9.8188629  33.0708084  12.7244062
  68.9024811  37.9110222  49.2641678  69.2867966  37.0415115  49.1524315
  68.3001862  37.8136978  50.0017281  86.7473831  10.1101971   1.4465146
  85.9957504   9.7823944   0.9527181  87.4293594   9.4527178   1.3091933
  69.9416046  13.8190765  56.9171486  69.8377380  14.4688101  57.6123390
  70.7691422  14.0500259  56.4951591  10.2066488  36.3970261  88.6082382
   9.4236469  35.9273224  88.3209763   9.9090948  36.9304085  89.3452606
   6.8030119  70.0968323  38.1358643   7.6655831  70.4972076  38.0267525
   6.8266511  69.3207321  37.5760956  74.0574722   8.0154190  48.3056717
  73.5024185   7.2373452  48.3581009  74.9352493   7.6982040  48.5180626
  61.2770348  23.4156837  61.7839661  61.6326141  22.6515942  61.3301353
  60.3281059  23.2952595  61.7483940  75.6787033  33.4921455  27.8496532
  76.2734756  33.3748627  28.5904140  76.1002808  33.0257950  27.1278324
  47.3308563  28.5758839  69.3015289  47.7600594  27.8995113  69.8254929
  47.7591743  29.3904667  69.5646439  49.9050598  15.5462217  39.5281830
  50.0215225  14.7092381  39.0785980  50.6945915  15.6440964  40.0604362
  43.9609184  41.9772949  12.0220871  43.1138611  41.9732513  12.4678545
  44.4981346  42.5818443  12.5340958  39.9277916  58.0046005  62.8729210
  40.8705215  57.9034843  63.0043449  39.8423004  58.8082962  62.3600922
  51.5803070  44.2747765  10.7363815  51.3140297  44.2084885   9.8193579
  52.5363235  44.2341003  10.7117271  10.1733284  64.5051575   8.5490170
   9.8108902  64.1729736   7.7277207   9.4899940  65.0772247   8.8983402
  79.7534256  43.2513657  60.5336685  80.6029739  43.3326340  60.1002083
  79.8189163  43.8235550  61.2982216  65.5065002  43.9139595  24.8016891
  66.2508163  43.4108315  25.1319752  65.5618591  43.8268204  23.8500729
  30.0043831  47.9164543  30.6058369  29.9575901  46.9662666  30.5000782
  30.4744301  48.0428505  31.4300404  36.6188393  25.1418324  15.5124779
  36.5804520  26.0369282  15.1754866  37.1684761  25.2034054  16.2937222
   4.9411688  19.4402733  71.3330536   4.3899593  18.8371964  71.8317490
   5.0396352  20.2023754  71.9037857  35.7325783   2.1462991  46.6584816
  35.6490402   2.8549292  46.0204391  35.0716171   1.5065318  46.3937912
  80.2568512  41.3666801  13.1198215  80.4084091  41.8398514  13.9379740
  80.9908218  41.6171722  12.5587740  56.7042580  69.8842392  26.7994385
  55.9674683  70.4732361  26.9620800  56.3081207  69.1097183  26.4001579
  71.7125015  44.8666801  26.4739838  70.9508972  44.4831924  26.9088783
  71.9394379  44.2373962  25.7893429  70.9380798  68.5570908  75.6787033
  71.4528275  69.3108521  75.3904114  70.2803040  68.4399643  74.9932556
  56.8572884  14.5601368  45.2319679  56.3635330  14.4123230  46.0385590
  57.4152527  15.3129768  45.4272575  77.4572678  34.3086739  30.1198997
  77.9667130  33.5127220  30.2720776  78.0923004  34.9376640  29.7773533
  33.9825439  70.2494812  29.1301880  33.9592514  70.5989456  28.2393684
  34.8280373  69.8048782  29.1910229  55.8684273  52.3189621  78.3199768
  56.2069969  51.9406967  79.1314697  56.6100006  52.2917213  77.7153625
  73.5496597  26.3799610  32.4708176  74.2254410  25.9749660  33.0144424
  72.9965744  25.6498909  32.1927376  81.4840164  43.7409782  25.4480267
  81.6445541  44.2532997  24.6555691  80.5521393  43.8645821  25.6284504
  29.4148369  59.5276337   7.4066305  29.1200771  59.5980492   6.4986711
  30.3660831  59.6222992   7.3576608  25.8220901  45.8913307  82.5064240
  25.7314529  45.9112968  83.4591141  26.7643223  45.8130989  82.3570633
  50.1432762  42.8998299  34.1501312  49.7515335  43.3828316  33.4224815
  49.8283577  42.0027390  34.0392761  28.7048664   1.4714457  73.0872192
  28.6538124   0.6198873  72.6530838  28.7723637   2.1021073  72.3703232
  33.0374908  47.6925697  44.8862953  32.5916519  48.2961693  44.2920494
  32.7560844  47.9648094  45.7597542  47.5360680  54.0668449  58.3212662
  47.1288872  54.6756363  58.9375496  46.8071899  53.5495071  57.9787331
  59.0969276  40.6589622  37.5234261  59.5677643  41.4679565  37.3232460
  58.8315468  40.7563133  38.4379349  62.2305107  49.9322777  25.3936119
  62.8640976  50.3583336  24.8163109  62.5232353  49.0221329  25.4403076
  80.3540192  70.6402054  42.7804756  81.1373825  70.7573318  42.2430229
  79.9573669  71.5105209  42.8185654  53.5555000  53.4118233  11.6849947
  52.9304428  52.8887596  12.1869278  53.9123268  54.0329666  12.3198872
  57.7717285  54.8934937   1.3144723  57.7231102  54.1298904   0.7393393
  57.7044296  54.5322914   2.1983485   5.6512308   1.9120338  53.3899345
   5.6593046   2.4042938  52.5690536   4.9039693   2.2645161  53.8732452
  40.5094681  23.4194965  63.7910271  41.1128845  23.7882099  63.1459122
  40.4635658  22.4889183  63.5716019  47.6591187  33.1269684  17.2965870
  47.6420364  32.2259254  16.9739952  47.7243919  33.6631050  16.5063171
  11.1975861  63.2304916   3.5115159  10.3956995  62.7101669   3.5612369
  11.8498182  62.6312447   3.1485696  67.9411545   6.6452961  50.7176285
  67.1024475   6.1844583  50.7382965  67.9542999   7.1551971  51.5276031
  78.1408157  57.5749168  37.8324280  78.3817062  58.4891434  37.9820595
  78.2583466  57.4472466  36.8910866  35.5265274  66.7572250  72.1494904
  36.1691284  67.4281387  71.9188843  35.9906158  66.1791382  72.7550201
  38.7500534  36.0206909  28.8150902  38.3823700  36.6183167  28.1640263
  37.9864044  35.6313248  29.2410793   6.1635218  26.1186810  18.3726425
   6.8041463  26.5953217  18.9005108   6.5309415  26.1227207  17.4887772
  59.1315193  23.8499546   8.9171801  58.3823051  24.4299221   8.7809906
  59.7712555  24.1270638   8.2612963  64.8561478  43.9891396  42.8255348
  65.3636627  44.2474327  42.0561600  64.2010269  44.6801414  42.9233513
  59.4063339  27.1675777  73.6501694  60.2686691  26.9489479  73.2968750
  59.0735741  26.3405170  73.9986954  29.1798744  45.3284569  40.2383080
  29.1661301  46.1724281  40.6897011  29.8442001  45.4320259  39.5570030
  79.6307907  28.0190639  86.7918167  80.1426010  28.7281265  87.1810608
  80.2849731  27.3864212  86.4951019  32.1893005  52.7169533  36.2562904
  31.7180271  52.5308990  37.0683975  31.6170406  52.3831139  35.5654182
  77.2373581  53.4931717  83.2964249  76.8655167  54.3275986  83.0105972
  78.0441437  53.4041557  82.7890778  16.7847176  45.1449890  81.6774750
  16.7713451  46.0657616  81.4162674  15.8632555  44.9181366  81.8026886
  82.9656143  14.4602890  44.3128624  82.3254013  13.8484907  44.6762581
  83.5550995  14.6514740  45.0423737  23.1052952   2.0610411  72.4270248
  23.9773026   2.1425114  72.0407639  23.2634640   2.0269594  73.3704453
  57.1556511  30.2336464  14.8492012  56.7787819  30.7780094  15.5404816
  57.1412506  30.7907772  14.0709791  52.1264610   0.9626067  63.5699043
  52.4578018   1.8430201  63.7468758  52.9128723   0.4245849  63.4786644
  63.6599159  60.8558998  65.6433945  62.7849846  60.9026299  66.0288162
  63.7733421  59.9325600  65.4179916  77.1172409  22.7094040  12.8427677
  77.6046448  22.3612671  13.5894070  76.5136719  23.3456326  13.2263727
  22.1727066  16.9916916  12.7908802  22.1270828  17.1512623  13.7335815
  23.0054893  17.3797264  12.5223045   1.8508219  36.8215942  40.6288795
   2.0877738  35.9731674  41.0033836   1.1942168  36.6148529  39.9637794
  22.0644913  23.7312851  88.4532242  22.8827248  24.1972847  88.2812653
  22.3111496  22.8064117  88.4537735   6.1619720   8.5632982  73.2957916
   6.2136917   8.9060068  74.1880417   7.0636668   8.3282528  73.0768585
  19.4792538  49.7213326   0.7968073  19.8333397  50.6080513   0.8645393
  18.5314388  49.8451271   0.7462840  55.6321373  56.8303032   0.8205277
  55.5626411  56.6773109   1.7628624  55.7538414  55.9584427   0.4446605
  45.9241066  61.8015289  64.8294296  46.4456863  62.6034393  64.7959518
  45.4193039  61.8100204  64.0162048  64.4149704  67.2042084  67.6088791
  64.5023422  66.3406296  68.0124054  63.7616005  67.0817642  66.9201508
  38.8569756  36.7506332  11.4187107  38.0154381  36.4379539  11.7507982
  39.3544388  35.9530678  11.2380123  81.3095398  70.9696274  64.7876358
  80.8165436  70.5647659  65.5012665  80.6995850  71.5982819  64.4016647
  67.0251465  41.9133186  77.3139725  66.6577835  41.8574562  76.4318390
  66.6370163  42.7055817  77.6853256  48.7132835  69.3651123  40.0733223
  47.8962975  68.8760529  40.1712418  49.3965721  68.7418365  40.3200493
  25.9733067  61.0127373  46.4093628  25.4902534  61.1920433  45.6026802
  26.0837860  60.0619583  46.4160690  47.9916954  49.0072517  21.6117020
  47.4358559  48.2377205  21.7345753  48.8438187  48.7453423  21.9603062
  74.9818192  26.4036083  38.1394882  75.1436005  26.4913139  39.0788307
  74.0324554  26.4879723  38.0510483  33.4675789  71.1582260  47.2994118
  32.7840500  70.4890137  47.2650986  33.0900574  71.9098358  46.8424721
  76.8845673  38.8649826  17.0020428  76.8927002  38.3882523  17.8320408
  77.4571762  38.3562317  16.4279995  62.0956459  16.0812702  82.8477783
  62.7767029  16.4498348  83.4104156  62.4856186  15.2832193  82.4910278
  86.2806320  32.4670181  55.9029465  85.9154816  32.5272179  55.0201797
  87.0697861  33.0079308  55.8731155  71.1411285  25.8041229  28.7787552
  71.3578873  25.8825092  29.7077885  70.2870407  25.3721027  28.7677078
  68.5168533  51.5920906  65.0023422  68.6742249  50.9304771  64.3287430
  69.1514969  52.2830086  64.8123398  43.2231178  31.9099751  66.1324844
  43.0842819  32.7707748  65.7375412  43.6395760  31.3940544  65.4421082
  33.1664047  66.7222672  32.9551659  33.3438911  67.3596954  33.6468430
  32.2212944  66.5773239  32.9998131  23.2822952  14.1468620  32.0344543
  22.8427200  13.7585325  31.2780094  22.9912262  15.0587244  32.0385551
  52.4470787  22.1867485  51.3833008  53.2530060  22.4824924  51.8066788
  51.7469139  22.6172504  51.8738861  18.0792580  39.2471085  80.5970764
  17.2369919  39.6680069  80.4248428  18.4174023  39.6961136  81.3718491
   9.5298643  69.2376251  74.3474503   8.7466335  68.8312683  73.9764328
   9.2200251  70.0671616  74.7108917  47.6194916  65.7940826  48.3812218
  47.7012978  65.3407288  47.5421715  47.8125916  66.7094650  48.1786880
  36.6595993  30.1146641  64.9863052  36.0765877  30.0940304  65.7451935
  36.4815750  29.2949848  64.5251465  77.6181717  38.5533447  45.8864937
  77.7224579  39.1650200  45.1576500  77.9124680  37.7121506  45.5371895
  15.1916351  70.8702545  80.6166153  15.3955584  70.4462204  81.4501877
  15.5647430  70.2884903  79.9543686  21.1549911  26.1104527   5.7082367
  20.7270164  26.8594685   6.1230183  21.3267117  25.5036983   6.4283724
  42.2864075  53.4074059  72.5237122  43.0664139  53.5592499  71.9900742
  42.3602104  54.0374870  73.2404938  20.6900425  28.3896427  78.7187805
  20.1394348  29.0480747  79.1424866  20.1030731  27.9433804  78.1084137
  29.8054733  37.9578514  17.6777039  29.1555367  37.3099136  17.9497089
  29.7515697  38.6447067  18.3422012  51.3401527  60.8458900  19.7569389
  51.9997520  61.4686241  20.0624886  51.7883148  60.3330688  19.0843353
   0.9861218  11.3992176  33.6388435   0.4954675  11.3347521  34.4581947
   1.7150567  10.7884130  33.7474899  15.9246826  50.2242622  17.1789379
  14.9805603  50.2586136  17.0250416  16.1982613  49.3873482  16.8034878
  73.3862152  28.8283672  55.2455635  73.4592438  27.9793816  55.6815948
  72.4468231  29.0118237  55.2343140  56.6306000   6.8034525  40.1900787
  56.6005363   5.9994202  39.6715584  57.5332832   6.8518710  40.5048065
  77.1262436  48.8247490  55.8953400  76.9937897  49.3202591  55.0871582
  77.0835419  47.9078522  55.6238480   7.9572978  33.8443069  64.8886566
   8.5875931  33.7622566  65.6043625   7.2798123  33.1990891  65.0910034
  45.8840408   6.7955284  84.4102478  46.7652245   6.8688374  84.7768173
  46.0228767   6.7199440  83.4661942  86.1013489   9.7653713  82.4753494
  85.2558899   9.8727102  82.9111404  86.5907288  10.5555773  82.7040634
  16.2525501  51.0875130  28.4336815  15.9749222  50.5006104  27.7303295
  16.0728893  51.9656563  28.0977993  85.8491669  68.6577988  15.8893023
  85.1467972  69.1207657  16.3459949  86.3267212  69.3451996  15.4249182
  26.3590698  66.1317520  38.4352646  25.9056187  65.3111649  38.2422600
  25.7672863  66.5995636  39.0244751  66.3114319  67.0442276  47.9065895
  66.5841217  67.0842972  48.8232536  67.0457993  67.4206619  47.4215775
  65.1246948  54.4907761  73.5595474  65.6950150  54.4567528  74.3275375
  65.5426788  53.9088249  72.9248428  17.6054478   7.9758329  17.1609650
  17.1861973   7.3731499  17.7751598  16.9647560   8.6762104  17.0376072
  16.8659248   2.8470664   0.5188133  17.0033531   2.7779708  -0.4259466
  17.6878109   2.5422897   0.9033229  45.2844620  29.3219013   7.7938790
  45.6593552  28.4867764   8.0736122  44.4783630  29.4051914   8.3032923
  62.6218987  49.1987610  60.2231140  62.8541908  48.4578133  59.6634102
  63.4263878  49.7137566  60.2848473  51.0832634  34.7832184  65.1105270
  51.7359428  34.8575935  64.4143143  51.5976448  34.6749001  65.9104691
  43.0263290  66.0210342  34.0081978  43.8475761  66.3189087  33.6169739
  42.6594200  66.8034821  34.4197617  27.4549770   2.2967520  15.2744637
  27.6313801   2.9626434  14.6098557  26.5288601   2.0835803  15.1600237
  19.9582558  56.7749252  59.2233429  20.0362358  56.5253067  58.3025589
  19.5661640  56.0109482  59.6462326  18.7042027   5.3486190  59.6986275
  19.1405468   6.0988941  59.2949944  18.2290154   5.7194462  60.4422150
   8.5765867  52.8963127  57.9335175   9.4483194  53.2096634  57.6924210
   8.0968609  52.8624725  57.1058998  86.7064514  28.4810600  83.3379517
  86.8389206  27.5589714  83.1178665  85.7702713  28.6275234  83.2025223
  53.5088730  11.4892492  19.6965332  53.8054886  12.1725121  20.2977028
  53.8916893  11.7298422  18.8528500  84.5755157  41.6777649  76.0518188
  84.9484100  42.2075195  76.7564774  85.3342438  41.2846031  75.6205444
  11.2789869  57.5288086  21.9224377  11.2919283  58.4522018  21.6706238
  10.3827839  57.3745651  22.2212009  13.7512560  68.1586456  83.2825928
  12.8760710  68.2261200  82.9008484  14.3078451  67.8756256  82.5570984
  83.7148743  65.0600891  65.4074020  84.3313675  64.4159393  65.0592194
  84.1475525  65.4088516  66.1867523  11.3293095  31.3142776  57.5188866
  11.3689823  32.1411018  57.0382385  10.5502596  30.8756256  57.1769829
  76.1221924  25.0921936  33.8319588  75.5958633  24.2995911  33.9367867
  75.7172394  25.7283306  34.4215050  15.4992285  68.3658981  67.3818665
  16.0047569  69.0722122  66.9796448  16.1303558  67.6556396  67.4978333
  64.8935165  15.5444765  50.9140358  64.8114624  16.4754047  51.1210899
  65.2677689  15.5271025  50.0332069  28.8952999  25.3287373  88.1087036
  29.7840309  25.4340649  87.7691498  28.5234680  26.2104225  88.0841599
  10.4793005  31.3548260  54.1319962   9.9758806  30.8896923  54.8001671
  11.0837173  31.9066372  54.6283989  52.2385139  14.3057547  31.5713463
  51.6600914  14.6331549  32.2601624  52.6810837  13.5548964  31.9670429
  60.1513557  28.8654537  69.5188599  59.5817413  28.2564011  69.9887848
  60.9826279  28.3986149  69.4335632  79.8966980  66.1340256   0.4377235
  79.7896347  65.5615005   1.1973184  79.4221344  65.6904602  -0.2653151
  30.8403740  21.9701099  66.9805832  31.5667839  22.1944389  67.5621643
  30.6931820  22.7627144  66.4645004  82.7241974  55.3255234   7.6159501
  83.6518784  55.2597694   7.3894196  82.5234528  54.4948158   8.0470572
  86.0067596  10.2292480   6.7112350  86.3908768  11.0805740   6.5016470
  85.7905579  10.2866268   7.6419325  50.2157555  20.0453377   8.5243568
  50.8887405  20.5954533   8.1234865  50.7048721  19.4193230   9.0583096
  84.5584183  31.5037518  15.4857540  83.7374420  31.0778866  15.2390404
  84.3871307  32.4385376  15.3714333  24.7550144  37.8770599  53.0261993
  25.4184628  37.2701263  53.3543701  24.9551582  38.7073097  53.4584732
  72.6813126  63.7518997  53.4876175  72.7755737  62.8415413  53.7679672
  72.0599747  63.7154541  52.7604065  56.8678398  54.1929283  67.5529099
  56.3975906  53.7032051  68.2276459  57.5787697  53.6103210  67.2857513
  27.5706596  47.6626053  36.4857559  27.5373955  47.1994743  37.3227959
  26.6814823  47.9938622  36.3598099  35.4551506  25.1192341  63.7266846
  34.7340279  24.6168289  63.3474693  36.2234459  24.5601749  63.6109161
  41.9278717   0.3482513  79.8244858  41.8006897   1.2527966  80.1105881
  41.1361275   0.1404058  79.3283310  86.6633835  17.2800331  33.3934097
  86.8583298  16.6286716  34.0671730  85.9486160  16.8942146  32.8869667
  76.5035629  21.6108341  10.2988567  76.6884995  20.6716709  10.3004894
  76.6306763  21.8815575  11.2081318   4.5728898  69.3907394  49.4048576
   4.5837665  68.8057098  48.6473274   3.7690227  69.1629257  49.8718987
  15.5709391  34.9425812  52.0741234  16.0526314  34.1155205  52.0611191
  16.2151966  35.5905190  52.3593254  68.7187424  24.1394558  36.6491737
  68.5726013  23.4512691  36.0001144  68.3905411  24.9359074  36.2318268
  62.7520828  37.3991623   1.6542379  63.0410118  37.0644951   2.5032065
  63.1290321  36.7926674   1.0168191  62.2055054  56.0801239  87.4200058
  61.3388557  56.0263290  87.0172043  62.3117638  57.0063629  87.6368484
  29.8157692  49.3253670  88.6174316  29.6288223  50.1498528  88.1685410
  29.4604855  49.4461708  89.4980087  12.2783413  34.7999992  38.1215096
  11.3853512  34.8367310  38.4642220  12.1880226  34.3903847  37.2611084
  81.1948166   3.3898039  45.4481544  81.3092651   3.5332685  44.5087128
  81.7212906   2.6131957  45.6377335  75.9335175  40.9655342  65.0178757
  75.1654282  41.2414780  64.5177536  75.9686890  40.0164452  64.8986130
  76.8674545  57.6050262  60.3468552  75.9721222  57.9402542  60.3941841
  77.4192581  58.3802834  60.4503937  41.7399254  37.7111206  37.2026291
  42.2696571  37.3902969  36.4727745  42.2152214  38.4768333  37.5251350
   8.2494955  62.2154007  56.9190865   8.1272249  62.8174171  57.6531563
   9.1687279  62.3204689  56.6737175  42.6872444   5.6953716  87.6134415
  43.2157478   6.2944512  88.1407166  41.9845276   5.4160819  88.2003174
  55.9101181  55.4204559  75.7757111  55.1752663  55.3901100  76.3883362
  56.3366432  54.5688438  75.8709259  82.3336716  56.2568512  45.9504967
  81.7640915  56.8674889  45.4825935  81.7935638  55.4773979  46.0807266
  35.3172264  11.3064537   8.3695230  34.3693657  11.2061434   8.4574165
  35.5952682  11.6924582   9.2001410  36.7798195   2.5890667   2.5729179
  36.6210632   3.3339922   1.9931645  37.4135246   2.0489230   2.1008017
  45.7873802  70.6480179  85.8975296  46.5776482  70.8587952  85.4002533
  46.1022720  70.1341400  86.6411743  59.0316391  15.0450869  69.4959106
  58.5378075  15.3354931  68.7290802  59.6881523  14.4437294  69.1443558
  69.9888229   2.1265564  77.1191025  70.1234360   1.1818585  77.1943207
  69.6273880   2.3852367  77.9668503  73.0652313  16.3388653  57.2082977
  73.4621811  15.6748495  56.6446114  73.1381989  15.9777708  58.0917664
  64.3634567  43.8020554  31.0650749  65.2408142  43.5718498  31.3708286
  63.9573631  44.2420959  31.8118572  45.9245033  45.6630783  12.1412210
  45.3080521  45.3965607  12.8232698  46.2720032  46.5010567  12.4466152
   4.4117184  30.5069885  12.8608141   4.2865219  29.7882481  13.4804659
   4.7923479  31.2116318  13.3850594  10.4986687  70.8518982  69.6611252
  11.2377720  71.2223892  70.1435089  10.3612928  69.9914093  70.0572510
  71.0200348  70.9131165  21.2258720  71.2739410  71.1126556  20.3247929
  70.4527283  70.1458359  21.1505318  10.4078703  33.5219727  32.2484970
  10.1592503  33.0532379  33.0451813   9.5762882  33.8016739  31.8657799
  70.4012604  60.7521591  70.5145645  71.2829514  61.0513344  70.7367096
  70.4158478  59.8115501  70.6914062  21.7380733  12.1544094  20.7682571
  21.8720665  13.0909643  20.9136620  21.9254322  11.7512064  21.6159325
  46.7762146  54.1068230  69.4775467  46.8534546  53.3193741  68.9388580
  45.9300308  54.0153389  69.9155350  77.7089081  59.5487595  52.6391678
  77.8131027  60.4815102  52.8271751  77.2155457  59.5233383  51.8193054
  58.6526871   8.2416143   2.4536381  58.1126251   7.9397573   1.7232623
  58.4951019   7.6022167   3.1483107  71.6185455  39.4866753  61.7816429
  72.0952454  39.6788635  62.5891418  71.1385651  38.6808929  61.9728622
  20.0071087  67.4187851  83.6577530  20.8129921  67.6548767  84.1171417
  20.3001575  66.8862762  82.9182968  83.8619003   6.4108291  31.7497406
  83.4370728   6.4975567  30.8963757  83.2277679   6.7695904  32.3705444
  85.0288315  57.9724312  72.6951218  84.7605286  57.6499672  73.5555038
  84.3169327  57.7139473  72.1097794  24.3471680  49.6240540  30.8742619
  23.6217365  49.1124268  30.5161819  24.2093983  50.5072021  30.5317688
  79.2980728   8.8889399  14.9733534  78.4786224   9.3774529  15.0513992
  79.3087387   8.3151388  15.7394276  60.5978851  10.4195509  51.0384140
  61.4045830  10.8017111  50.6928368  60.3400612   9.7712660  50.3830643
  31.6473026   9.0555477  71.5126266  32.0847321   9.3135967  72.3239822
  32.3384819   8.6561174  70.9844589  62.9143600  50.5738182  49.3402214
  63.1245995  51.5074692  49.3582802  62.9052315  50.3125114  50.2610207
  41.3954811  71.0233078  26.7279816  40.4972916  70.9570465  26.4037933
  41.9328957  71.0677414  25.9371319  37.8961525  69.5020981  40.0479240
  37.0418549  69.3360977  40.4464836  37.8100395  69.1757736  39.1521988
  58.6321106  13.3691788  75.7585068  59.1210899  14.1803923  75.6204300
  58.2221985  13.1896267  74.9123611  79.6340103  42.8815041  76.4846344
  79.8645325  43.6422119  77.0179367  80.4636841  42.4238129  76.3489838
  57.4491348  63.2536201  44.1575928  56.6569595  63.7599068  44.3374863
  58.0265617  63.4413490  44.8975754  79.2266464  60.2687111  32.6449814
  79.5112534  60.7850609  33.3990479  79.4777069  59.3706665  32.8611374
  43.6721153  37.8204536  58.6025581  44.5042000  37.8711700  59.0729790
  43.2357292  38.6497459  58.7976799  17.9687748  45.7640381  88.3597107
  18.1990147  46.4042130  87.6863556  17.0176239  45.8338699  88.4413452
  62.6432037  26.9664249  26.7727394  62.1915474  26.1709709  26.4907990
  63.5376778  26.8617115  26.4484158  76.4999466  55.9104195  87.9422836
  77.3505173  56.0480804  88.3591919  75.9254913  55.6331024  88.6559525
  43.8915672  35.2703094  76.3477631  43.6424103  36.1711540  76.1412964
  44.7930946  35.1935616  76.0353699  -0.0459360  48.1939735  82.2990570
   0.2801423  48.5347900  83.1319733   0.6950676  48.2786217  81.6990738
  73.8283081   5.2023501  58.3603859  73.4891205   5.0937529  57.4719124
  73.9987106   6.1410046  58.4386406  37.9494247  66.6797256  74.2893448
  38.1193542  67.1736069  73.4871979  38.7512627  66.1779709  74.4360886
  73.1128235  12.0903912  79.4118042  73.6200562  11.4318171  78.9372253
  73.6013412  12.9041462  79.2877655   5.9635077  52.0028152  56.8950653
   5.3873882  52.0949059  57.6539040   6.1574922  51.0663834  56.8538628
   4.3174744  19.7237263  66.5739746   4.5680275  18.8065681  66.6847839
   5.1279345  20.2124233  66.7173691  40.9477386  53.5154915   7.5485706
  40.2905693  53.6133652   8.2376156  41.5474281  52.8483658   7.8825569
  48.0158234   9.3153877  81.3144073  48.1913681   8.3979568  81.5235443
  48.7253761   9.5662222  80.7229309  68.6248245   8.3798685  69.9391403
  67.6995239   8.6095657  70.0245895  68.7662888   7.7047696  70.6028137
  49.3169250  12.0860844  17.9748974  50.0031281  12.7342806  18.1336422
  49.7518234  11.2421436  18.0967999  75.2564545  24.6275902  18.7223434
  75.6483612  23.7797699  18.9317379  74.6885834  24.8197994  19.4685364
  63.9338799   8.0408726  58.3496399  64.5313034   8.2123241  57.6216850
  63.8605003   8.8811064  58.8022499  24.6619110   6.5726104  63.1340179
  23.7448463   6.4519076  63.3803024  25.0059013   7.1851048  63.7842140
   5.3638625  18.3439045  87.8205414   5.6556993  18.5848427  88.6997528
   4.6302066  17.7467880  87.9669418  67.2976074   5.0146861  46.8991013
  66.8366776   5.2725511  47.6973991  66.7779846   5.3928599  46.1897278
  25.7320576  53.8694344  22.9846821  24.9543285  54.3581085  22.7153053
  25.7631454  53.9739723  23.9356499  64.2508163  66.2183609  51.7786102
  65.1082458  65.8238525  51.6192207  63.6819496  65.4779510  51.9893646
   2.5888677  19.2176743   9.7557096   1.9755425  18.4870701   9.8349552
   2.8296273  19.4272404  10.6581221  80.0424118  33.9747734  17.4990654
  80.8451538  34.4024086  17.7973499  80.1812897  33.0466118  17.6873722
  64.7405548   6.2111659  76.1471252  65.1251144   5.3385334  76.2299194
  64.0299683   6.2215791  76.7883606  22.5603104  49.5850372  34.1889534
  22.1768951  50.4599609  34.2500420  23.4502811  49.7352715  33.8701859
  76.1092453  55.1662369  27.3173027  76.9615097  54.9801979  26.9232655
  75.5389862  54.4681206  26.9953232  77.4777679  63.8636360  66.3952560
  77.1062851  63.6009216  65.5531082  77.9023285  64.7030869  66.2183380
  54.9116211  61.7344475  22.5337620  55.0742760  61.2641220  21.7161007
  55.1670265  62.6375275  22.3454990  37.6772537  34.5650902  18.5505981
  37.9640198  35.3973389  18.9265785  37.2042160  34.1316910  19.2609711
  30.5247898  29.3034325  65.3288956  30.9104576  29.8362255  66.0243301
  30.3048401  28.4753361  65.7556381  73.2128296  67.2431717  58.3554916
  73.8614197  66.7824326  58.8877373  72.9683838  66.6133423  57.6774139
  34.0289459   2.2331531  62.3009911  34.2695847   3.1589763  62.3352737
  34.8560028   1.7661544  62.4198074  86.7080994   3.0530913  45.6388512
  87.3466492   2.7439756  46.2814522  86.0071564   2.4017754  45.6652946
  53.5968590  14.8104954  70.5219574  53.9947243  15.0838099  71.3485336
  52.9437180  15.4850559  70.3359299  50.4814529  48.1881104   7.9008083
  51.1886406  48.7757339   7.6347041  49.6819954  48.6936722   7.7541575
  56.3187332  62.2425385  66.1640396  56.2267265  61.3443222  65.8462753
  55.6831093  62.3108482  66.8764648  67.9035873  44.9189339  66.3108826
  67.7882233  44.6554527  65.3979263  68.8055191  44.6747437  66.5185089
  59.0358124  11.5997334  66.7103195  58.6168251  12.0061703  67.4689255
  59.8345833  11.2053661  67.0605621  86.5193710  34.2677231  79.3787766
  86.9548798  33.5813141  79.8841553  86.1628494  33.8134575  78.6153870
  70.8230820  22.8810596  67.1550674  70.7674408  21.9831619  66.8280869
  71.5298004  23.2780037  66.6459351  19.3196945  39.5912552  58.1786690
  19.6879768  39.0844841  57.4549408  19.9163570  40.3328781  58.2797699
  16.8288841  69.2241821  79.2748260  16.6394691  69.2534866  78.3370056
  17.6814137  69.6509094  79.3604279  85.2296295   2.4234407  75.1704483
  85.6213226   1.7662318  74.5952148  84.6263504   2.9068079  74.6059647
  16.6656322  39.6960564  51.0388374  17.2061081  38.9060822  51.0465584
  16.3092747  39.7511292  51.9255219  86.0150070  67.7574387  35.8184624
  86.7241211  67.1843033  36.1098404  86.1016312  67.7801285  34.8654633
  83.9737320  71.5571365  71.0510635  83.6776352  70.6802521  71.2952576
  84.8391724  71.4191513  70.6660843  15.7576666  50.6822205  45.0256348
  15.5925131  50.9842148  45.9188042  15.4344530  51.3910866  44.4695091
  69.2529984  13.4781971  36.4847527  69.2572861  12.5497169  36.7174263
  68.9374313  13.9210634  37.2724838  84.3234634  67.4943771  40.5421448
  85.1297150  67.7726746  40.1077042  83.6323395  67.9937286  40.1071358
   9.7507629  46.4800377  49.0344353   8.9730024  46.9962006  48.8225479
   9.4766703  45.9214706  49.7618332  24.1240826  57.4589958  31.5694466
  24.9501076  57.4941406  32.0518150  23.5242252  58.0010300  32.0818939
  18.2494106  47.7770844  26.1641769  17.4127979  47.7675819  25.6991806
  18.0105286  47.7070007  27.0884361  72.5102081  66.2909775  47.5411148
  72.0956268  65.4387817  47.4064941  73.2893600  66.0985489  48.0627670
  78.5326767   2.3046708  88.1515656  79.2369843   2.1968064  87.5123901
  78.2812271   1.4108188  88.3840179  60.5521049  38.1036263  41.9927979
  61.4565659  38.0533104  41.6835213  60.0469208  38.3471222  41.2170830
  29.3770962  35.1841965  80.1516113  30.2238197  35.3086967  80.5803223
  29.1814251  36.0338326  79.7565613  76.1551132   3.1905892   2.4611895
  76.4438400   4.0835385   2.6496310  75.9790497   3.1893263   1.5203222
  48.2199364  27.1182613   5.8413262  48.4293976  26.8874054   6.7463470
  49.0705528  27.2735176   5.4307380  64.2169952  34.6697350  28.1691895
  64.1810913  35.4821320  28.6741199  65.0282440  34.7364159  27.6655445
  21.1501427  32.7080421  13.8382607  20.6775379  33.5317497  13.7183409
  21.9719982  32.8321381  13.3635168  77.8671417  62.3559303  53.6045418
  78.7844467  62.5829277  53.4520454  77.3728561  63.0318031  53.1407394
  57.6419678  62.6607437  73.7056427  57.5597725  62.1834793  74.5312958
  57.3172417  62.0509262  73.0431442  66.2750473  29.3233185  76.7146530
  65.5542603  29.5371590  77.3070755  66.7761459  30.1358128  76.6440659
  53.5417175  41.2111778  34.6644325  54.2625504  41.0285797  35.2671661
  53.0043221  40.4193878  34.6868858  30.6194515   3.6444967  41.7750053
  31.4245567   3.1834362  42.0105057  30.5668182   4.3685145  42.3989105
  48.2310524  40.2470512   7.0035949  49.1439705  40.0904274   6.7621794
  48.2703323  40.9638519   7.6367483  41.3077126  29.5668221  75.5001678
  40.5957909  29.0102711  75.8158417  41.0346870  29.8293934  74.6211090
  59.7783089  45.8889503  80.3653412  60.2811852  45.6460152  81.1427307
  59.5002365  45.0537796  79.9893112  55.6066017  42.8490448  53.9131203
  54.9666405  43.3365135  53.3944168  55.7175026  43.3703613  54.7082062
  18.1127529  57.9908638  47.4384689  18.3716354  58.0322838  48.3590660
  17.1573734  58.0473328  47.4555588  59.8813553   8.8277349  45.6031990
  60.4680519   9.5810699  45.6703033  59.0313644   9.1596241  45.8923340
  25.0728703  21.3900375  80.6029892  25.0175571  20.6070061  80.0552368
  24.1704388  21.7030563  80.6651917  65.4581985  56.4057312  36.7161522
  65.6372375  57.3025208  36.9988899  64.7681808  56.1019058  37.3059044
  85.0562439  32.7525635  85.8160172  84.9284668  31.9488049  86.3198776
  84.6671066  33.4391899  86.3576355  11.6555777  19.3223362   2.3300941
  11.1542435  18.6075954   2.7225754  11.8710537  19.0094986   1.4514959
  21.8315563  32.7821922  65.2010803  21.7695160  32.6199379  64.2597733
  22.7569160  32.9763870  65.3501740   3.8071079  34.8663445  29.9128132
   3.7532465  35.7688980  29.5985985   4.2913246  34.4032402  29.2292194
  78.8012772  62.6310272  58.8261757  79.2019348  62.3270988  58.0117264
  79.2681122  63.4400482  59.0354233  40.6627922  57.2442169   0.2526171
  40.5128479  58.1524620   0.5149970  40.3816261  56.7272835   1.0075705
  82.9854279  39.1081657  82.2587738  82.1942902  38.5984612  82.0840302
  83.0488663  39.7129288  81.5195389  34.0777092  55.8055496  67.6559372
  34.4349670  56.0216255  66.7945938  33.3363991  56.4013596  67.7640991
  16.1437778  45.3208046  28.8083344  16.6442432  45.3471947  29.6238518
  15.3428459  45.8074799  29.0029774  69.1461563  42.9734612  19.0716057
  69.9206390  43.4811287  19.3138447  69.1352844  42.2432098  19.6903515
  74.0332413  34.7687149  18.7247925  74.7798615  34.7309494  18.1269932
  74.1111298  35.6219063  19.1516724  71.8364792  32.2659569  65.6477051
  70.9268036  32.2000923  65.9382019  71.9000015  31.6500034  64.9177780
  22.4065628  14.2746096  87.3550339  21.7116985  13.7882729  86.9113235
  22.7857876  14.8274870  86.6718445  65.9633865  62.0263977   5.1320987
  65.5523911  61.8010674   4.2975068  65.7925034  61.2711830   5.6948462
  41.6784782  61.5332108  88.9345703  41.1007805  62.0733032  89.4738235
  42.4143867  62.1074638  88.7226562  32.7150536  70.0553970  62.5527992
  33.0550575  70.3652420  61.7133789  32.3199081  69.2068481  62.3526497
  58.9067612  62.9701042  37.0970230  59.7433777  62.6067314  37.3873062
  59.0961609  63.8901787  36.9131088  71.7279129   4.1313004  45.0025215
  71.0290298   4.6534328  45.3964310  71.5777664   3.2443841  45.3297348
  45.0094299  14.2201738  10.6345911  45.0001221  13.4368763  10.0845098
  44.4832115  14.8578625  10.1522264  55.9537125  62.6228065  50.1749573
  55.0067215  62.6257362  50.0355492  56.3118515  63.0477142  49.3955841
  85.1364594  58.6187019  63.3189659  85.5853424  59.1159935  64.0026627
  84.6472397  57.9466972  63.7936287  51.6687889   1.1578308   1.6080141
  51.5479088   0.4739358   2.2667308  51.4820442   0.7241075   0.7754022
  51.9253197   1.6718799  45.0269814  52.8709984   1.7054563  44.8827820
  51.7636642   0.7855719  45.3503380  76.2191086  46.1066055  61.9178581
  76.1409225  45.5080643  61.1749802  76.5761795  45.5672646  62.6234398
  75.8595657  18.9888477  18.7147503  76.0220337  18.0500145  18.6229553
  76.4866562  19.3997517  18.1196499   0.8018752  57.9272537  67.1030502
   1.2647960  57.1915359  66.7022324   0.5765976  58.4975510  66.3680344
  72.9790573  12.1638012  44.1168022  72.8403549  12.3959579  43.1986008
  72.2497940  11.5813799  44.3293953  80.3304062  31.6167240  81.1539536
  80.7380905  32.2345047  81.7608948  80.2041321  30.8210793  81.6709061
  13.6935720  38.9998856  70.4145584  13.6855145  38.3280907  69.7327499
  13.7213516  38.5079498  71.2351990   4.4294996   0.6133475   8.1346245
   3.8451962   0.0356088   7.6436667   5.0030193   0.9949184   7.4700112
  33.4567566  40.0722809  25.2900581  33.7458344  40.2548943  26.1841030
  33.5984802  39.1320686  25.1798439  76.5214081  69.1209869  88.4549637
  75.8374634  69.3128357  89.0965576  77.2602005  69.6680908  88.7216110
  32.3488655  61.9731331  31.1341000  32.4607162  61.0526161  30.8966770
  32.0086823  61.9501648  32.0285149  86.6151962  17.5987930  22.1992111
  86.2282791  18.2134972  22.8226414  86.4722366  16.7376213  22.5918655
  78.8255692  32.9773331  46.6756248  79.0962372  32.4427681  47.4220886
  79.6380157  33.1567078  46.2023544  82.2214966  63.6936760  61.5236206
  82.9057617  63.6401253  60.8564224  82.1650848  64.6256332  61.7345810
  14.1899261  29.5760536  32.1865768  13.5719738  29.2479019  32.8397827
  13.7818928  29.3693333  31.3457375  34.2085876   1.4018350  35.7087173
  33.2649879   1.3801260  35.8680382  34.5907288   0.9733896  36.4746399
  67.1503906  44.0455780  36.9783745  67.2020264  43.1086311  36.7894363
  67.5780334  44.4644547  36.2314529  54.9312325  16.9343586  68.1382370
  54.5216942  17.7213459  67.7788544  54.2215042  16.2935524  68.1816940
  58.3920860  21.8360748  79.0372543  58.2625618  21.8953285  78.0907135
  58.3038101  20.9033012  79.2331543  35.8867722   0.9125866  76.6652145
  34.9590416   1.0600204  76.8490906  35.8995781   0.1361381  76.1055756
  59.6694069  33.5441017  81.9853592  60.5194550  33.1041069  81.9923782
  59.1348076  33.0227852  81.3864746  40.7965584  44.4050102  59.2110176
  41.0851021  44.0532722  60.0531921  39.8468895  44.2852097  59.2141304
  70.0943146  65.2121811  17.5605106  70.4344177  66.0769272  17.3307896
  70.2331467  65.1433868  18.5050850  58.8491058  12.6062708  45.1758690
  59.0407410  12.5122538  44.2427711  58.1639137  13.2735910  45.2136078
  69.8395767  70.5176773  77.5451813  69.0795898  70.8203888  77.0481720
  70.2548981  69.8693390  76.9765091  70.6954498  25.4438114  70.0692673
  70.5946045  25.9000988  70.9046478  70.1333237  24.6730576  70.1479568
   6.6866603  12.4976978  50.6451111   6.5686364  12.7273531  51.5668259
   5.8426571  12.1327248  50.3792419  45.3249512  16.2779961  15.6698799
  45.7279739  16.6415501  14.8814440  44.4540520  15.9992228  15.3869390
   7.2915897  25.8618660   9.0511036   7.6966615  26.7256660   8.9736414
   7.6925282  25.4783897   9.8311195  45.8647194  33.5855560  60.2170296
  46.6722145  33.9251633  59.8312187  45.2865257  33.4355621  59.4690781
   6.0022211  62.8870010  36.3938560   5.9557076  63.4536972  37.1638718
   6.0233784  61.9991112  36.7508430  57.3566093  26.7081776  33.4154434
  57.3581429  25.9563179  32.8230438  57.5192108  27.4611282  32.8472404
  57.8017426  64.2941742  66.8976288  57.3701057  63.4462624  66.7929001
  58.3873482  64.1741180  67.6452103  63.6396980  65.6944885  47.2672501
  64.3856506  66.2708282  47.1010628  62.8844833  66.2819748  47.2943535
  15.1912193  58.4828453  47.7735825  14.8638420  59.3782272  47.8593254
  14.4068594  57.9539986  47.6275291  11.8792019  34.1887779  50.1968002
  12.4432468  34.7281380  50.7510338  11.1900473  33.8800087  50.7849846
  13.5409384  30.8170185  66.0021057  13.8583651  30.0388260  65.5439758
  12.7832880  30.5095863  66.4997864  44.1368713   8.2890873  11.9401770
  43.8460197   7.3775544  11.9674950  45.0642891   8.2377481  11.7088890
  15.0381603  67.2913361  50.4875717  15.5012817  66.4643784  50.6213074
  15.7144213  67.9623413  50.5806122  25.9083652   4.0443730  21.4144096
  25.6705208   3.2197711  21.8383141  25.9819202   4.6711574  22.1341057
  59.0358849   4.9439878  42.9007416  59.7163467   5.1673450  42.2656746
  58.7370033   5.7882972  43.2384491  57.9490051   5.1432562  70.0299072
  57.1290321   5.5930133  70.2338409  57.7872696   4.2304764  70.2684555
   9.5587845  15.2783070  74.1097794   8.9779930  14.8055744  73.5135956
   8.9849377  15.8949547  74.5643921  62.1385651  41.1080132  56.5136108
  61.6990356  40.2892609  56.2840691  62.8118820  41.2149391  55.8417168
  86.8198395  30.1499195   6.3359380  85.9048843  30.4309483   6.3255949
  86.7768097  29.1969509   6.4148774  57.1592255  70.2550049   9.2524900
  57.9408569  69.7055054   9.1947489  57.4082756  71.0719070   8.8201895
  68.4691391  54.3963165  43.6908302  67.5343781  54.3323669  43.8866997
  68.9016876  54.0519600  44.4722061  18.2500343  61.5487976  48.0069656
  18.0420208  61.6394386  47.0770493  19.1480179  61.2176208  48.0203514
  63.0207291  12.8293648  36.4062653  63.2859001  13.3702478  35.6623802
  62.9424553  11.9465580  36.0446625  81.7709885  52.8796806  79.9341812
  82.0396729  53.7641754  80.1825867  81.3748856  52.9837799  79.0690231
  18.8073902  50.6609421  38.4136963  19.3300915  49.9404602  38.7657204
  18.3610935  50.2847099  37.6550827  41.9976807  47.3783913  55.5127525
  41.4586449  47.0912895  56.2498016  41.3668594  47.6554909  54.8482895
  64.5257111  17.3207264  37.0885391  65.1045990  17.1092110  36.3561554
  63.8371849  16.6569462  37.0490570  59.2852478  40.0585403  20.6482372
  60.0700493  40.3495979  21.1125679  59.6127014  39.4624252  19.9746990
  55.1426582  41.5170670  82.3643723  55.7975540  40.8967628  82.0441055
  55.0525513  41.3111420  83.2948074  31.7886829  36.8598328  21.4014091
  31.1955528  37.3039131  22.0073948  32.6606750  37.0100212  21.7665157
   8.8035536  33.0171394  71.3225327   9.4645061  32.8972092  70.6406326
   8.7438717  33.9659500  71.4340210  47.4737091  10.7599010  55.0537949
  47.7078857  10.3185692  54.2373276  48.3005333  11.1156092  55.3794670
  71.7170563  37.0076332   1.4796752  72.4521866  37.5935097   1.6601121
  71.8502121  36.2670364   2.0712996  69.5694122   8.5731115  11.3641291
  69.3766861   9.2608919  10.7269125  68.7220993   8.3690262  11.7599068
  45.3864517  23.0096436  70.0233459  45.1846581  23.9412308  69.9358444
  46.3428612  22.9712830  70.0293655  85.2540436  50.6896286  69.9596024
  84.3223724  50.4713478  69.9835358  85.3990402  51.0240059  69.0745010
  77.1130447  17.8632259  66.1885147  77.6053925  17.4310493  65.4906311
  76.1996994  17.6371326  66.0126724  66.9066086   3.6931963   5.8489742
  66.9866943   2.7837746   6.1366720  67.1046906   3.6665964   4.9128709
  62.8964882   2.2796879  34.4613075  63.4949913   1.8693955  33.8370628
  63.0822601   1.8439431  35.2930794  55.8183441   0.6437026  76.6200790
  56.4531097   0.8792392  75.9434509  55.7218208   1.4383160  77.1449661
  40.4799118  35.2069969  69.7816544  39.8296585  35.2196159  69.0793457
  41.3211975  35.2767220  69.3304214  56.1834908   2.5204232   1.2166157
  56.5000381   1.7299117   1.6537904  55.5740547   2.9123151   1.8421077
  59.2271233  49.0081482  60.7465744  59.6061668  49.3008347  59.9177856
  58.3123093  48.8188515  60.5379601  66.6343613  12.4244938  29.7189732
  66.4967957  13.3524294  29.9093494  67.4787903  12.3948917  29.2692108
  72.0118942  16.6756363  20.2898350  72.5917053  16.0881710  20.7745323
  71.4359360  16.0909824  19.7972069  64.7477341  58.3629799  61.4615707
  64.6729813  57.5120354  61.0296745  65.5881042  58.7103081  61.1626167
  61.4734077  55.0205421  50.7948418  62.2699509  55.5508347  50.8180923
  60.7774124  55.6429062  50.5839233  14.2416439  31.3927650  81.5696640
  14.1066046  30.5276337  81.9563828  13.5039339  31.9142895  81.8859406
  50.7930222  67.5639038  46.6641846  51.6953011  67.7800522  46.8995705
  50.5326805  66.8974991  47.3000755   5.2997479  31.3197422  83.1378098
   5.2791905  30.4742794  82.6894760   5.7822881  31.1501293  83.9468918
  52.9329262  47.2108688  29.0196152  52.6274681  47.4691887  29.8892117
  53.0679855  48.0382500  28.5576324  14.0181551  53.5428658  23.3996277
  14.8277912  53.4736061  23.9055157  14.0379829  54.4280434  23.0358982
  12.6992435  42.4363785  76.8677597  12.7633648  42.3919373  75.9137421
  12.6995115  41.5219460  77.1506805  56.5198364  13.3707247  81.4359818
  55.5962639  13.6199913  81.4025803  56.8061600  13.6292324  82.3120117
  32.4800644  33.2584457  89.3557281  32.1591911  32.3747559  89.1758118
  31.9826355  33.8196144  88.7608337  17.1190224  40.4341507  27.2636223
  16.8297405  41.3362236  27.4007854  17.8317757  40.3131790  27.8909817
  80.4724045  65.0529938  51.1452179  81.2259369  65.6350937  51.2430267
  80.7437363  64.2371902  51.5660210   4.1869569  11.1504402  69.7281799
   4.7708907  11.9028044  69.8241119   3.3518524  11.4478302  70.0892792
  11.9585752  46.0215988  21.7120953  12.7269459  45.4547768  21.7795773
  12.0399694  46.6243935  22.4511795  77.3702621  67.7760925  86.3294678
  76.6127243  67.3820190  85.8969421  77.0233459  68.1222916  87.1516800
   4.5920491  52.6930580  65.3204727   4.8060427  53.6238441  65.2566071
   4.8412390  52.3311119  64.4701004  17.0689964  58.1923141  22.2506218
  16.5758896  58.1368942  21.4320831  17.7548218  57.5304337  22.1623650
   0.3410479  50.1538239  64.0106201  -0.1910169  49.5571899  63.4841499
   0.1108974  51.0259781  63.6902962   2.3284452  46.5763664  60.6975861
   1.7353951  46.1538773  61.3188972   2.7268534  47.2907867  61.1946831
  53.0403023  42.7195625  63.3017769  52.9891701  43.6719093  63.3833427
  52.2181206  42.4026604  63.6757011  39.0858498  57.5002823  51.0733414
  39.0674858  58.0275764  50.2746811  39.7861748  56.8648987  50.9247971
  28.0761490  50.1672630  28.3141766  27.5862541  49.6165619  28.9248810
  28.1978760  50.9936523  28.7816162  41.1287231  49.7558441   5.1502728
  40.6353989  49.2423019   5.7899113  40.5046349  49.9217491   4.4437180
  58.8431854  63.7157631  79.8202972  58.8543930  64.6379852  80.0764465
  57.9979286  63.3911896  80.1308212  55.0921822  34.9569016  79.2297974
  55.2485085  34.2136002  79.8122940  54.2080154  35.2510223  79.4488220
  53.6049423  50.3179169  31.1799679  53.2637863  50.5969620  32.0296593
  54.0885506  51.0773315  30.8549290  74.4179382  46.3970413   9.8578882
  73.7842255  46.4964371   9.1474209  73.9120712  46.5582504  10.6543446
  39.4711266  52.7144852  86.7830658  40.0110168  53.4779854  86.9875565
  38.7324600  52.7742729  87.3888931  45.2544250  68.4886627  21.1346416
  46.1737976  68.6055908  20.8952274  45.1821518  67.5616531  21.3619518
   1.1186097  60.3557053  58.6147041   1.3720112  59.4335518  58.5740700
   0.1672475  60.3383064  58.7188148  41.5877342  14.9648781   2.8653386
  42.0120468  15.7432041   3.2264466  42.1155891  14.7377186   2.0998306
  28.7215424  37.0679665  13.6104574  29.2637501  37.8471603  13.4875669
  29.0352917  36.4511185  12.9491777  50.6313591  40.4270058  44.5116768
  51.0902023  40.4394455  45.3516388  50.4208031  41.3448715  44.3401604
  51.6734810  22.0110054  15.9594898  51.8585434  21.8523140  16.8851261
  51.2971878  21.1885757  15.6460457   2.9599361  51.1202316  37.1823120
   3.5981400  51.8334007  37.2002258   2.1303091  51.5465851  36.9674263
  19.6807117  23.1651211  73.9317245  20.2600765  23.2559700  74.6882401
  18.9025936  22.7275639  74.2771301   1.5901270  10.8543139  13.8319750
   1.2447860  10.0843048  14.2837029   2.2182117  10.5008230  13.2020655
  67.6038742   9.1058187  58.7775040  67.5386658   9.4080763  57.8716240
  68.4964142   9.3297424  59.0410576  52.8195572  16.6204472  11.3499298
  53.0802917  17.3733463  11.8803959  53.2769890  15.8786306  11.7457819
  13.2756195  37.3609009  79.3722763  14.1771393  37.3336220  79.0517349
  13.3555126  37.6206322  80.2900925   5.0386519  11.2694130  74.4759445
   4.1875257  11.6552000  74.2686157   5.6682324  11.8043003  73.9924622
  59.7796631  36.9414139  61.1885796  59.0668602  36.4915810  60.7349319
  59.7655907  37.8305626  60.8343887  15.9132910  39.7266998  68.4401321
  15.1571484  39.5166817  67.8920670  16.0730877  40.6570358  68.2814636
  61.7064934   0.8400208  15.2148256  61.5011101   0.0476031  14.7187176
  61.2356720   0.7338539  16.0414371  85.4995422  12.9135914  65.7426224
  85.3459702  13.7832870  66.1117783  86.3472519  12.6482697  66.0993118
  39.8438911  71.7723083   2.5809314  39.6447525  71.6912537   3.5136721
  40.1744919  70.9095535   2.3307502  26.1369667  56.9796791  25.0521088
  26.3595009  57.5170059  24.2918530  26.9825878  56.7291374  25.4241123
  60.6971397  42.3862762  81.0419312  61.4191971  41.8506813  80.7132950
  60.0961838  41.7582207  81.4427185   2.4645255  56.9654846  13.1445646
   2.0553586  56.3262558  13.7278290   1.7957411  57.6389465  13.0204220
  11.0955629  20.4104958  55.6087456  10.2434855  20.0173035  55.4200783
  11.0782127  21.2508888  55.1508484  30.8602123  64.2955246  30.2481365
  31.0343590  63.4884224  30.7323704  30.2756748  64.7953491  30.8179855
   9.6212721  15.2330303   7.2835894  10.2573805  14.7672853   6.7407446
  10.0357018  15.2876482   8.1446915  65.5308838  15.2327375  77.5753555
  65.8420334  15.7537127  76.8350830  65.9978409  15.5882597  78.3315201
   7.7634020  64.6708755  54.2480392   8.6110783  64.2306061  54.1861153
   7.6848683  64.9105301  55.1714172  60.1504555  30.1118660  52.5779037
  59.9156723  31.0380154  52.5199776  60.4605064  29.8880424  51.7004051
  78.5156174  68.8612518  71.9472504  78.4685516  68.8397751  72.9030533
  79.4102783  68.5873566  71.7452850   7.8098812  54.2954178  55.3506203
   8.3078527  53.6082077  54.9078979   7.3026748  54.7108040  54.6531754
  56.7126198  14.5794315  55.6199303  56.6941833  15.0056458  54.7630539
  56.8297501  15.2973785  56.2420769  75.0288544  26.9587917  68.6685944
  75.4775620  26.8727036  67.8274765  74.6654510  27.8442459  68.6566696
   7.2127314  69.1259842  19.8787098   6.7607255  69.9342880  19.6367016
   6.5141068  68.5370636  20.1638870  11.1582584  28.5761623  22.4540520
  11.7628727  29.2898865  22.6572018  11.5844793  27.7940865  22.8046589
  44.6717911  65.9143219  78.8402023  45.0980339  66.0004654  77.9874878
  45.3725014  66.0653381  79.4745789  86.3411255  44.1874390   9.8080330
  86.4617538  43.8304558   8.9281225  87.2283173  44.3769913  10.1133080
  15.6997910  59.4998970   1.7585765  16.1868057  59.7382622   2.5473928
  16.1927280  59.9005470   1.0425297  17.8171425  69.7358246  65.0519867
  17.7495136  70.3079147  65.8164368  16.9099617  69.5732651  64.7934799
  21.2229843  16.2800446  72.2614594  21.5645580  16.2924347  71.3673630
  20.8595314  15.4008255  72.3668442  29.8760509  40.9642792   2.0078084
  29.4688702  41.8071365   2.2078753  29.1848640  40.3210373   2.1650696
  81.2408905  39.1454926  59.9507904  80.2845764  39.1849365  59.9392395
  81.4523087  38.6990242  60.7706680  27.1178894   4.4675088  70.9976807
  27.8910999   4.1187196  70.5541458  26.6789017   4.9975863  70.3324432
  69.2205963  44.7049980  38.8979149  68.4683609  44.4828873  38.3492508
  69.7991333  45.2034569  38.3207932  49.4753609  28.0140038  88.5824051
  50.1774445  27.8633919  87.9494553  49.7672157  27.5642719  89.3753662
  31.2151909  55.5440788  52.6004791  32.0159569  55.8466606  53.0287895
  30.5652466  56.2162170  52.8055153  28.9814243  69.4142914  41.7205772
  28.9244690  68.4956284  41.4577980  29.5950031  69.4156570  42.4552536
  39.4172630  24.2820625   9.7492285  38.5048904  24.0146294   9.6383934
  39.5538788  24.2806149  10.6966276  19.0334320  51.9085274   5.5752358
  18.8732243  51.7973099   6.5123568  18.3308315  52.4872513   5.2791610
  18.9552116  21.4326305  21.6016998  18.7430725  21.8602238  20.7720051
  19.9107513  21.3763752  21.6047115  21.3276062   2.7702227  82.7472916
  21.1234341   1.9452735  82.3068314  20.4802608   3.0955436  83.0512772
  24.8649120  23.7666531  87.7401428  25.4098663  23.0225582  87.9962234
  25.3925858  24.2397976  87.0967789  53.4924469   4.8794160  73.9205856
  53.6490211   4.4291272  73.0905533  52.8766747   5.5786757  73.7012939
  51.1682739   9.5336943  40.9375648  50.5254326   9.5595551  40.2288246
  52.0058823   9.3929052  40.4961777  71.8095016  55.0550308  31.4708118
  71.4337463  55.8900490  31.7497101  71.1934052  54.3962288  31.7911854
  12.4606419   6.8328276  60.4887352  11.5678177   6.7240691  60.1612167
  12.4234123   6.5222011  61.3933640  24.0546207  66.8508987  74.7396088
  24.2260132  67.1806183  75.6217270  23.5499783  67.5463562  74.3178177
  42.6421127  57.5600319   3.8895416  42.3066025  56.8256378   4.4036760
  41.8778229  57.8912086   3.4179313  76.7222519  43.6225090   0.9566334
  76.1595306  44.0814819   0.3329956  77.1784897  44.3206558   1.4263914
   7.3443999  66.9232330  48.2075424   7.8729920  66.1289673  48.1303444
   7.9438052  67.6331558  47.9774170  13.1900997   3.1845453  21.6028366
  12.7013836   2.3654664  21.6834431  13.9761534   2.9470286  21.1109657
  64.7889175  25.8694477  11.2959681  64.4188461  25.5156727  12.1047468
  65.5706482  26.3444252  11.5779619  37.7175293  39.9820404   5.6199703
  38.6205482  39.7704163   5.8566122  37.2661972  40.0773659   6.4586864
  64.1611557   0.9682663  52.8830986  63.9883842   0.0307876  52.7964020
  63.7404442   1.2141567  53.7069778  46.8622284  29.0104733  60.3332214
  46.2766991  28.9800606  59.5766068  47.7317123  28.8419857  59.9701271
  25.1073933  14.6516361  78.3412094  25.6044960  15.0824270  79.0365829
  25.7245102  14.0297813  77.9556046  66.3053513  52.8165092  71.8375320
  66.6159897  52.2629547  72.5539932  65.9513931  52.2010765  71.1955109
  39.9763680  41.1946182  62.2266083  39.0990601  40.8705215  62.0228348
  40.2187462  40.7390251  63.0327835  11.7163715   3.7789083   6.1826019
  11.2931166   2.9209573   6.1508708  11.2410202   4.2554631   6.8631663
  36.7517700  46.7508545  39.0532494  36.2085953  47.1919937  39.7063866
  36.9724274  45.9099236  39.4537201  25.4845905  22.7854023  69.4317780
  25.0794296  23.6268787  69.2220306  25.2331200  22.6182823  70.3401108
  79.5531845   4.1634259  62.4534683  79.0900116   3.8494146  61.6768761
  80.4439316   3.8276401  62.3531952  41.6964569  19.5173359   3.2111192
  40.9528503  18.9951363   2.9101403  41.4073296  20.4245491   3.1131508
  84.4418564  54.7811661  78.7137146  85.2809067  54.9604759  78.2893600
  84.4655914  53.8435135  78.9046936  37.3522377  18.7054558  77.4971085
  37.8988304  19.4504929  77.2473297  37.4064751  18.6782074  78.4523849
  49.9837532  16.7819271  77.4322281  50.8858147  16.5767441  77.1864395
  50.0380936  17.6439247  77.8448334  56.5824242  61.2041588  76.5386429
  57.3753242  61.7284660  76.6510849  56.3274994  60.9615059  77.4287949
  62.0106888  60.4281578  31.8668747  62.9158211  60.1390076  31.9824543
  61.5016899  59.8580666  32.4431992  83.7759628  62.1836090  72.6839142
  82.9140854  61.9257164  72.3569717  83.8612747  63.1037788  72.4344330
  79.3319702  46.9152527  64.8973389  79.3326416  47.0134048  65.8494949
  78.4074707  46.9572716  64.6528854  60.8411217  33.6742249  25.9395485
  61.3741875  33.1995430  26.5773163  60.4294739  34.3747597  26.4455395
  80.2616272  20.1520462  55.2689552  79.4677734  20.3352394  54.7664833
  80.5498047  21.0093040  55.5824699  54.9039307  31.9951496  31.9813595
  54.3441849  31.2186775  31.9788914  54.9289246  32.2694778  32.8980675
  52.9628830  16.6832924  51.5856285  52.9764366  17.6342487  51.6939354
  53.5441399  16.5184822  50.8431892  26.4683323  31.5196800  66.4167633
  27.1591682  31.9727345  66.9002075  26.8521271  30.6733723  66.1872025
  51.8149071  20.7090988   1.9376750  51.5275993  20.2909412   2.7493575
  51.5675583  20.0914822   1.2494894   7.9297981  61.1854057  71.8166809
   7.6902637  61.8771172  72.4334488   8.5689383  61.5951157  71.2336960
  16.6992435  39.6478958  20.7988720  16.5169334  39.2549324  19.9453049
  17.4322338  40.2419395  20.6374207  37.4773331  38.1676712  15.6437750
  37.2282333  37.2497787  15.7517605  37.2217216  38.5836639  16.4670887
  80.3327408  35.2258835   4.3607540  80.0940933  34.6132088   3.6651192
  79.5042038  35.6298447   4.6187782  54.8320503  26.5801334  70.6473846
  55.6335869  26.9876919  70.9755096  54.1286545  27.0075741  71.1360168
  44.2935982  26.2219200  83.7878036  43.3416100  26.3176956  83.7599335
  44.4612846  25.3748093  83.3748627  29.0947971  60.5359955  69.3542023
  28.5315819  59.7648315  69.4199753  29.7978916  60.2692719  68.7619629
  14.7903681  35.6254997  24.2350082  14.1403952  36.2612801  23.9357548
  14.9820995  35.8850822  25.1361675  34.7605820  69.4062195   9.2387543
  35.3576698  69.9351578   9.7678480  35.1791573  68.5466385   9.1924181
  48.7182083  56.0032310  10.3896799  48.0646286  55.7198753   9.7503290
  49.2895889  56.5960121   9.9014482  57.9091949  37.5871048  57.3140221
  57.5756416  38.1089745  56.5842094  57.4168358  37.8964157  58.0743752
  55.0137367  19.5049706  10.0490808  55.5812302  20.2359829  10.2936230
  55.5091896  19.0298920   9.3819551  60.0461693   3.6903436  26.9258003
  60.5778389   4.1995854  26.3140564  60.4730949   2.8342679  26.9589748
  41.5516167  47.3236961  63.8441124  41.8760262  47.6035080  62.9881363
  41.9554405  47.9314156  64.4636536  79.4155731  45.9113655  51.9355240
  80.3119125  45.7186928  52.2106361  79.1092529  45.0994377  51.5315781
  48.4173737  29.7527428   2.7878380  47.6517220  29.6398926   2.2245648
  48.2397575  30.5572662   3.2751012  73.4803009  19.2875690  47.3460922
  73.6180573  20.2120857  47.5523033  73.3765793  19.2672405  46.3947449
  41.2277603  52.1279259  23.9413280  42.1591377  52.0891647  24.1587353
  41.1373978  52.9227295  23.4156361   8.5561752  64.8190536  64.5752411
   7.6678939  65.0495529  64.3031082   8.4356585  64.2945786  65.3668442
  70.8635635  52.1652527  56.7716217  70.9755478  53.1158409  56.7802620
  69.9714127  52.0262871  57.0894051  68.7304001  54.1077003  86.2564468
  68.6119003  53.5992317  87.0587311  69.6770859  54.1150780  86.1151886
  35.9965630  56.7298470  21.6946278  35.7152328  57.2492676  20.9414425
  35.1814690  56.4243851  22.0928116  38.1500740  62.6463356  75.4274445
  38.7153053  63.2202682  75.9444962  38.2606277  61.7817039  75.8229370
  64.0658493  10.0830755   9.1965952  63.3099670  10.2699318   9.7533283
  64.0666733   9.1301985   9.1057301  17.9956913  -0.0661212  70.7994156
  18.4163189   0.4307157  71.5011673  18.6102734  -0.0139910  70.0674362
  33.5311432  30.5998859  13.8419876  32.9257622  31.2043896  13.4126644
  33.3533058  30.7062244  14.7764912  24.3729725  59.6799660  49.5447044
  25.0787449  59.0444641  49.4253120  24.1861782  59.6569557  50.4832191
  56.1328087  69.0111771  51.7379913  56.7289047  69.5256653  52.2822380
  56.5157738  69.0489883  50.8615570  19.0767326  11.2895565  86.9993057
  18.9158955  11.3762798  87.9388962  18.5266342  10.5543299  86.7289963
  85.9783401  10.8319368  69.7675858  85.5576782  10.7293911  68.9139099
  85.6212692  11.6497602  70.1138535  61.4313278  31.6647949  54.3280106
  61.2134056  30.8111382  53.9538307  61.3050957  31.5525970  55.2701950
  40.8677406  31.8021564  12.1916676  40.9158401  31.7584724  11.2366753
  39.9324188  31.8760777  12.3812447   9.6326952  68.4910889  37.7137375
  10.2093706  68.5428696  38.4759674   9.7213993  69.3437653  37.2879295
  22.7974186  10.4552774  70.2304611  21.9391403  10.8018961  69.9866486
  23.1770668  11.1299248  70.7934418  64.4064407  15.9955807  24.2012939
  63.6585846  16.4361420  24.6048336  64.0278015  15.2328243  23.7641850
  23.4911709  58.9734230  64.1240463  22.9378319  59.4640007  64.7318115
  23.3328819  58.0553322  64.3437805  15.2756319  44.9659386  15.2942677
  15.4632330  45.0283470  14.3577089  16.1361942  44.8893394  15.7063322
  36.7756004   1.8891997  83.3938217  37.6751900   1.5940846  83.2528229
  36.7660141   2.7906101  83.0719528  49.4907875  18.8638287  13.4828653
  49.0346642  18.0311642  13.3609772  49.0574837  19.4651833  12.8771811
  65.1271820  26.7602730  33.8214417  65.6825943  26.8628082  33.0486298
  64.2851639  27.1347771  33.5626373  42.8987617  41.0437050  77.0458755
  43.8540993  41.0984573  77.0695267  42.6165161  41.4213562  77.8789062
  35.4086456  61.9027252  15.0545425  35.1162758  61.3477097  14.3315582
  36.0333099  61.3600044  15.5356693  12.6821985  66.5306778  55.3518829
  13.2274752  66.5937042  54.5677032  13.2832794  66.2431412  56.0390930
  11.4617882  48.6775627  39.6951447  11.0841761  48.9077263  38.8462257
  12.2125359  48.1236763  39.4810867  55.3264847  18.4687843  79.8108444
  56.0271454  19.1137047  79.9077072  55.7720718  17.6727123  79.5210953
  85.8333664   3.5568197  71.5201721  86.3102264   3.9806526  70.8065948
  84.9107285   3.7061665  71.3135910  80.0841751  53.5107384  10.6886148
  80.1596451  54.1340065  11.4111595  79.6825867  52.7358475  11.0816860
  67.0284348   6.8132586   5.5185070  67.4141922   6.1411605   6.0803843
  66.4117355   6.3361993   4.9632349  62.3052940  58.6402168  68.3434143
  61.6787872  58.5102959  69.0553436  63.1622810  58.5963058  68.7675323
  57.2274857  70.8960190  47.4387589  57.0138741  71.5909653  46.8161430
  57.0415497  71.2776108  48.2966919  80.5908127  37.7544785  25.9723454
  80.6561966  38.6862717  25.7632694  81.2359161  37.6189003  26.6663895
  86.1213989  47.2488327  29.5801754  86.4471817  47.5031204  30.4435596
  85.7858582  48.0615654  29.2018738  14.1476173  65.7909393  58.5881805
  14.7507038  65.1375885  58.9426537  14.6605682  66.2572021  57.9280968
  30.2386856   2.0589488   1.7902771  30.2045536   2.0448160   0.8337903
  31.0477734   1.5960941   2.0079346  83.1686401  38.9878769  77.4535294
  82.2539215  39.0809631  77.7197342  83.2695465  39.6003418  76.7248764
  83.9814606  49.5013504  53.2811203  83.8149567  50.0346832  54.0583382
  83.2647247  49.7171555  52.6845093  73.8982849  69.5069275  22.6834984
  73.2837830  69.2164230  22.0095310  74.7505035  69.1917191  22.3825111
  25.2625809   1.6174464  81.7295227  24.4881306   1.5571487  81.1702194
  24.9473248   2.0353627  82.5308914   6.3025436  58.1812248  18.7080860
   5.5374465  58.4953117  19.1899662   6.2936039  57.2327042  18.8363743
  18.9759846  36.1273613  40.2009773  19.1510391  36.4846268  39.3303719
  18.0560799  35.8644257  40.1714478  29.5011978  48.4201393  73.2799149
  28.7693081  48.1347466  72.7329941  29.8823223  47.6077194  73.6130066
  83.7599030   4.7368789  16.3748798  83.8027191   4.0269213  17.0154724
  84.1734467   4.3768144  15.5902977  14.5356913  44.2712822   4.8180408
  15.2145042  44.9073219   5.0436525  13.9915438  44.7209015   4.1715288
   0.8895468  70.5067978  46.3671761   0.1634520  70.8781281  45.8660431
   1.5297855  71.2161942  46.4226608  67.6042938   9.1388426  40.6266556
  67.3842392   8.2078199  40.5949554  67.5098267   9.3760042  41.5491867
  32.0895119  43.5642357  89.0094604  31.5609570  43.3799095  88.2330017
  32.9642220  43.7463837  88.6660461   5.9426575  63.5718880  69.1306152
   6.0547748  62.9761200  68.3898621   5.1410012  63.2725372  69.5595322
  29.6964188  50.7735291  85.7858810  30.6234627  50.9759636  85.6600266
  29.6279488  49.8375244  85.5976105  44.6971588  27.5971928  64.1647949
  45.4997520  28.1000023  64.3035660  44.8033028  26.8202896  64.7137756
  18.5711613  30.1699905  80.0053177  17.9817829  30.0424633  80.7486877
  18.0637856  29.8842316  79.2456131  61.0764809  41.9765511  11.7705345
  61.8813019  41.6364708  11.3795910  61.2988396  42.1193123  12.6905394
  38.9236221   2.0924115  40.6657982  39.5466385   1.5156208  40.2237625
  38.2481880   2.2633400  40.0094376  52.1891556   6.9905028  20.8827591
  51.4161606   6.8490772  20.3362122  51.9807396   7.7719254  21.3947887
  86.1294479   7.7757249  25.2294464  86.7124023   8.4771004  25.5200806
  86.5130386   7.4707465  24.4072056  53.4999199  51.9326630  59.8455925
  52.9256821  51.6967773  59.1170082  53.0971222  51.5220184  60.6106758
  71.1130524  67.9233627   3.7680495  70.3787079  67.3326263   3.9353895
  71.8014145  67.3569717   3.4193635  30.8280468  21.9506855  79.1704559
  30.5494843  21.5271397  79.9823914  30.1644249  21.6979904  78.5285950
   6.0298128  48.5770988  60.0195427   5.7535696  48.1212959  60.8146324
   6.7829514  49.1007423  60.2930565  53.5190544   3.1380284   0.9871034
  52.9630852   2.3669872   1.0994768  54.3481636   2.7897432   0.6592226
  20.4585629  47.3898621  51.3153152  20.9144173  47.9030418  50.6481743
  20.8202972  46.5079765  51.2277679  64.1514053  44.8328743  71.7994843
  63.4692688  44.8289566  72.4709778  63.6768570  44.7240219  70.9753571
  62.7105103  39.6198730  83.1980591  62.0588837  39.0906372  82.7381439
  63.4983597  39.0763092  83.2057800  75.0252151  37.6858788  83.4437180
  75.2729874  38.4974251  83.8867035  75.8532333  37.3209991  83.1315079
  11.4501476   7.5644517  20.9279594  11.9777622   6.9660091  21.4568462
  12.0784779   7.9789352  20.3366585  50.8796158  25.7248535  52.2827454
  51.8038483  25.9445629  52.1654778  50.5954208  25.4174442  51.4219513
   6.8819089  -0.0768887  65.4177551   7.5077043  -0.1042656  66.1415329
   6.7915454   0.8540736  65.2143402  83.7950974  52.6560135  88.2896118
  84.3069687  51.9397163  88.6652908  82.8933640  52.3349609  88.2958374
  40.9684296   6.7480693  69.3432617  40.5548668   7.5855813  69.5524902
  41.6747131   6.9742699  68.7380981  74.9694061   2.0287127  21.5071182
  75.6416779   1.3802409  21.2979126  75.0354309   2.6769195  20.8059044
  70.8978500   3.0841308  53.5403938  70.9968033   3.7552035  52.8650398
  70.9607697   3.5642011  54.3661079  15.9983368  44.6754456  12.6443605
  16.6835785  44.0655556  12.3710375  16.0258102  45.3748360  11.9914169
   6.7953458  52.0259209  19.8671951   6.3142390  51.4873352  20.4954414
   6.3887148  52.8900528  19.9316845  75.6025391   0.0413456  53.5559464
  75.0500793   0.6983696  53.1324577  75.6816101  -0.6587505  52.9079933
  35.7195396  40.0373306  30.2335587  35.8827667  39.8270226  31.1529922
  35.1835556  39.3117638  29.9133987   2.5373728  34.6810379  35.0946846
   2.9703398  34.7723923  34.2459068   3.1868856  34.9847832  35.7288017
  57.2043724  25.7059898  35.9213982  57.3400002  26.1020336  35.0605927
  58.0867920  25.5921974  36.2744102   7.0714474  59.4262772  69.4060745
   7.6416059  58.7666931  69.8011627   6.9566860  60.0849609  70.0910568
  46.9107590  63.9706116  50.4115448  46.3747711  64.5013351  51.0008507
  47.1556587  64.5693588  49.7060242  14.5520201  48.5253983  12.1601696
  14.9572945  48.8164139  12.9770508  14.6620388  49.2642937  11.5617008
  72.5578537  13.1589336  88.6719818  73.3754272  13.3762741  88.2241364
  72.8228226  12.9558573  89.5690765  72.8537445  20.8837128  42.5365982
  73.1043701  21.7896881  42.3559723  72.6502533  20.5155315  41.6767921
  42.0855103  11.6942873  11.1665525  42.8177681  11.0843954  11.0767488
  41.7458649  11.7933617  10.2771397  24.8977852  66.6489487  54.9696579
  25.5925713  66.7308502  55.6229553  24.0878620  66.6512222  55.4798050
  29.4534321  19.7892056   7.8311272  29.2699471  20.5628510   8.3640804
  30.4088135  19.7495079   7.7875023  18.5663891  22.3526020  28.5905170
  17.7059574  22.2082977  28.9843006  18.9076118  23.1270771  29.0377159
  32.9068985  52.1500053  21.0188217  32.2545815  51.5286636  20.6953220
  33.1797981  51.7925453  21.8637943   7.8421068  58.0822105  25.1514740
   8.1044397  58.9806328  25.3521080   6.9902792  57.9809189  25.5761642
  52.2132874  52.7383118  28.0981579  52.8696594  53.0841713  28.7029648
  51.7770691  53.5151749  27.7482567  27.1690598  60.3372688  43.5098724
  27.7849083  60.0353546  42.8421822  27.6714783  60.9602509  44.0349464
  57.8832092   6.4752431  63.6903343  58.3785133   5.9351382  64.3061218
  58.1205750   7.3746700  63.9159927  11.4143858  16.5283031  86.8321915
  10.8239717  15.8587255  86.4867783  11.9665861  16.0605774  87.4587250
  21.4098644  20.7444706   2.6712210  21.2691593  20.4781742   3.5798028
  21.7280197  21.6451893   2.7321539  84.0589828  64.5345840  49.5863037
  83.5798645  65.1173401  50.1754379  84.9723663  64.8087234  49.6688118
  78.1261292  61.7565842  11.1091070  77.7927094  60.8851471  10.8954258
  77.3708725  62.2197990  11.4713993  42.4325523  64.7510071  21.2126637
  42.7456818  64.9623032  20.3331547  42.7739716  63.8733444  21.3840332
  63.3854485  32.1307983  87.7924805  63.7832718  31.6359329  88.5087738
  62.4430351  32.0274048  87.9243927  65.1562042  22.5640984  10.6631079
  65.3894043  22.7604008  11.5704737  64.7343674  21.7058601  10.7045326
  84.1528168  12.3098850   4.2183371  85.0050812  11.8824568   4.3030190
  83.6966553  12.0980501   5.0327549  58.9845734  70.2420578  18.6349144
  59.2842255  69.3352051  18.5711918  58.1036873  70.2300949  18.2605724
   5.6071162  53.8359718  79.7570801   6.1482272  53.9962387  80.5302200
   5.4235330  54.7082291  79.4082260  37.8282242  60.0849113  12.5133915
  37.8316422  59.3771324  13.1578064  36.9018707  60.2272110  12.3188324
   9.8438063  45.1104584  31.5244198   9.1860847  45.5940666  31.0246639
   9.5368614  45.1547508  32.4299889  69.7453995  32.2409859  78.5710754
  70.3826675  31.7182808  79.0578079  70.1634903  32.4015579  77.7251129
   5.6737857  24.4371567  23.7769585   5.1682382  25.2490234  23.7379265
   6.5668073  24.7001457  23.5542908  44.5715637  69.2451019  55.7304993
  44.3761749  69.6232910  54.8731613  45.5259171  69.2796783  55.7956619
  48.8437538  32.3986053  19.7704563  48.5751228  31.7701263  20.4405937
  48.0271454  32.6563416  19.3427200  81.1783676  58.7221680  44.1399345
  81.5576782  59.3421135  44.7628517  81.2944870  59.1391487  43.2861938
   9.3802490  32.8416138  78.7988129   8.6661234  33.1759491  79.3414688
  10.0488997  33.5256004  78.8348541  25.5788651  56.8755188   6.8288622
  25.2059784  57.4570847   7.4914079  24.9872570  56.9545097   6.0805349
  19.7861195  15.2597809  76.1186600  19.1700191  15.0252638  75.4246521
  20.4086208  14.5330210  76.1419678  62.7398720  11.2323427  49.6815033
  62.8422318  12.1582422  49.9016457  63.6315651  10.8843975  49.6889076
  63.5187187  23.5404949  29.0722275  62.6950340  23.8583584  29.4420128
  63.4807205  23.7937355  28.1499157  50.3319016   2.7977543   3.4026833
  50.5086899   2.1377885   2.7322929  49.3773384   2.8643365   3.4273918
  50.7479401  35.0371590  47.1555099  50.7956314  34.8673668  46.2146950
  49.9632454  34.5707893  47.4435806  63.9954720   0.8968533  49.8708038
  64.9272537   0.8901920  49.6517944  63.9689674   1.1346467  50.7976189
   4.4592719  20.9452419   2.8860455   4.9608393  20.1438351   2.7363501
   3.5858290  20.7478294   2.5478766  81.9954224  51.8712654  18.6524944
  82.5075989  52.2967682  17.9648571  82.1771317  50.9377975  18.5436230
  52.8045540   0.4678531  85.8427353  53.4228363   0.0684564  86.4546585
  53.3295822   1.0973583  85.3484650  60.3282661  15.8616123  79.1435013
  60.5386696  15.3626013  78.3542252  59.8734474  15.2364960  79.7079468
  35.7289619   5.3505497  69.5329056  36.0435333   5.5050364  70.4236374
  35.3973999   6.2011161  69.2450943   0.5836105  62.4681129  83.0543823
   0.8055538  62.2898521  82.1404877   0.1373492  63.3146172  83.0317535
  60.3749695  13.8408890  86.4038315  60.8442955  13.2392330  86.9817352
  60.6566353  13.5952196  85.5226135  65.3761902  46.4372787   6.6945410
  66.3270416  46.3716888   6.6061397  65.0403824  45.6555710   6.2559195
   6.8777237  69.1690903  44.2566109   6.9436560  68.2144241  44.2342606
   5.9675322  69.3407211  44.4981155  37.7687225  41.8643188  15.5892944
  38.5222244  42.4017906  15.3451834  37.5097122  42.1920433  16.4505367
  45.3970642  47.6246223  79.1223679  45.2993851  48.5689354  79.0000305
  44.6322937  47.3695908  79.6384277  30.4097824  21.2965031  81.9369125
  29.5176506  20.9865665  82.0927048  30.4311924  22.1704960  82.3266678
  55.8867302  34.7382126  22.5939693  56.0297775  35.6844025  22.6161270
  55.0348396  34.6346359  22.1699505  60.3337173  55.8219528  19.2513218
  60.6676559  56.6398926  19.6196880  60.4360428  55.9259338  18.3053055
  44.6313248  37.3849754  24.3020935  44.4251556  38.2140083  24.7338676
  44.1011314  36.7358131  24.7643909  13.9968872  38.9931908  39.4495583
  14.2590437  39.9130974  39.4137840  14.2309971  38.7116432  40.3339539
  60.9804344  53.3480721  42.9222679  60.7467499  53.8538857  42.1439514
  61.4357948  53.9731445  43.4863281  73.4427948  62.2276688  62.2052994
  73.0958099  62.7693901  61.4965210  74.3245544  61.9919395  61.9169121
  65.1786652  25.2460861  77.2115250  65.1747665  25.1642532  78.1652145
  64.4030075  24.7630138  76.9265060  66.2372665  41.2105675  74.7902451
  66.5102463  41.4852524  73.9148865  65.3044739  41.4220428  74.8276291
  75.7097855  28.1159134  31.9548569  76.2034912  27.9711895  32.7620392
  75.0302811  27.4418297  31.9655857  77.1602173  43.2923012  23.0984135
  76.8359909  44.1777306  22.9337311  77.7938843  43.1352158  22.3984032
  62.1637192  32.0398941  79.5521851  61.9052467  31.1197090  79.5003891
  62.3539543  32.1834221  80.4792480  30.6256180  69.8683243  59.7110748
  31.5382576  70.1276932  59.5844040  30.2761555  70.5139999  60.3252487
   4.3406367  53.9877434   2.1092386   3.6101880  54.5893974   1.9654114
   5.0947490  54.5579872   2.2588000  44.8053513  46.7980499  35.8004341
  44.8701859  47.4317169  35.0859451  43.9022255  46.8754578  36.1080093
  37.6897316  19.3922729  16.0340919  37.2459030  19.9606094  16.6635666
  37.0463486  18.7139778  15.8286600  17.8715363  10.9421539  79.2344589
  17.6958389  10.0044031  79.1570892  17.0352287  11.3602381  79.0294571
  57.6724701  67.0109177  59.5160713  57.6111908  66.6293564  60.3917923
  56.8297577  66.8113403  59.1083450   0.6937626  43.8368073  41.4388008
   0.0668916  44.5520439  41.3306389   0.6341238  43.3405495  40.6224670
   5.0737071   6.4553409  77.1826630   5.0037022   6.3622394  76.2325821
   4.4028502   7.0990453  77.4103241  74.3833160  30.3044586  22.8448124
  74.3464966  29.7388325  22.0734844  73.5644989  30.7994881  22.8181114
  76.2884598   2.3242428  40.0057144  76.3657303   3.0533969  40.6210175
  75.7438202   2.6659286  39.2965965  71.5879517  27.3084888   9.0258818
  72.4524536  27.3828335   9.4300318  71.5225296  28.0758076   8.4573984
  61.3188057  38.9654846   8.3918734  61.6319542  39.5642853   9.0698128
  61.4557457  39.4395828   7.5716858   3.9963212  65.9872665  34.9940910
   3.2505982  66.3593216  35.4649467   4.4034877  66.7368164  34.5597801
  61.0769615  51.1351051  79.1527328  60.6296997  50.5476303  78.5435867
  60.5801811  51.0588722  79.9673691   9.1568918   0.5598521  87.0206223
   9.6321802   1.0166104  86.3265686   8.2346029   0.7381104  86.8366699
  34.2204819  62.0544052   6.3506560  35.1454620  61.8211021   6.2718296
  33.9047737  62.0904655   5.4477377  37.2181091  46.5056038  21.6364899
  37.4565392  45.5882645  21.7701855  37.7313919  46.7780800  20.8758774
  85.1503677  41.3827972  27.3054256  84.8899307  41.4601288  28.2232647
  86.1065445  41.3460808  27.3300495  58.8546638  40.7436943   6.6526089
  59.2122841  41.4410362   7.2022042  57.9065971  40.8692589   6.6930509
  35.7639160  48.0496750  31.1074505  36.2165375  48.8929634  31.1227112
  35.8759918  47.7016449  31.9920654  79.2307358  27.4447060   0.9124421
  78.9519958  27.5656319   0.0047440  79.2311935  26.4958382   1.0384636
  40.5426331   2.0892067  32.9328194  39.6719246   1.8747940  33.2676773
  41.1035690   2.0918560  33.7084312  70.8826141  19.2508984  68.8809891
  70.3196259  19.3631306  68.1150284  71.5086288  18.5750198  68.6211395
  75.0984802  13.9347973  87.5115891  75.6217041  13.1770115  87.7727966
  75.4476547  14.1834202  86.6557312  78.5152206  49.0382271  21.8841305
  79.0686340  49.1663208  21.1137009  77.9292603  48.3212471  21.6415958
  46.7540169  11.4476089  20.4832344  46.6152725  10.8237553  21.1958275
  47.3222847  12.1193171  20.8602104  84.1497116  45.4412422  31.1616764
  84.2491379  45.7095566  32.0751038  84.9352798  45.7738075  30.7274914
   2.6318655  31.9814854  19.8360329   2.0126896  32.7054710  19.9292870
   3.4521632  32.3201675  20.1946945  72.7499466  58.5486069  64.0512314
  72.7663956  57.8318329  63.4170456  72.3015823  58.1833153  64.8139648
  78.0381775  65.6946793  69.3299408  77.7846375  65.5385818  68.4202271
  77.6818619  66.5596008  69.5328445  62.9447975  11.3609991  17.7067413
  62.2668228  12.0139017  17.5326729  63.3681870  11.2235870  16.8593407
   7.2151966  70.9532471  85.2412033   6.8491273  70.1686172  85.6493454
   7.3109994  70.7203751  84.3177185  50.9068604  50.3526993  65.1348190
  50.9260406  49.5245018  64.6552887  50.3340530  50.9169617  64.6154709
  10.7151117  45.3259659  87.4191895  11.2974396  44.6622467  87.0495911
  10.3043251  44.8939438  88.1680832  69.4037094   6.2995648  71.6268692
  70.3369064   6.1539631  71.4713898  68.9717255   5.9254808  70.8589630
  39.2037010  34.5917549  55.4372559  39.5074081  34.1117897  56.2077293
  39.6615372  35.4311600  55.4821320  20.1896420  51.6803627  45.8893852
  19.5335693  51.0009918  45.7336502  20.4180164  51.9975777  45.0156288
  62.6581192   7.7653446  12.7147999  61.8452606   7.3109374  12.9361725
  62.9636993   8.1282520  13.5461550  37.7690697  15.7186909   8.5959063
  38.1930771  15.2613544   7.8697567  37.4438095  16.5318279   8.2095814
  61.7296677   1.5928531  60.9475822  61.8390045   0.7496514  60.5079384
  60.8883324   1.5206321  61.3983269  39.7049522  47.6093292  53.6457558
  39.3899612  46.9500198  54.2640800  39.7544899  47.1481323  52.8084526
  12.2876883  47.6107750  33.5808372  12.9941969  47.0002022  33.3704109
  12.4440393  47.8525734  34.4936981  34.4089394  47.3145027  56.6462440
  34.1114006  48.2230759  56.5993881  35.3125343  47.3418541  56.3316002
   4.1502872  26.1718102  85.7070618   4.1673045  26.4055405  84.7789917
   3.2680819  25.8297501  85.8517685  46.0270309  66.5579147  87.7736282
  45.7078094  67.0295181  87.0042572  46.9096413  66.2763977  87.5328445
  72.3433914  15.2765150   4.7108388  72.8340378  15.7628555   4.0482903
  72.6465836  14.3733196   4.6184111  14.2787695  14.3795481   9.0547819
  14.5514565  15.0377407   8.4155207  14.9472742  14.4185648   9.7387486
  58.7875710  22.1370811  83.7380676  59.3455124  22.7036591  83.2052231
  57.9023628  22.2959499  83.4103470  82.8029175  38.3346176  71.2337799
  83.3852386  37.6816254  71.6220245  83.3583145  38.8167610  70.6211624
  79.0844803  26.5584145  67.3162766  79.7407303  26.6460991  68.0075607
  78.4880829  25.8817253  67.6366348  49.7061577   0.8823611  62.0631294
  50.3372536   0.8959748  62.7826881  48.8585892   1.0226921  62.4852295
   3.1915629  42.2162666  21.5470600   3.0399837  42.5702400  22.4233932
   4.1038046  41.9266586  21.5602169  11.0982437   1.6640084  67.6739807
  11.7752571   1.0687698  67.3521500  11.4028521   1.9258645  68.5428162
  77.4734802  54.9740295  41.1232567  78.0261230  55.6176529  40.6798973
  76.7532272  54.8158760  40.5129700  20.0339031  65.9903793   3.3144979
  19.2643948  66.1468811   2.7671435  20.6986961  66.5861816   2.9690957
  62.5301056  44.9141960  49.5535164  62.4480362  44.1058121  50.0594940
  62.5856247  44.6225815  48.6435127  58.5608063   9.0393324  66.1446686
  58.6189957   9.8502970  66.6498184  57.6768570   9.0487366  65.7775497
   7.2540288  47.9902611  40.6361809   6.3820577  48.3841782  40.6631775
   7.1131749  47.0788879  40.8926735  67.8560638   1.5773370  39.7762299
  67.1553268   1.1960555  40.3052063  68.6116180   1.0118120  39.9360924
  57.4042015   4.9669552  25.3686314  58.0222893   4.9638739  24.6377487
  57.9259758   5.2423263  26.1223927  30.7829666  69.9775085  29.3854313
  31.3278522  69.4535370  28.7982464  30.7280445  69.4586411  30.1879196
  60.9691620  55.1041336  33.9147797  61.6059723  54.7109032  34.5114975
  60.1658020  55.1696167  34.4310684  30.9479713  49.8020477  61.8770981
  31.3158779  49.1770363  62.5017891  31.5851688  49.8305817  61.1633759
  69.4875183  44.0271187  61.8897095  69.3913422  43.1592216  61.4976158
  68.8522873  44.5717049  61.4247971  53.8993683   7.1343789  61.1674843
  54.3837280   7.0148172  61.9843903  54.5762634   7.2833610  60.5073013
  17.0028286  66.2688599  22.1677608  17.1271229  65.3613663  21.8898335
  16.1910744  66.2550201  22.6748066  54.0785332   7.1297655  29.0414333
  54.5021896   7.5796576  28.3104458  54.7621346   6.5668373  29.4047985
  17.7946644  13.4050722   2.3619103  17.2750530  12.6174288   2.5227051
  17.4462814  14.0513506   2.9760642   7.2437358  61.7451744  60.8827553
   6.3267999  61.9166756  60.6681709   7.6805186  62.5877457  60.7581558
   7.2957454  54.6759796  88.0469894   7.4713893  53.7370415  88.1084290
   8.0923090  55.0908279  88.3780746  66.1029282  47.5739555  71.3650742
  65.4855194  46.8589020  71.5191345  65.8763580  47.9027939  70.4951553
  56.3355522  64.7934036  77.3095856  56.9698105  64.0794296  77.2448196
  55.5042610  64.3587570  77.5000305  39.1203270   5.7719650  15.4430676
  39.8920746   5.2492995  15.2252140  39.3332443   6.1739469  16.2852726
  45.3966026  52.6125679  38.5695953  44.7274132  53.2952042  38.6189079
  44.9018097  51.7936020  38.5429649   3.9621990  16.0911484  60.9552002
   3.7685754  16.5638580  61.7646980   4.4516931  16.7182465  60.4228706
   0.4755665  62.8102150  85.9555969   0.7785331  62.7489738  85.0496750
   1.1416420  63.3382912  86.3957214  59.3337936  62.4039574  18.6283417
  59.9503632  62.7197838  19.2888908  59.8859596  62.1375885  17.8932247
  19.4090061  26.1106682  72.4834442  19.4993172  25.9751740  73.4266891
  19.9375648  26.8876610  72.3013916   3.2314229   6.6153908  63.3511353
   2.6540692   5.8719692  63.5249748   3.6403508   6.8037190  64.1958542
  56.7869530  16.7026882  57.1142082  57.4669228  17.3578949  56.9574509
  55.9781418  17.2094650  57.1865196  55.8781242  56.7570343  68.3712540
  56.1513634  55.8933640  68.0619888  55.5791740  56.6067734  69.2680740
  41.4831924  40.9162903  23.4363804  40.6508293  40.7464218  23.8774567
  41.2738953  41.5768890  22.7760487  19.5679131   7.6306872  12.3962584
  18.6492863   7.8724203  12.5142536  19.5579891   6.6756592  12.3325806
  50.4644165  10.9436274  72.7067184  50.4173622  11.6368608  73.3650894
  51.3376541  11.0343885  72.3253403  81.2710190   3.0947409  16.3608341
  82.1677322   3.4293156  16.3466110  80.7766037   3.7552447  16.8461418
  59.0742493  17.9119854  66.5730896  59.8637238  18.4489288  66.6413193
  58.4590034  18.3114834  67.1879883  49.7261047  41.6016159  19.0891094
  50.1784515  41.2900085  18.3052006  50.3920555  42.0922241  19.5708275
  76.5602188  71.0538177  68.0177078  77.3568192  70.5288239  67.9399948
  76.3925934  71.0968094  68.9591370   3.4516017  10.2454376  25.3186779
   2.7939260  10.8707418  25.6231270   2.9441054   9.5427351  24.9126148
   8.8004637  12.2238646  76.8716125   8.8475637  11.2692642  76.9240799
   8.5509758  12.4018822  75.9648132  15.7533836   5.9599271  18.9950314
  15.2295599   6.3772664  18.3111687  15.5706291   6.4720478  19.7827911
  43.5512238  23.5718460  45.3614082  43.7538795  23.4856853  46.2929344
  43.5771713  24.5144348  45.1968346  69.1988449  43.0812988  48.7215042
  68.5168457  42.9865265  49.3864288  69.5959930  42.2125359  48.6602364
  49.6680794  55.5050964  84.1413574  50.1179237  54.6893044  84.3612671
  50.3679657  56.0987282  83.8693390  54.7830391  43.5748711   4.8432388
  53.9974136  43.1448059   4.5054998  54.7794113  44.4385872   4.4306707
  71.1900482  10.4543028  51.2386551  71.8191910   9.7339411  51.2771645
  71.0840988  10.7287254  52.1495361  25.3542252  44.6772499  59.1833267
  24.6748791  44.2085648  59.6681519  25.0523281  45.5854187  59.1653671
  50.4474487  51.4797440  88.7272797  49.8725891  51.9664040  89.3179779
  49.8510246  50.9724426  88.1766815  35.4638252  40.2451286  12.7973070
  35.0197678  41.0727577  12.6127176  35.3025627  40.0891380  13.7278423
  41.5434380  45.8005257  76.5988617  40.7315788  46.2409019  76.8502274
  42.1536102  46.5131760  76.4089966  85.6116943  63.2967911  80.6675262
  85.1817093  63.0587540  81.4889221  85.2956543  64.1804352  80.4790573
  16.8365078  64.5215683  68.9766693  17.2107697  64.9155273  69.7646790
  16.3813400  63.7408752  69.2922134   3.7122664  17.6781025  84.4657516
   3.3622098  17.6728649  85.3566284   3.1527271  18.2936230  83.9921646
  61.5364342  18.3810959  54.9645462  61.4852295  19.3172894  54.7717934
  60.9017487  18.2463894  55.6682930  46.1840935   0.7319134  42.3148689
  45.8418922   0.0671864  41.7171516  45.5190849   1.4203845  42.3135033
  34.5141907  64.5973816  15.1398554  34.0496216  64.7145538  14.3111954
  34.7704773  63.6751328  15.1424332  59.7944946  50.2088585  22.5955963
  59.7877693  51.0303764  23.0868168  59.0579948  49.7113075  22.9509010
  31.6132622  40.9233932  85.0848618  30.8445530  41.1709328  85.5987091
  32.3011322  41.5198097  85.3804245  45.7378349  29.1399307  57.6353874
  46.6897278  29.0462189  57.5987091  45.4226837  28.2783146  57.9083900
  47.4552498  22.8797760  78.9243698  47.6802826  21.9948044  78.6372833
  46.9502983  22.7500229  79.7271271   4.3705382  34.3740959  23.8819103
   5.1857338  34.8749771  23.9103031   4.2400537  34.0776863  24.7826576
  18.8385048  61.3604813  73.4841385  18.0662613  60.8435440  73.2546844
  18.8698730  61.3326607  74.4404144  63.7899895  69.0570221  84.4582291
  64.0027466  69.6858139  85.1478577  63.2037086  69.5345154  83.8712845
  58.2617722   5.4304600  58.4773598  58.6197128   5.2266383  57.6133194
  57.4058075   5.0021811  58.4891281  65.2867126   4.7365294  86.5110779
  65.7317352   5.2254467  87.2032776  64.5818253   5.3166604  86.2232895
  56.3307076   2.5020111  24.6818810  56.0836182   2.4683878  23.7577324
  56.8234673   3.3180451  24.7685184  75.4802780  46.1676903  79.3308716
  75.6570435  45.4662132  78.7040405  75.3101501  45.7139893  80.1563721
  31.0571003   0.6786218  12.2512541  31.3779488   0.1576248  11.5151501
  30.3787670   0.1349190  12.6518574  49.4963417   7.5846577  10.2009134
  48.6789513   8.0074024  10.4643316  49.4380760   6.7019186  10.5664387
  84.6528778   7.3055120  17.6382160  83.7403870   7.5831027  17.7191200
  84.6486206   6.6757140  16.9174042  45.7933388   8.0864735  69.4037857
  45.6018066   8.9454918  69.7801285  45.7583160   8.2263489  68.4575119
   1.0576915  50.4997940  72.5127029   0.8421457  51.1831818  71.8780823
   1.0158325  49.6854935  72.0113068  83.7264404  71.1061172  63.3621483
  82.8856964  71.3025284  63.7754326  84.1182938  70.4365234  63.9227905
  77.7378464  36.1393661   4.7596135  77.8145218  36.2610703   5.7059441
  77.4079666  36.9777298   4.4362593  58.2145500  69.3319702  53.7197723
  58.1744270  68.6481400  54.3883476  59.0028763  69.1287460  53.2163086
  42.0320969  47.2689857  35.9666824  41.8338165  46.7266731  36.7301025
  41.2040787  47.7019119  35.7588577  11.4504299  21.4244652  15.2516546
  11.8307123  20.5559311  15.3830519  10.5226908  21.2571220  15.0857363
  46.7470055  12.4905939  88.8500137  46.4885216  13.3793793  89.0938950
  47.5277710  12.3155603  89.3753738  80.2727814  65.5009155  25.9857750
  80.3352585  64.8901978  25.2513733  79.4003220  65.8859863  25.9035130
  44.5275040  43.1212959  46.2584114  44.0211182  43.7603035  46.7598839
  44.0702553  42.2917900  46.3965187  24.7927208  11.0509205  83.6871414
  24.0989037  10.6350460  83.1753845  25.1038208  11.7660894  83.1321869
  18.3360634  68.5377731  72.1014938  17.5925579  69.1154861  71.9292068
  18.9838848  68.7770004  71.4386673  58.4031410  45.8264732  23.6261578
  58.0786819  45.7954979  22.7261581  59.0440140  46.5374680  23.6253834
   5.5655465  52.4520454  68.0750961   5.1847081  52.1624489  67.2460480
   5.1222167  51.9245834  68.7395325   5.4099689  71.8232651  48.7324295
   5.1832051  71.8186111  47.8024902   5.0936055  70.9814682  49.0603218
  81.7180481   6.0766506  79.3777542  82.0220032   5.3693933  78.8088760
  82.4989319   6.3485646  79.8599472  28.8902874  36.1335983   5.1880445
  28.1295643  36.0674171   4.6108503  28.5630283  35.8669510   6.0471325
  55.9927216  23.0399551  79.7023544  56.9361343  22.9669743  79.8468475
  55.9092484  23.2702522  78.7770233  66.5203323  54.7328110   5.3438339
  66.4682007  53.8196831   5.6261673  66.6487427  55.2269058   6.1535330
  29.0568485  51.5367165  51.2239914  29.7804928  52.0188179  51.6241798
  28.5320187  51.2338638  51.9649811  21.2299805  55.1709137  26.6841106
  20.5026970  54.5494385  26.7166557  21.9965801  54.6558685  26.9356709
  19.9257946  71.2955933  68.8221741  20.0964050  70.4780579  68.3544540
  20.7633801  71.5184021  69.2284317  70.5855865  21.6485519  24.4176235
  70.4422989  20.7158070  24.2573490  71.4629593  21.8184795  24.0747433
  17.7147617  58.2722282  81.8822327  17.7617054  58.3326836  80.9281006
  18.5390015  57.8574219  82.1367874   3.3383405  70.5879288  16.5297508
   3.6888511  71.3196869  17.0375919   3.6239655  69.8078232  17.0052395
  75.1257477  41.5557785   4.3371639  74.4462204  41.0709000   3.8687961
  74.8132172  42.4604950   4.3434749   4.7842774  25.8908386  61.0033951
   4.7966185  25.1949711  61.6605453   4.3441815  25.4997597  60.2486725
  57.1968613  46.9395142   5.5797930  57.6894913  46.3194389   5.0421562
  56.5902672  47.3573532   4.9684935  71.1749420  60.0959625  36.6027870
  70.9758301  59.9254723  35.6821785  71.7875824  60.8311577  36.5831604
  80.9765549  70.5185013  25.5341167  81.9216995  70.6452103  25.4512291
  80.7649994  70.8564072  26.4043446  61.7790337  37.4998360  77.4605865
  62.6622353  37.6353683  77.8038254  61.5756416  38.3113861  76.9955597
   7.1797552  29.8142433  60.6029968   7.5362797  28.9649677  60.3425102
   6.2473278  29.6496773  60.7434578  32.6399193  46.4783707  61.5086670
  32.0764656  46.8900452  62.1638565  32.3142891  45.5806770  61.4427605
   4.7976069  65.0105972  19.9505863   3.8448400  65.1025925  19.9487095
   5.0033402  64.6317902  19.0959492   8.0177603  55.4812355   5.8065367
   7.9898319  54.6179237   6.2190189   7.4036083  55.4172096   5.0751343
  73.6252136  58.7379913  19.0039101  73.7217178  59.5442810  18.4971409
  72.7773438  58.8284950  19.4388390  13.3072519  36.3982658  65.0190353
  13.8630552  36.5712929  65.7788925  13.5935574  35.5412865  64.7030411
  65.7583847  58.0519104  66.8325043  65.4340591  57.9507675  65.9376221
  66.0004807  58.9757690  66.8965378  78.8308945  68.3709946   4.4227753
  78.6286850  68.9284286   5.1741762  79.7873230  68.3502350   4.3904495
   1.0832030  11.9731016  83.2922058   0.4437745  12.6187410  82.9913559
   1.8552015  12.1291008  82.7482300  58.2379951  34.8244896  39.0498657
  58.7554970  35.5782433  38.7665367  58.6549797  34.5397034  39.8630371
  25.1223564  48.2679329  70.2989960  24.9662838  48.5208664  69.3891068
  24.2691631  47.9700089  70.6144943  65.4110336  38.8093872  84.4689636
  66.0503235  39.1810188  83.8611526  65.2324142  39.5155067  85.0900269
  19.1346226  25.9552002  85.9889832  19.7958813  25.3336220  85.6846695
  18.3702736  25.7795677  85.4402084  61.3823013  51.7666206  38.2773781
  61.4788895  52.6105423  38.7186279  60.6294098  51.3578758  38.7043648
  67.9317017  54.8098259  18.2888317  67.0132751  54.5632439  18.1796055
  68.0038528  55.0632019  19.2090645  42.6072273  39.1224327  13.8696365
  43.1994095  39.8744202  13.8776436  42.1671371  39.1731606  13.0211210
   1.6989785  25.5469398  61.1115074   1.8064108  26.4849625  60.9540062
   1.7184774  25.1537971  60.2389870   8.2476292  36.3096924  86.1375122
   7.5794315  35.9029312  86.6891327   8.8580637  35.5999184  85.9379578
  57.3615227  29.0772400  55.8444252  58.0084114  28.7544155  55.2170906
  57.1188240  28.3058529  56.3565674  53.6091919  39.1461411   5.3438253
  53.8938637  39.8263741   4.7335176  53.2819023  38.4428864   4.7829814
   7.3659163  47.7361145   9.4146290   8.2885447  47.4838715   9.4515152
   6.8902650  46.9397697   9.6508970  83.3500214  27.3706741  43.4742546
  83.6927032  27.7938824  42.6870461  83.0736237  28.0956001  44.0348930
  54.3796539  56.8695297  82.4012604  54.6584511  56.1963692  81.7804871
  54.7345238  56.5815010  83.2422943  85.0548019  21.5639381  62.5981102
  85.1155548  21.1732273  63.4698257  85.2530823  22.4901085  62.7364120
  35.1717644   2.0527046  19.7464848  34.9809227   1.9811810  20.6817360
  34.6340256   1.3733149  19.3396683  14.9902411   6.7899928  59.0963440
  15.3419113   5.9291263  59.3232117  14.0801506   6.7623496  59.3916473
  29.8615112  51.9929733  24.0816765  29.3666210  51.3798790  23.5381413
  30.7739029  51.7230492  23.9772091  54.5011215  64.2413940  11.1958065
  55.0228691  63.4512253  11.0556583  53.7598000  64.1481628  10.5974894
  69.3008804  64.9272385  44.0211372  68.5441437  65.4858093  44.1988144
  69.1576920  64.6059799  43.1309013   0.5397871  53.3833618   0.4673125
   0.9295711  52.6095543   0.0604707  -0.3728483  53.1390686   0.6210964
  63.6497574  31.4138184  66.8471451  63.1304436  32.0427094  66.3461075
  63.5203094  31.6699123  67.7603226  79.8865967  19.9606476  47.9548836
  79.8831635  20.8092995  47.5121536  79.1354828  19.4953728  47.5866814
  53.3445587  42.0700302  87.0338745  53.3732796  41.2566910  87.5377426
  53.8902016  42.6792679  87.5312042  85.1653976   9.2176542  28.2469368
  85.2024994   8.2858419  28.4627666  85.9634781   9.3788929  27.7436428
  71.8453598  63.6247101  33.2005501  71.8720932  64.0592575  32.3480911
  72.4462051  62.8849564  33.1112404  35.3294563  39.0043373   4.1442332
  36.0263290  39.5691185   4.4783363  35.3019867  39.1878090   3.2051828
  79.0613022  56.6359138  -0.0723844  78.6914215  57.0758667   0.6930296
  79.9173355  56.3239555   0.2210766  14.4062958  38.7581139  58.8823013
  14.3223324  39.7089767  58.8112755  15.1432657  38.5394783  58.3119469
  61.0030937  54.7940178  60.0302696  60.7841339  55.4907951  60.6489754
  60.2661209  54.1855774  60.0841255  23.5689278  46.6779480  64.1023178
  22.7032337  46.2843742  63.9932098  24.1431694  46.1515808  63.5460701
  29.9571228  52.3617020  12.6649446  30.5147057  52.5261879  13.4253912
  29.0661201  52.3718605  13.0145769  52.9578247  14.3553362  37.7047157
  53.3885269  14.3885946  36.8505363  52.0854149  14.0076294  37.5196838
  18.2305832  33.6146965  62.3103104  17.5916309  33.3431778  62.9692879
  17.7086639  33.7833824  61.5258522  19.6462269  21.5816479  16.6141243
  18.8271008  21.9856014  16.9006290  19.3798027  20.9427509  15.9530191
  34.0543823  62.4782562  39.6679993  34.1971855  62.6679802  38.7407227
  33.7631264  63.3104362  40.0406532  38.6415634  34.8925629  59.2968178
  39.1921577  34.4151077  58.6762428  38.0403404  34.2320404  59.6410179
  40.2162132  65.2373123   8.8015547  40.7487564  65.9637527   9.1254597
  40.8436432  64.6491470   8.3812876  70.0784302  45.5665932  20.6431656
  69.2620926  45.3776932  20.1804008  70.6489487  44.8269882  20.4340649
  18.2823143  33.0668831  12.1903000  17.7557888  33.5921211  11.5877008
  18.7456322  32.4476967  11.6262293  51.6338806  45.4296455  39.8010674
  51.8297501  44.6537514  39.2758484  51.2394524  45.0836258  40.6016464
  67.6157608  65.2622910  68.9221649  68.0420074  64.4111786  68.8213959
  67.9048691  65.5749512  69.7794189   0.5405462  17.5523891  11.1057835
  -0.2012749  16.9474735  11.1025944   0.9962056  17.3682690  11.9271889
  53.7117424  19.0170631  67.2862930  53.7209816  19.6354637  66.5557327
  52.7868423  18.9346657  67.5186615  32.5601578  69.6340637   7.5064116
  33.3800392  69.6332016   8.0004025  31.9361725  69.1856003   8.0771608
   0.8303231  34.2418556  16.9143772  -0.0868103  34.4686432  17.0682144
   1.1968803  35.0101852  16.4767284   7.8556080  37.3540573  45.7673454
   7.7595415  37.5072136  46.7073174   6.9904532  37.0592346  45.4830627
  50.9553452  53.3623352  69.1928177  51.5612564  52.8409500  69.7193756
  50.5235710  52.7253609  68.6235504  36.4832077  36.7924156   1.5832809
  35.7837524  37.3857613   1.3095450  36.3239365  35.9894218   1.0872304
  13.4509268  62.6295090  14.7424927  14.1099968  63.2731361  15.0024939
  13.1299496  62.9434776  13.8971357  55.0556335  43.5320969  70.9752808
  54.6475945  44.3757362  71.1702347  55.4486542  43.6502686  70.1105194
  34.4454613  43.6429787  21.6723633  34.3975029  43.4891853  22.6159096
  34.6781921  44.5679703  21.5919838  23.6317177  37.6572876  16.9593239
  23.6437016  38.2364731  16.1973324  23.2000370  36.8614922  16.6485233
  41.7593307  50.5046158  73.3802948  40.9690323  50.6968918  72.8756256
  42.1743965  51.3574142  73.5094986  48.7452049  58.4291649   3.4117985
  49.1894112  57.5863724   3.3189664  49.3432846  59.0604706   3.0118167
   6.8291159  42.6852341  70.4051666   7.7614202  42.4726448  70.4481430
   6.4911613  42.4566116  71.2710495  18.5505829  17.6724720  56.4740448
  19.2837543  17.3511467  56.9988708  18.5557842  18.6199474  56.6100426
  16.7494869  34.9773407  88.5550690  17.2732849  34.1810417  88.4669113
  15.8501406  34.6913948  88.3949432  15.3720789  54.5507278  46.9278412
  15.7362461  54.3051910  47.7783279  14.4824953  54.8446350  47.1240349
  77.9443054   4.3255157  50.5578728  78.0456009   4.0672336  49.6417618
  77.1059952   4.7867260  50.5854073  33.3881645  24.0633450  82.3845901
  33.9888954  23.6108570  82.9767075  33.9435120  24.6754704  81.9017563
  25.8291702  50.3350143  74.5691681  26.7503662  50.2966194  74.8263779
  25.3468971  50.2031021  75.3854065  61.9679031   3.7517478  41.4177322
  61.7729988   4.6279802  41.7500877  62.0796089   3.2168560  42.2036362
  74.3345642   2.6517527  68.3306503  73.6852112   2.8035669  67.6439743
  74.9908752   3.3351905  68.1949844  27.1506500  40.4904938  85.5907211
  26.7361050  41.2668839  85.2144089  27.7746162  40.8374062  86.2283325
  50.3705940   0.8888615  53.7478714  50.9941673   1.0112101  53.0320396
  49.9755516   0.0337197  53.5778580  79.0169067  30.3416119  37.8284645
  78.7789307  31.2221642  37.5382462  78.2070007  29.8371811  37.7520447
  80.0626907  36.6254463  29.9589157  80.3240585  35.7615204  29.6402435
  80.5370865  37.2406197  29.3996773  44.3580475  12.2315531   2.6236765
  43.8797073  12.9386444   2.1907258  45.1286583  12.6580992   2.9984429
  12.6943998   5.7699380  22.6196690  12.1141605   5.3749762  23.2704830
  13.1076984   5.0247521  22.1836491  55.2083893  62.8801460  15.5994101
  55.5657768  62.2408409  14.9831362  54.3109474  63.0256920  15.2999973
  50.7377739  15.9301167  71.3547592  50.4503860  16.2764225  72.1995773
  50.0778427  15.2751141  71.1273880  41.6413536   2.5658298  63.3729477
  42.1151276   1.7412817  63.2639046  41.9706841   2.9240959  64.1972198
  28.1771717  66.0290222  70.7470245  29.0598030  65.9807205  71.1142578
  28.3059158  66.3544769  69.8561096  42.5143318   9.5343046  72.4692230
  42.5932617  10.1798773  73.1715317  41.5710220   9.4305601  72.3441620
  52.6014099  56.0538330   9.2493067  51.6979828  56.0538330   9.5656118
  52.5449181  56.4112701   8.3631468  85.7102509  34.0345726  49.5808487
  85.1383362  33.3494186  49.2348633  86.0930862  34.4419746  48.8038712
  25.3872108  66.3509979  31.9339294  25.1164036  65.7048492  31.2817097
  24.6801720  66.3508377  32.5791626  76.4832153  26.1233616  72.9816208
  76.2742004  25.8679619  72.0831146  76.7183838  27.0491028  72.9189301
  75.0164795   1.0264612  88.4336472  75.5530777   1.5402526  87.8300705
  74.3037643   0.6879699  87.8917160  69.0827255  71.3956604  25.2556839
  69.7555847  71.5514755  24.5929489  69.5312500  70.8993073  25.9402924
  18.9740181  52.7780800  70.1452255  18.9439163  52.1232414  69.4477158
  19.6882648  52.4899368  70.7136002  54.7386131   4.7567434  80.3645782
  55.5641022   4.9054255  80.8257675  54.4369240   5.6329889  80.1249771
   0.4411758  48.4189339  11.7675438   0.8192417  47.7793236  12.3710308
   0.8996022  49.2354736  11.9658794   8.1312351  35.5304451  71.3814697
   8.0430069  36.2675972  71.9856644   7.9689250  35.9084282  70.5171661
  81.0517578  58.1622009  67.7361984  81.7876358  58.7712517  67.7975845
  81.2817917  57.5808907  67.0113602  63.6286812  26.3699036  30.1968575
  62.7657776  26.2295246  29.8070850  63.7978172  25.5720730  30.6979485
  56.6864815   3.0295291   6.4341078  57.0919991   3.3672214   5.6355143
  56.0666733   3.7108729   6.6945677   8.1023741   0.1019971  29.3240509
   8.3900461  -0.0825376  30.2181549   8.8957520   0.0183353  28.7951050
  74.6068344  37.9580078  19.8330364  75.5630112  37.9345207  19.8704967
  74.3414459  38.2855492  20.6924057  78.4393921  46.1120987  14.0612497
  79.1740646  46.7253609  14.0812368  77.8366470  46.4813652  13.4158278
  45.9477158  54.6729546   8.3064737  45.1956673  54.2202911   7.9247036
  46.5912666  54.7071419   7.5987267   9.2081184  64.7490005  83.1670151
   8.5508089  64.2134323  83.6112442  10.0359182  64.5041122  83.5805435
  12.1260681  12.2388926  87.2314072  12.0399075  12.3177624  86.2813568
  12.7232246  12.9454422  87.4772186  77.5636978  41.4707031  39.7431755
  78.1057281  40.7871017  40.1370392  76.8105698  41.5464897  40.3290863
   6.9226480   2.5637248  13.3244476   7.4700632   3.3009157  13.5948505
   7.3070583   1.8057493  13.7648258  73.2792587   8.5836277  79.5204697
  73.3673630   8.4505978  80.4642792  72.3490601   8.4422274  79.3444672
  71.8584671  52.0378342  81.0598145  72.4825211  52.0011787  80.3349457
  71.6385956  52.9659920  81.1398697   8.6157141  51.4622688  41.5626755
   9.4923506  51.8425484  41.6186066   8.5413580  50.9157333  42.3449783
  77.2878342  63.5200958  34.2749825  78.1877289  63.4924927  33.9499435
  77.1977921  64.3931732  34.6568947  10.4999390  52.7566757  39.8644142
  11.2631969  52.2953148  40.2119980   9.8006372  52.1031189  39.8729286
   6.0642371  27.8782406   7.2591701   6.3193483  27.1071587   7.7657127
   5.8205762  28.5280342   7.9184327  53.8386230  62.5127068  81.2683411
  53.2739296  63.1753998  80.8706131  53.8823090  62.7585716  82.1923981
   7.5839028  46.9643288  30.5342121   7.2987432  46.9905167  31.4475746
   7.2636361  47.7849350  30.1596889  70.5472183  53.1755562  64.4460449
  71.2439346  52.9131660  63.8444023  70.9439392  53.1108170  65.3147507
  52.0448151  13.6629314  44.3283501  52.5876045  13.5528002  43.5476532
  51.7654800  12.7753878  44.5530052  26.4708996   9.2387390  81.7623672
  27.0116558   9.9979877  81.9799805  27.0948372   8.5794811  81.4585342
  53.3182983  44.2173767  29.5975170  53.2040176  45.1655731  29.6615467
  52.6977005  43.8579865  30.2314987  75.9933319  58.4633484  34.5873947
  75.9018707  59.1619415  33.9394531  76.9281387  58.2574921  34.5873222
  12.5591507  46.5397911  73.4822006  11.9854879  45.7913437  73.6464157
  11.9614792  47.2607040  73.2839508  47.7309799  57.0371513  43.7102661
  48.2151070  57.8628731  43.7043152  47.1872559  57.0839615  44.4966545
  81.0514679  52.2873993  87.8552475  81.2642899  51.7585564  87.0863113
  80.1064529  52.1815300  87.9646606  58.6931763   7.9313703  43.2896690
  58.9196510   8.4010658  44.0923691  58.9913902   8.5053282  42.5840683
  80.4849319  31.5981922  48.6925545  81.1398544  31.9423656  49.2998848
  79.8120575  31.2170544  49.2566528   7.1524558  13.6875048   2.3733943
   7.4742823  14.4938364   1.9702959   7.9369264  13.1542511   2.5017619
  74.4814758  46.9836349  19.3939705  74.7039490  46.3410645  18.7202930
  75.3091812  47.1567383  19.8425026  32.2107964  32.0748329  84.2474060
  32.4720726  32.7935715  83.6717529  33.0346985  31.6566830  84.4975357
  16.7118320   7.4854107  83.2211609  15.9307241   7.7762380  82.7505035
  16.6190681   7.8632851  84.0957108  24.9561424   3.5329385  12.1211634
  25.6208248   2.8564909  12.2509584  24.8477612   3.9310834  12.9848566
  32.5676003  43.0443001  77.8710098  32.1150894  42.2121620  77.7331238
  33.4942474  42.8354721  77.7529297  22.0362186  21.8733654  13.5015326
  21.0800190  21.8904076  13.5418205  22.2689972  20.9704342  13.7177725
  50.9613953  19.8341694  48.2261314  50.8129387  19.3651371  47.4050331
  50.7308617  19.2028236  48.9076653   3.3167706  16.2425003  88.7367477
   3.5540793  15.5803289  88.0875549   3.4737186  15.8180418  89.5802155
   8.7258596  47.9111290  71.1890488   9.4673138  48.3773613  70.8029022
   8.7276411  48.1779175  72.1083145  76.2255402  41.5200996  73.2516327
  76.6229095  41.8421707  74.0607071  76.6824493  40.6986427  73.0708618
  43.1349640  14.3992682   0.8719099  44.0465927  14.5980282   0.6582389
  42.6951599  14.3505611   0.0231277  67.0147629  53.3477669  38.1177635
  67.5964050  54.0350342  37.7928276  66.9395752  53.5214424  39.0560684
  61.4481125   9.7018337  53.6541214  60.8992767   9.8991680  52.8951302
  60.9126625   9.9497328  54.4078255  25.5090733  68.9868546  19.9344196
  26.0118580  68.9506683  20.7481327  26.1619148  69.1639328  19.2571640
  69.5070801  49.1293526   2.5454910  70.2282715  49.3681335   1.9631691
  68.9374313  49.8985863   2.5491219  23.2520561  57.4459381   5.3728509
  22.7672672  56.9775352   6.0524201  22.9542618  58.3525314   5.4479294
  44.5459061  46.7194252  54.7613373  44.6878548  45.7771606  54.8519974
  43.7082176  46.8783913  55.1963539   2.3049786   1.3260052  46.2120209
   2.3171916   1.5035789  45.2715187   3.1215286   0.8547018  46.3774033
  29.2380104  41.4929314  86.9912033  29.7473335  41.1091080  87.7049942
  28.9431458  42.3365746  87.3340683  17.8002453  14.1254034  74.5215530
  16.9497814  14.2779531  74.1096420  17.7629128  13.2161913  74.8184891
  66.4168625  41.9206047   4.6735158  66.4250031  42.8731575   4.7673583
  66.1146393  41.7707558   3.7777271  53.7213211  53.9482613  42.2344398
  54.0304108  53.5523186  41.4196205  53.7189407  53.2280083  42.8648872
  76.4339600  45.9793549  22.3468990  76.1209030  46.7632637  22.7982483
  76.8502121  46.3111687  21.5513706  28.4297066  43.4917183  15.7262907
  27.8925114  44.0107269  16.3248577  28.7725525  42.7805901  16.2675743
  33.1060066  38.3197327  14.6385593  33.7679863  38.9568024  14.9071789
  33.3893013  37.4971695  15.0377645  49.7049942  24.0155659  78.0210876
  48.8339844  23.6281891  78.1077728  50.2694740  23.4579945  78.5565414
  34.4701424  37.1903687  59.0082436  33.8672371  36.9435730  58.3069382
  34.7765083  36.3567009  59.3651352  45.3022537  60.1053200  73.6602478
  45.0916328  59.2728767  73.2372589  45.9727097  60.4958992  73.0997391
  81.3698044  62.8219948  69.5246811  82.1373520  63.1358566  69.0465622
  80.6499557  62.8977814  68.8983383  14.0145597  61.1324043  35.0425377
  13.2688065  61.5235672  35.4975929  14.2813101  61.7955246  34.4058685
  51.8038673  53.7307892  14.8542938  51.6439743  54.6119270  14.5162649
  51.8396721  53.1777115  14.0738754   0.4696665  32.3927383  30.0137730
   1.3215760  31.9680882  30.1145325   0.6701382  33.3283119  29.9864674
  24.0289707  51.0641174  79.1113434  23.8331089  51.4287071  78.2482452
  24.7584801  50.4637184  78.9578018  33.2154922  40.2809715  80.7790756
  33.3029633  39.8167686  79.9465561  34.0874939  40.2358017  81.1712570
  43.4979973  37.0410767  35.3087883  43.7779160  37.1193657  34.3967857
  44.2562675  36.6714745  35.7611771  22.2321243  42.2133789  22.5583496
  21.7889843  41.6769257  23.2156754  21.6453838  42.9570808  22.4209633
   5.6209526   7.6872182   3.0325468   6.0543075   8.1560392   3.7457387
   5.3367696   8.3756227   2.4312398  44.0115318  68.9459457  69.2565689
  43.4072304  68.6045227  69.9157257  43.7890663  68.4683533  68.4574203
  40.0729027  41.6104546  66.7673874  39.8730240  42.3809509  67.2990036
  40.6494141  41.0817986  67.3190994  65.5508881  36.1373749  63.7409439
  65.9899979  36.4270935  62.9412689  65.6736145  36.8598251  64.3567657
   4.6020060  68.7810059  18.0071697   4.0808558  68.8577118  18.8063889
   4.3982859  67.9081497  17.6712494  32.3833847  10.6084700   8.6722260
  31.4522419  10.4143600   8.5648870  32.4214058  11.1852875   9.4351597
  38.9057655  47.1829872  19.4176292  38.9551125  47.8358154  18.7193356
  39.1016693  46.3526764  18.9835396  17.7636318  15.2442665   8.2163363
  18.1256294  15.7562199   7.4930840  16.8461723  15.5129652   8.2643185
  50.5944519  54.1498833  44.7594872  50.1083374  54.0072060  43.9473495
  51.2926750  54.7580872  44.5170021  61.1856041  29.5260525  49.9268456
  61.6505089  30.2512989  49.5095787  61.8275452  28.8167362  49.9586601
  78.5412064   7.8673363  75.2985916  78.1608276   6.9889998  75.3068161
  79.3755569   7.7713203  75.7578125  82.1735077  32.4310875   1.4260393
  81.6051178  32.8825569   0.8020645  81.6639099  31.6714764   1.7080514
  27.0055065  69.3189621  71.9729080  26.8662090  68.5088654  72.4633865
  26.3931236  69.9430847  72.3623810  18.5675850  46.5535583  14.0409718
  19.1486053  47.2270737  14.3945646  19.0430336  45.7334290  14.1735086
  67.8602448   3.9977257   3.0486650  68.7146454   3.6059957   3.2297051
  68.0627136   4.8102841   2.5849960  12.5968876  41.6279335  81.9715652
  12.6884031  42.5367775  81.6854553  13.4942980  41.3353882  82.1306305
  22.2320995  15.4377222  26.3644428  22.9871635  15.2183132  26.9103107
  22.4935760  15.1818457  25.4799156  85.9562683  29.9893723  30.5530987
  86.0907364  30.9342251  30.6266098  86.0241470  29.8100338  29.6153030
  78.2294083  36.0960693  44.8949203  79.0574493  35.6159592  44.8864021
  77.5584106  35.4153976  44.9467163   7.2711725  48.7171707  26.5727711
   7.7403264  48.3821068  25.8086643   6.3532224  48.5068321  26.4014301
  56.1632309  29.0629807  76.0196381  56.7988968  29.2062550  75.3184738
  55.3117294  29.1826687  75.5991058  64.8148499   5.7350054  68.4080353
  65.0315933   5.3451900  69.2549744  63.8681870   5.8723001  68.4428024
  19.7788868  63.7225990  81.6096344  20.1085663  63.9878082  82.4682465
  19.2768230  62.9259567  81.7814636  51.7360458  42.5854454  14.3872995
  51.9106331  43.3933945  14.8699684  52.4770889  42.4998817  13.7874937
  78.5082245   5.6392393  39.2059898  78.7712555   6.1931443  39.9409981
  78.7010498   4.7478991  39.4967880  79.9047928  39.0153046   5.0307865
  79.8715897  39.8539467   4.5705619  80.5538940  39.1468773   5.7218661
  25.8114986  25.5658989  12.3344975  24.9851551  26.0413818  12.2490311
  25.9263668  25.4529629  13.2780457  39.3956757   4.3181672  29.0819607
  38.6045837   4.8497310  29.1705132  39.0723114   3.4240685  28.9712620
   3.2985520  25.2398224  45.0820084   3.9274702  25.3254051  45.7985077
   2.4462233  25.3845253  45.4928970  84.9678345  49.9301796  43.6505623
  84.4705124  49.8232117  44.4613991  85.8837967  49.8676987  43.9213791
  35.2562828   0.4853715  72.7732315  35.8639526  -0.2493141  72.8581314
  35.5278015   1.1007077  73.4543152  51.6455307  30.8745880  46.6640472
  51.3682899  30.6462364  47.5513039  52.4788551  30.4180145  46.5485344
  37.0418816  63.3788033  63.9564896  36.2455521  63.3619919  64.4873505
  36.8965836  64.0869598  63.3290901  40.1317596  47.2473984  13.0757313
  39.8937798  46.6819611  13.8104944  41.0148010  46.9676628  12.8344488
  66.3216782  67.7934113  58.7399712  66.1540375  68.7090225  58.9631081
  67.0178375  67.8303299  58.0840569  18.5462799   5.6979117  84.2274857
  18.0605869   6.4006815  83.7956924  18.6166000   5.0122132  83.5633316
  33.5689812  18.7242413  78.1146011  33.4300270  19.5216618  78.6255188
  33.8457909  19.0368443  77.2532730  84.8992691  34.9607086  75.0667191
  85.6883926  35.0251808  74.5288086  85.1581573  35.3191299  75.9156876
  36.0522995  54.9208374  42.7453880  36.5310287  55.7487183  42.7861404
  35.1410942  55.1777687  42.6042290  72.9611206  49.9707069  33.4843750
  73.2760849  50.6454620  32.8829231  72.4935989  49.3504944  32.9249229
  76.7113419  18.4670048  30.2657814  76.4371033  18.8544636  31.0969849
  76.0846252  17.7598534  30.1128235  83.9776764  53.5597343  28.6490040
  84.3729782  52.7086792  28.4601440  83.7351608  53.9069595  27.7906017
  63.4525757  19.0915890   7.7549481  63.1586533  19.0837059   8.6658697
  63.3941956  20.0102196   7.4923797  85.5627289  44.6932831  37.2341080
  85.4513397  43.8137016  37.5948830  86.2461090  44.5954247  36.5710487
   6.9878902   9.5052309   4.8891978   7.4709644   8.7323618   5.1816773
   7.6567163  10.0777369   4.5135102  80.5963440  17.2844410   0.4748843
  81.3878479  17.2476578  -0.0621503  80.2861557  16.3794518   0.5066029
  19.5662899  38.0012360  14.8812389  19.8610821  37.4242973  14.1766300
  18.6197147  37.8650131  14.9221258  31.2603073  38.9644470   9.2889137
  31.7414017  38.6496353  10.0542068  31.7181854  38.5778885   8.5424862
  53.4958801  51.5102386  33.5762405  53.4464645  52.3644676  34.0052872
  53.0530624  50.9132957  34.1793976  51.6031952  11.3865194  43.0463181
  51.1469269  12.0504093  42.5293083  51.8116035  10.6951227  42.4180145
  13.1938734  36.7478676  86.2070160  12.9712410  36.0615578  85.5780182
  13.7255573  37.3674202  85.7073135  87.1153183  63.4393654  43.6122818
  86.2950058  62.9496307  43.5532341  86.8606491  64.3511429  43.4707184
  84.4650879  41.9882736  49.0888405  84.5816345  41.2972641  49.7408829
  85.3145218  42.4279213  49.0513344  68.3107300   8.9863052  37.5230827
  68.2408600   8.9317503  38.4761696  68.2609406   8.0774546  37.2268677
  27.5474834  56.9207420  33.9361801  27.8530827  57.4163551  34.6959229
  28.1180706  56.1527901  33.9058762  54.9273643  39.8530197  79.3632736
  55.6435738  39.7320976  78.7398529  54.2135010  40.2177010  78.8401794
  46.0241928  54.8743324  48.6478806  45.9976883  55.3424568  49.4823799
  45.1057854  54.7883835  48.3922005   1.5587394  64.8625488  30.2999725
   1.6340836  64.4733658  31.1712284   2.0372295  65.6890488  30.3646507
  33.9976616  64.1184311  29.9962120  33.2942505  64.7674332  30.0116119
  33.6101112  63.3358459  30.3881378  55.1556473  43.0584755  50.1366196
  55.8562164  43.4730225  50.6401939  55.5517349  42.8693695  49.2859840
  56.7916565  56.7986488  13.7696772  57.5532494  56.9294853  14.3345556
  56.0569267  57.1491165  14.2732410  37.8799477   5.9965682   6.6421990
  38.0172043   5.0590229   6.7778525  38.6409988   6.4112973   7.0484471
  62.7659607  53.3189964  76.1990509  62.4958687  53.1607895  75.2944794
  63.0826263  54.2222977  76.1999588  57.3361702  27.6299362  84.4044342
  57.9842300  28.3342247  84.3893127  57.3423271  27.3181725  85.3094177
  83.2955399  59.4641418  52.8150444  82.7394104  59.1297569  52.1113815
  84.0545883  59.8347816  52.3648186  64.0721741  44.6060066  16.2745075
  64.1404724  43.7348251  16.6651554  64.4313202  45.1949120  16.9381618
  54.2676735   7.6187944  53.3693695  55.1914978   7.5231605  53.6009598
  54.2103882   8.4847422  52.9655342  58.0361633  68.3504562  33.3409843
  58.6271477  69.0768738  33.1427765  58.4340324  67.9172058  34.0961189
   0.2589041  45.3534546  85.9968033   0.9053327  45.7759819  86.5623474
   0.5024351  44.4277878  86.0046463  79.3276062  32.3110161  40.1440620
  79.2640991  33.1292572  40.6366959  79.0484009  32.5424881  39.2582321
  10.7786589  11.4579859   4.8498516  10.1537619  11.5269279   5.5716429
  10.3772717  10.8348017   4.2442431  35.2963448   3.6316431   8.1100893
  35.2602921   3.8361425   7.1756845  35.5215950   4.4625158   8.5285931
  38.2937660  32.4850044  66.0833511  38.7868156  31.9528160  65.4589233
  37.8877220  33.1671410  65.5485229  59.4393044  61.9574280  10.5133524
  60.2221222  61.8887520   9.9668083  59.6152954  61.3813782  11.2572784
   1.5198015  20.2617397  37.0915680   1.9415762  19.7942390  36.3706093
   0.8515605  19.6557159  37.4116020  58.4324417  64.2844391  56.9914436
  58.5195580  63.6227913  57.6776390  57.6067848  64.0712585  56.5566101
  67.1326828  20.6917763  62.9847298  66.4573517  20.3159351  62.4200134
  67.4922562  19.9423885  63.4594498  79.4319611  51.8385429   6.6892085
  78.8904877  52.1374092   5.9586492  78.9002838  51.1721344   7.1244688
   6.6884952  25.3317528  15.7347374   7.1137228  24.4742947  15.7213793
   6.7734928  25.6552505  14.8378782  12.7132273  11.5117502  74.4655457
  12.2536469  11.4239683  73.6304932  12.3330517  12.2930155  74.8672028
  78.9579544  24.6341629   0.5293798  79.5614777  24.2001247  -0.0736116
  78.1932755  24.8439713  -0.0067918  18.2665005  56.1842041  29.0605736
  18.4270935  56.2936592  28.1233120  19.0169678  56.6024361  29.4826088
  10.3024187  68.2748871  84.9287033  10.8083429  68.6002655  84.1841202
   9.3995438  68.5249023  84.7323837   3.1226797  65.4403076  41.9443474
   3.9325790  65.2373886  41.4762421   2.5064111  65.6947784  41.2575493
   0.8796877  55.5000381  87.6795731   1.5027354  55.0674934  87.0956650
   0.7931669  54.9026260  88.4224396   3.1446428  50.6891747  26.4387360
   3.9213178  51.0781860  26.8408279   2.4118295  51.1839027  26.8054237
  54.5013466  54.5496407  26.3248787  54.0186768  54.9036865  27.0718155
  55.3704033  54.3512115  26.6735840  57.2753105  34.3980904  50.9532242
  56.5215263  34.1383934  50.4235115  57.1151161  35.3182068  51.1628838
  27.8696709   3.5744119   2.4911830  28.6266422   3.1420381   2.0958598
  28.0321751   4.5086226   2.3605115  71.6686859  67.1550980  26.4177361
  70.8749619  66.6245041  26.3491077  72.3749619  66.5173111  26.5208607
  59.9449043  20.7885227  23.6468410  59.5025368  21.5328121  23.2387066
  60.7150841  20.6377487  23.0988255  55.0640335  59.6442604  82.2402420
  54.8772125  58.7057495  82.2632523  55.5894356  59.7645569  81.4492264
  43.1517029  39.4856758  39.8202095  44.0191154  39.8644714  39.9628410
  42.5727119  39.9916153  40.3903236   1.5509348  60.8827858  54.9681091
   1.6758474  60.1100731  54.4171600   0.6452180  60.8172569  55.2707863
  43.7515564   1.4164156  13.5096016  43.7980652   1.8324662  14.3703985
  44.6648140   1.2588692  13.2700710  30.6237907  62.6525650  58.3823090
  29.9542217  62.6222305  59.0656776  31.2168617  61.9322472  58.5959473
  77.2134171  42.0624580  75.5688858  77.5042419  41.3102455  76.0844650
  77.9586487  42.6630707  75.5801239  24.4162407  45.0256691  72.6711426
  23.7045307  44.4440079  72.9383011  24.1868572  45.8743668  73.0497208
  72.3574219  26.9567642  38.1039085  71.7621078  26.3572922  38.5538712
  72.0180435  27.0054150  37.2102127  28.2441502  22.5356541  88.9114914
  28.6478786  23.3743916  88.6884384  28.7729149  22.2003384  89.6355133
  84.6754150   8.5487967  50.1141167  85.1362762   9.1182547  50.7301979
  84.9983902   7.6699028  50.3127632  38.2890282  44.9208069  65.1502533
  39.0952644  44.8519440  65.6616058  37.7931404  44.1343460  65.3778610
  82.7581329  12.8009090  11.2521458  83.1463470  13.1307049  10.4417410
  81.9676895  13.3275671  11.3707151  13.1321297   9.4222202  17.2973614
  12.2134209   9.3513165  17.0381699  13.1113071   9.9050369  18.1236095
  31.6247807  19.8656807  69.4429550  32.3290367  20.1480942  68.8594360
  31.9967480  19.1293259  69.9283981  46.0054169  59.2209320  28.7467690
  45.4259567  59.0167923  29.4807892  45.4233017  59.5705414  28.0721226
  64.7556458  58.4905701   1.3184478  63.8569489  58.3167839   1.5984161
  65.2235031  58.6947823   2.1281593  25.8572674  13.8477535  17.5655270
  25.1525040  13.3259583  17.9492855  26.2606125  14.2911892  18.3117886
  61.1747665   6.4059057  47.9738655  61.4767952   7.2074785  47.5466728
  61.7160797   6.3349552  48.7601089  35.5377007  71.0241852  57.5821495
  34.8183632  71.0647507  56.9519615  35.6480064  70.0901260  57.7599106
  67.3021317   5.0559697  31.2455978  68.0989685   4.7921596  30.7855034
  66.7705154   4.2606759  31.2791977  81.2356491   4.3900523  41.2659073
  80.4700623   4.0004454  40.8436394  81.9241638   4.3445778  40.6024933
  66.5343552  64.2705612  78.0327148  65.8738937  64.6513596  78.6115189
  67.3694077  64.4839706  78.4490891  51.0722771  55.6421585   2.5129721
  50.2003174  55.3980598   2.2025871  51.6677818  55.3054314   1.8434781
  19.0727081  70.6979523  52.2029762  19.8194218  70.2015228  52.5379448
  18.4557610  70.0299911  51.9039154  22.8797703  55.8279953  83.3137741
  22.5731125  55.1708031  83.9385071  22.7737350  56.6617622  83.7718430
  83.3394547   3.3969760  50.1343460  82.3914795   3.2665980  50.1582184
  83.5384903   3.8574688  50.9495544  81.5886688  50.2681999  62.0639915
  81.0690613  50.5089531  61.2969971  81.1624832  50.7188187  62.7930641
  48.3219681  45.7493782  26.1946239  47.7108955  45.5842781  26.9126549
  48.9864388  45.0661736  26.2837334  62.0230789  50.8173332   2.7068381
  62.3276596  51.0996323   1.8444165  62.2763062  49.8957939   2.7604563
  78.5641479  12.9596615  50.7342491  79.4200516  12.9539490  51.1627731
  78.2914352  12.0421352  50.7317047  65.9087067  48.4590530  78.6903992
  66.8484879  48.6192932  78.7762375  65.5074615  49.0311089  79.3446045
  74.4354782  21.8913517  86.1005325  73.8623123  22.4115772  85.5374298
  74.7396393  21.1781750  85.5391998  47.0491409  32.6328468  78.2981033
  46.9681053  31.7161884  78.0346603  46.6653023  33.1253815  77.5726242
  73.0599365  50.2924919  71.0016251  73.7275925  49.6891937  71.3279572
  73.3022766  51.1411324  71.3721771  82.6473846  26.9954185  48.3278923
  81.7453842  26.8309784  48.0529556  82.9236298  27.7482262  47.8052025
  79.6208496  24.9841290  36.2860336  79.2908783  25.8825130  36.2699852
  80.4570389  25.0443153  36.7479858  83.2280273  28.7185783  88.4606094
  82.9540558  28.0080986  87.8806229  82.4342804  29.2358150  88.5972290
  15.9371243  68.1056519  86.4549942  15.1940165  68.3033295  85.8849487
  15.8049221  68.6621552  87.2224960  11.9441986   9.0249109  74.5029755
  12.1487007   9.9395380  74.3083725  11.4603071   8.7192087  73.7357559
  75.9361267  18.7316933  36.5853615  76.8452301  18.4591694  36.4608879
  75.8988342  19.0340958  37.4927711   0.6665100  47.5631943  68.3640366
   0.3457764  48.0485306  69.1241760   0.5172876  46.6441803  68.5862503
  51.7348976  23.7813358  54.0203514  51.2646599  24.4306202  53.4973412
  52.3827095  24.2901325  54.5078888  43.0688057   2.1735086   9.1080675
  43.0404892   3.1234040   8.9934874  42.5725517   2.0142078   9.9109306
  16.9980812  52.5873871  39.0120163  17.5387993  52.9264984  39.7253609
  17.5432434  51.9205971  38.5943718  34.9575424  31.9733677   1.0765941
  35.2177238  32.1482162   1.9810088  34.3139076  32.6531258   0.8768482
  56.9706993  11.9566708  61.3587608  57.0208588  11.9712124  60.4029884
  57.1244240  11.0413342  61.5927696  72.6975250  58.7189674  70.9176712
  73.3347244  58.1886597  70.4391479  72.9251099  58.5934677  71.8389130
  20.9967155  42.0819473  74.3377762  21.8723946  41.7050667  74.4236603
  20.6533775  41.7076416  73.5264511  15.4395800   0.3971448   0.3679352
  16.1478043   1.0176101   0.5401911  15.6407413   0.0379385  -0.4962041
  35.6179924  53.8874207  34.7863808  34.7970352  54.3238144  35.0140114
  35.8297806  53.3590736  35.5559464  32.7126045  60.7213669  88.3087997
  32.8046532  60.3626976  87.4261246  33.0510139  60.0343361  88.8829956
  47.6534081  19.2899323   7.6034222  47.0373688  19.6567116   8.2376156
  48.4825516  19.2358131   8.0786304  17.5820293  66.9569855  55.0941505
  18.1017284  67.3292007  54.3816872  18.2297230  66.6612396  55.7338791
   5.8742051  40.8236160  79.1774597   5.0573912  41.2155991  79.4863205
   6.2555728  41.4867706  78.6021271  12.3828402   1.1435593  54.1813545
  13.3364906   1.1896931  54.2495842  12.1498289   1.8614438  53.5926437
  80.6676712  62.7827911  52.8887253  81.2990417  62.5208511  53.5587959
  80.5495834  61.9993515  52.3515968  77.2853775   3.8751333  12.6654148
  77.1400757   3.3401086  11.8851137  77.4522781   3.2411370  13.3628559
  58.6846161  68.4540405  77.0543213  59.5061455  67.9752045  76.9445801
  58.1251488  67.8586502  77.5530624  71.3892365  48.6255035  88.5292435
  71.4390717  49.1684303  87.7424927  71.1614685  47.7541962  88.2049408
  11.1972532  35.2258263  66.0151825  11.8679924  35.2456398  65.3325806
  10.8938370  36.1314049  66.0791855  41.5626602  43.2338524  61.8442345
  41.0626373  43.9437141  62.2471046  41.0450325  42.4476585  62.0179939
  19.9281807  71.1671677  85.7573395  20.0658932  70.6693115  84.9514847
  20.5618057  71.8829269  85.7079163  25.1371002  51.0419044  22.9607487
  25.8374538  51.6703987  22.7854443  25.4851379  50.4831200  23.6556301
  15.5307970  46.9230690   2.2354305  16.2972813  46.4941216   2.6158755
  15.6017160  46.7514343   1.2964189   3.9944036  54.1344986  55.9108543
   4.5385737  53.3976364  56.1886024   3.9085865  54.6775932  56.6943817
  35.5110092  66.9678040  10.4763556  34.9283371  66.8124313   9.7329969
  36.3209839  66.5132751  10.2448874   4.7717166  43.7710419  38.3034706
   4.2305841  43.1653481  38.8099709   4.8237247  43.3754883  37.4333801
  15.2777338  44.0768700  40.3463669  14.4990835  43.5443954  40.1838646
  14.9337835  44.9386559  40.5814247  34.0876007  46.5588837  49.3221054
  34.5975266  47.0192604  48.6555786  34.5702972  46.7042961  50.1357956
   4.9926839  58.1211433  12.7673368   4.1809616  57.7392960  13.1012974
   4.8929095  59.0617867  12.9138603  27.2117844  46.6578751  15.2696886
  27.3710747  46.4640312  14.3459558  26.2919731  46.4312210  15.4068260
  66.1058502  42.8452187  87.8441391  65.3879013  42.8108902  88.4762802
  66.5497742  42.0026093  87.9398880   0.2133151  34.1129456  41.3016548
   1.1036981  33.7654495  41.2497177  -0.3458671  33.3771858  41.0522461
  57.5204201  16.5235729   6.2609549  58.2911491  16.2515068   6.7591381
  56.8970947  15.8058577   6.3731370  37.7883453   6.0388670  88.0897369
  37.8309975   5.5689349  87.2569199  38.7034988   6.1794720  88.3325500
  70.2799225  40.5125618  48.8329201  69.7352905  39.7341576  48.7158737
  70.2841873  40.6619377  49.7783813  23.2882290  31.4749184  70.4586945
  24.2106514  31.6012001  70.6809998  23.2989559  30.8365574  69.7455215
   1.9256145  28.3761253   3.9352577   2.1100144  28.9234772   4.6985626
   1.8498549  28.9952850   3.2092187  19.1845493  30.7299595  14.4043665
  18.3948860  31.2298336  14.6112318  19.8898563  31.3767395  14.4255762
  72.2808456  46.3625908   7.8738799  72.8517990  46.8979454   7.3228450
  72.3499374  45.4817276   7.5057235   5.2025514   1.1030678  85.5458832
   5.7710114   0.3333705  85.5203629   5.7611251   1.8231659  85.2531586
  20.5124588  67.9920959  79.1104126  20.3998089  67.5832825  78.2522659
  20.3945580  67.2757874  79.7342911  79.5437393  51.6375465  17.8284111
  79.0531158  52.4582787  17.7846527  80.2988815  51.8390884  18.3810272
  10.4615612  47.9981461  44.2860565  10.6125488  47.9725342  43.3411865
  11.2726736  48.3543091  44.6486511  42.4998894  62.5624504  57.1908722
  41.5634689  62.5428200  57.3882675  42.5612869  63.0495262  56.3691559
  64.8671875  30.0848217  54.0314293  64.2535095  30.6591206  54.4894829
  65.1767502  29.4792118  54.7049599  14.8356380  64.7826843   1.7142571
  13.8884716  64.9208832   1.7116883  15.1891508  65.5378647   1.2441918
  23.2214108  57.7730293  34.6697464  23.9147110  58.4285393  34.7463837
  22.7994995  57.9673653  33.8328133  22.8989010  26.6024570  64.7144012
  23.2507229  27.1761799  65.3950577  22.0848598  27.0257072  64.4415894
  16.3501949  54.7969513  30.1233597  17.2170601  55.1318932  29.8940392
  16.1094875  54.2324829  29.3887386  73.7087173  31.6468525  19.3510132
  74.0298691  32.5040398  19.6308804  72.7960968  31.6272659  19.6390686
  18.7646980  48.5126724  79.5731812  19.1941719  48.8629494  78.7927399
  19.3234711  47.7857742  79.8481827  13.7664986  35.4019928  81.7676544
  13.5448360  36.2076225  82.2346191  13.1068687  34.7701073  82.0537338
  20.4921703  57.7501450  72.1048355  20.9515381  58.2851906  72.7520905
  21.0811481  57.7283936  71.3506012  46.5184479  37.5699654   2.0097225
  46.5572090  37.0337639   2.8016927  47.3277168  37.3646049   1.5415937
  57.2582741  46.4342270  62.9780807  57.4795380  47.2846565  62.5985489
  57.8492470  46.3445358  63.7257042   9.1551981  58.1001434   5.1141148
   8.7983170  57.2695808   5.4288135   9.9516211  57.8554153   4.6428919
  27.6471939  51.7000008  77.3904037  28.0023060  52.5846291  77.4773560
  27.9900570  51.3854294  76.5539093  32.4637985  43.1189232  73.6968307
  32.0650215  43.6242943  72.9884491  32.6625328  42.2695847  73.3026657
  82.0328674  24.9000473  25.9726734  82.9474030  24.8439541  26.2496433
  81.6388779  25.5321541  26.5738754  20.8264179  62.7745743  64.1960144
  19.9576950  62.5800400  64.5477371  20.6903076  63.5321808  63.6270294
  41.8621941  51.1097221  61.9972610  41.8600731  52.0466156  62.1933670
  41.2025909  50.7405968  62.5845451  32.4371605  51.0986328  86.0758820
  32.6771469  50.2675972  86.4857864  32.7910652  51.7664337  86.6632690
  47.4280090  49.3587303  57.1260910  47.0693550  50.2203293  57.3388138
  48.3310928  49.3906288  57.4417686  75.2433853  57.1402092  53.5216827
  74.7922363  56.6362572  54.1989784  76.1735458  57.0163002  53.7105713
  44.3186531  53.5105934  59.1893272  43.4009628  53.2414246  59.2296333
  44.3321190  54.2202568  58.5471230  30.3277359  63.5670891  13.4952841
  30.6939106  64.1745148  12.8524923  29.6401386  64.0682220  13.9338121
  11.7650251  26.0184269   0.9852343  11.1757154  26.7325249   1.2281553
  12.4204617  26.0010433   1.6826099  56.7618217   4.7184644  73.2561951
  57.6066399   5.1546421  73.3669434  56.4780960   4.9658384  72.3761139
  61.4798851  53.3035736  83.5098267  61.2813911  52.4601822  83.9166718
  62.4222603  53.2739334  83.3446503  42.7275772   4.3351536  72.3059540
  42.1389198   4.5397983  73.0324783  43.3451538   5.0661697  72.2848740
  30.3627110   5.2350249  77.8739243  31.2629185   5.4429636  78.1241684
  30.4487152   4.7423520  77.0577698  15.6767149  63.5641823  59.6108551
  16.3091507  63.8052750  60.2877083  14.9731178  63.1229172  60.0867386
   4.2916589  56.7053452  58.3286018   4.8737097  56.0677376  58.7420082
   4.7594538  56.9807854  57.5402298  82.7428589  69.0042953  38.9541130
  82.1339035  69.5614395  39.4388847  82.1802902  68.4297714  38.4348145
  41.4947891  17.6526947  67.3483047  41.7494774  17.7224445  66.4282532
  42.1414490  17.0601006  67.7315750  72.2319412  15.8286953  33.1619720
  73.0510788  16.3196983  33.2265129  72.0837173  15.4928570  34.0459824
  54.1180382  13.4256744  21.7306690  54.9211197  13.7433805  22.1434097
  53.5307617  13.2374945  22.4627399  79.2541733  18.0250778  57.8115501
  78.9804382  18.9318295  57.9497566  80.0868988  18.0947838  57.3447151
  47.2760391  26.5250282  12.0198402  47.8754730  26.5481606  12.7657471
  47.4628563  25.6913471  11.5882063  27.5592880  12.9457216  12.9702215
  28.3214722  13.4043074  12.6166573  26.8831940  13.6201210  13.0359020
  78.2597504  21.4896431  69.2898865  77.9720917  20.9316444  70.0124664
  78.6220169  22.2661762  69.7164841  15.3946848  64.8320999  14.5330162
  15.2836475  65.7267838  14.8546429  15.0852604  64.8628845  13.6277313
  23.2681122  32.5767097   7.7373075  22.6301746  33.0057220   7.1670308
  23.2146244  31.6503582   7.5022736   2.0103562  26.2887974  15.0159988
   2.5907493  26.9212132  14.5924129   2.5917342  25.5841026  15.3017216
  84.8042068  52.4845467  81.1429062  85.6265640  52.9253426  81.3565979
  84.1594772  52.8842354  81.7266846  29.0105801  43.3207855  -0.0606430
  29.3503437  43.6932678   0.7530215  28.5839577  44.0559578  -0.5008090
   4.3206334   5.1102366   4.1707115   4.3997011   4.2170229   3.8358247
   3.5273168   5.0959392   4.7061329  19.3714161  42.2032700  79.9499893
  20.0645123  42.0881195  79.2999191  18.6525650  41.6564026  79.6330948
  38.0212898  46.2421379  28.4369488  38.2332230  46.9450340  29.0511589
  37.0849342  46.0883636  28.5627575  10.2089491  55.2104836  66.0111542
  10.4436512  55.3416023  66.9298248  10.0069113  56.0885048  65.6878967
  73.5189972  37.8221970   9.7896204  74.1783829  38.2927704   9.2797184
  72.6827927  38.1652527   9.4744864  62.7234955   6.2720695  50.5525627
  62.6199837   5.3360114  50.7237740  63.2027931   6.6029296  51.3121948
  10.0397968  60.3688927  38.4814301   9.4054375  61.0445023  38.7209549
   9.5550070  59.5471230  38.5582657   6.5265207  69.3935928  28.6030674
   5.6428404  69.4118271  28.2356339   6.7838092  70.3141632  28.6539135
  56.2675896  41.4417915  43.9901237  57.0649872  41.2225609  43.5081253
  55.5690575  41.3790092  43.3387032  72.2539673  50.5802193  86.1562424
  73.1642838  50.2853355  86.1806488  72.1759033  51.0478554  85.3246994
  65.8596344  16.9966869  65.2185669  65.8653870  16.0403404  65.1785660
  65.6138153  17.1971588  66.1216812  30.0924854  48.7714729  35.6996269
  30.8644485  48.8489952  36.2602425  29.5024395  48.1932755  36.1831169
  51.8700180  46.8311234  85.7237701  52.4257393  46.1799507  86.1519928
  50.9771233  46.5673180  85.9459763  59.0366058  11.1938429  63.5273857
  58.3014107  11.8013372  63.6090775  59.0991364  10.7765856  64.3865814
  75.5806351  67.6202164   4.4733739  75.3806534  66.9878311   5.1635451
  76.3763046  67.2824097   4.0622272  44.1681671  44.7692375  62.9477539
  43.4619942  44.2377052  62.5802956  44.4337387  44.3006897  63.7390594
   5.8684039  15.1144943   4.3188729   6.5110688  14.5382490   3.9051645
   5.4165411  14.5549355   4.9504948  77.4875565  15.5890703  37.6718140
  77.5485535  14.9588137  38.3896523  77.7229233  15.0869732  36.8916016
   7.7302890  40.3528099   4.0925150   7.9265995  40.0939217   4.9928880
   6.9449029  39.8547592   3.8659201  36.0396919  13.9312258  17.0423565
  36.6304855  14.1241388  17.7703514  36.2438812  13.0276976  16.8011589
  76.4740906  44.1935463  48.3545990  76.0199661  44.4935188  47.5671844
  77.0325546  43.4778709  48.0510330  13.3659286  62.8023987  20.7668571
  12.7893782  62.7691269  21.5302143  13.3386488  63.7169952  20.4857826
  10.7833605  28.6111717  11.2719011  11.1085987  29.4236393  10.8841515
  11.5383139  28.2476025  11.7346029  71.5243301  12.1218338  65.9415970
  71.6977234  11.9347630  65.0190048  70.6227493  12.4430733  65.9555054
  20.0494690  48.5083313   5.9007392  19.1140652  48.6678123   6.0265160
  20.4338512  49.3820076   5.8288441  69.4397278  47.5713425  17.6595173
  70.3659363  47.8124542  17.6748524  69.2075348  47.4538727  18.5806675
  43.4523659  53.2239304  29.6991882  42.8724747  52.8372154  29.0431328
  43.0351677  53.0217018  30.5366116  11.0269775   6.9923320  71.8271713
  10.8411102   6.7237139  70.9274368  11.3288708   6.1928244  72.2583084
  85.7722321  39.2043724  47.6189575  85.0902252  38.5327454  47.6230164
  85.4923172  39.8259010  46.9469604  61.4165344  67.2612534  30.3374367
  61.2699776  66.8963089  29.4647579  60.5436554  67.5068512  30.6440296
  59.3669205  35.0269547   4.3269758  58.7233238  35.3724098   4.9455829
  59.1173134  35.4067802   3.4845634  11.4924889  21.7102871  73.2636566
  10.6380396  21.8219490  72.8469086  11.2886562  21.4496574  74.1618500
  82.4519577   6.7839742  29.5772457  82.0949936   7.5360680  29.1048450
  83.2516632   6.5598044  29.1013756  83.9078979   1.9696047  32.8830070
  83.8720703   1.4181476  32.1014404  84.3627090   2.7616677  32.5966301
  80.0676117  22.9269371  88.0118637  79.5770721  22.1600323  87.7161407
  80.4612808  22.6544590  88.8407288   2.6337683  24.5819855  57.2667694
   1.8964306  24.1323795  56.8539505   3.0135229  23.9291553  57.8548431
  52.3935928  13.1370840  24.0509777  51.6356163  13.0667133  23.4706745
  52.0502090  12.9287472  24.9198341  28.6341000   5.7181721  11.1552753
  29.1620560   4.9363260  11.3171768  28.2983742   5.6006770  10.2666168
  55.3833656  56.4002762   8.9166508  54.5190964  56.2402802   9.2956963
  55.6718826  57.2209244   9.3160563  56.4261780  13.1760015  86.2317963
  55.6962624  12.6370144  85.9269180  56.4132576  13.0801830  87.1840973
  39.1172218  28.5183601  12.0895615  38.5917397  27.9336243  11.5434980
  38.8850365  29.3977318  11.7911863  86.3428040  36.9202385  76.3476105
  86.9668350  37.2055473  75.6802139  85.7071152  37.6338158  76.4017868
  36.5430450  64.8676300  68.2835693  37.0771179  64.1361008  67.9739456
  36.8159409  65.6090164  67.7431030  38.8738441  26.6462936  86.9010544
  38.4774818  27.5100002  87.0156784  39.8027420  26.7823544  87.0877838
  61.3919067  53.1340065  47.6942558  62.1895828  53.2641144  48.2071114
  61.1764069  52.2094879  47.8169479  59.4168358  65.0084457  54.3143768
  58.9450035  64.7564926  55.1081810  59.9544449  64.2452469  54.1028748
  69.1859970  27.4264126  32.9988403  69.9407959  27.4297466  32.4101944
  69.2880173  28.2204037  33.5236282  38.6464195  70.4189987  32.3742943
  38.7588730  70.7531204  33.2642097  37.9218407  70.9315414  32.0158005
  67.1267624  67.0490112  24.1025066  68.0828629  67.0940552  24.1111259
  66.8911819  66.7892914  24.9931679  12.7507362  65.0453720  52.6842537
  12.4065580  65.8405533  52.2774963  11.9768553  64.5956116  53.0234566
  41.5662880  65.0629272  78.9385757  42.4799461  65.2839890  78.7580566
  41.2142944  65.8380280  79.3762360   0.4581513  29.7867241  36.4992981
   0.7896887  28.8892117  36.4712143  -0.4294567  29.7253284  36.1462898
  71.2046967  54.3283920  17.8277626  71.4871674  53.4196663  17.7245426
  70.2814865  54.3224106  17.5750198  15.3378849  51.9370270  86.8562698
  15.1447086  52.8020477  86.4948120  14.6883659  51.8163834  87.5489502
  39.2152367  44.5604210   4.8737063  39.9199715  43.9126740   4.8745704
  38.4545021  44.0871391   5.2106361  40.7609825  60.0929260  59.6370926
  39.8697472  60.0402870  59.9822884  40.7561722  60.8706703  59.0791283
  38.1070862  18.3865814   0.5609614  38.8045731  17.8743954   0.9701165
  37.8057442  18.9760799   1.2522761  47.7927284  65.2862549  40.4352989
  47.3915176  65.0801163  41.2795525  48.1919136  64.4634933  40.1525574
  83.4551544  53.0848503  16.6362782  83.8137741  53.1599655  15.7519798
  84.2138443  53.1831551  17.2115650  80.9955521  10.5891314  19.0391178
  81.4175262  11.2765255  19.5545406  80.2658463  11.0299311  18.6038456
  10.7999096  13.8274422  11.6299973  11.2024651  14.4119053  10.9876699
  10.8211203  12.9649448  11.2154131  42.4746742  70.8681107   4.7782006
  42.6361275  71.6154861   5.3540497  41.5489998  70.9405594   4.5455842
   1.4554054  14.0865126  13.0696955   2.1110308  14.0483112  12.3733273
   1.4072951  15.0136576  13.3027620  62.4170380  21.5234127  39.0072861
  62.5843735  20.7263718  38.5043373  61.9097252  22.0783482  38.4149094
   9.1368713  33.8190575  51.3327751   8.2593203  33.4394188  51.2879219
   9.2817535  33.9778442  52.2655258  26.1760845  57.8166885  59.0879745
  26.6752567  58.5853653  58.8119431  26.4129467  57.1377449  58.4561806
   3.0812721  62.5000458  18.5853271   2.9177709  61.5743370  18.4048862
   3.8530214  62.7136192  18.0609016  62.8295250  67.3594360  26.6351871
  63.2302704  66.6177139  27.0884953  62.8407516  68.0679092  27.2787476
  51.2756882  39.9416161  47.0609894  50.6776657  39.9937706  47.8065643
  52.1322556  40.1654434  47.4248886  12.5938501  33.8488274  76.1788864
  11.7203989  33.5015106  76.3596725  12.9468002  33.2696915  75.5034103
   3.0974505  25.0816917  20.9737110   3.3464592  25.9580479  21.2673492
   2.1831942  25.1701107  20.7043629  32.1271667  52.0101929  45.4016266
  31.8820229  51.3919983  44.7131691  31.7503700  52.8438873  45.1201859
  70.0257874  65.7547836  61.2678757  69.4013596  65.9646988  61.9623184
  69.7604675  66.3068390  60.5322990  42.0655670  27.3381004  59.1674957
  41.6444359  26.8095875  58.4895935  41.3489227  27.8321171  59.5657387
  65.2811279  62.6924667  60.3486519  64.8321609  62.2038078  59.6588173
  65.3929291  63.5711441  59.9858017   7.9409385  19.3581562  75.7041397
   7.6823473  19.9323921  74.9832993   8.3253479  19.9471016  76.3534470
  42.1894341  49.4451561   1.0524927  41.6389732  50.2110329   0.8892293
  42.9203644  49.7816658   1.5708920  10.5174217  26.4806900  27.5258675
  10.7020617  25.6477242  27.9598103   9.8191252  26.8738518  28.0493546
   9.1990089   6.3480811  42.5811920   8.5300713   5.6634250  42.5818367
   9.3512115   6.5333581  41.6545105  25.7089729   1.1335717  85.2344971
  24.9039078   1.4225633  84.8048630  25.8525372   1.7748634  85.9304581
  37.7458229  56.2625694  86.4807892  37.5966606  56.6643028  85.6248779
  38.4478569  55.6297760  86.3292923   2.9989684  52.2957726  23.9385586
   2.8785613  51.6562767  23.2365742   3.5339301  51.8401070  24.5884933
   2.3881304  38.9023170  21.5326138   3.2656057  39.1777687  21.2672920
   1.8870846  38.8808136  20.7173080  45.6116219   5.0156603  60.7666550
  46.2471428   5.6347637  60.4074097  44.9307175   5.5675540  61.1513824
  64.1663437  26.7594242  69.1731491  63.2729378  26.8649406  68.8461533
  64.3307190  27.5536728  69.6814651  61.7690125  65.9407883  62.8336601
  62.0707893  65.7946396  63.7302094  60.9137917  65.5125351  62.7959938
   2.0657828  37.0276833  71.6484833   2.9960768  36.8030319  71.6662674
   1.8060522  36.9003868  70.7360306  50.4542999  43.4062653  58.3179588
  49.9797554  42.7867050  57.7637138  50.5750237  44.1783333  57.7651787
  14.8831434  49.6004639  20.8681545  15.2596865  49.0393562  21.5460968
  14.4743862  48.9915504  20.2530365  55.3280525   4.0589876  10.6886740
  54.4026146   3.8191743  10.7364702  55.4458199   4.7002110  11.3895273
  53.2252274  21.2928829  86.0673065  53.8249855  21.1577263  86.8009644
  53.7956009  21.4963913  85.3260345  67.0779648  58.5292473   5.4207582
  67.4817429  58.8779984   6.2154703  66.3702393  57.9682808   5.7380357
  54.4940910  29.5215607  12.6142988  53.8806839  30.1770763  12.9463568
  54.2143478  28.7027302  13.0235577   4.8035488  39.7592468  14.9422808
   4.4833751  38.8706436  14.7870159   5.1122627  39.7477112  15.8482580
   5.5576844   1.4075935  40.0112572   4.6707134   1.3574178  40.3676224
   6.1041703   0.9747016  40.6671448  28.5326805  41.7865791  66.4331284
  27.6023617  42.0086861  66.4706497  28.8838005  42.0832253  67.2727356
  69.2473679  45.0522423  76.4833832  69.8310852  45.8096123  76.4398575
  69.0431442  44.8544121  75.5693817  58.9547882  56.5216255  80.7806778
  58.4721413  56.5116577  81.6072311  59.8119240  56.1559677  80.9994049
  49.8786087  66.9704132  30.0265503  49.0508842  67.2393570  29.6280823
  49.7776871  67.1822739  30.9545383  59.2091599  34.8178825  78.3413925
  58.8948860  34.1442146  78.9444199  59.8528366  34.3680115  77.7940979
  40.3603554  69.5987320  63.9168777  40.9457550  70.1211700  64.4651413
  39.7596207  70.2368927  63.5320435  82.3089218  13.7463722  15.1822586
  82.8664474  14.4687786  14.8932419  82.0191193  14.0029202  16.0577202
   6.9673710  19.2483921  85.7788849   7.1994090  18.6275940  85.0882339
   6.3411312  18.7746487  86.3262634  63.9489746  35.1128883  60.7965469
  64.1884155  35.3399162  61.6950760  64.3532104  35.7956696  60.2611580
  31.3621216  14.2540569  80.8648224  31.0120087  13.8385773  80.0767670
  32.1387939  14.7248144  80.5625000  38.9226761  38.2093735  30.8408985
  38.1511917  37.6448021  30.8888988  39.6638336  37.6102676  30.9303017
  60.7922440  61.2826309   0.6638094  61.0501175  60.3618240   0.7068433
  60.3390312  61.3654747  -0.1752180  69.4593887  27.9189720  71.0625153
  69.1330261  27.2587032  71.6738739  69.2614975  27.5622368  70.1965942
  82.6331406  71.2196808  41.4823723  83.4755859  71.0893936  41.9177399
  82.8588104  71.5963211  40.6318169  54.8394241  33.1422577  84.6386108
  55.1208611  34.0379715  84.4522858  55.6545372  32.6469345  84.7190857
  79.6618500  33.5095711  63.1551208  79.6863327  34.2791290  63.7238121
  78.7455673  33.2329178  63.1658020  37.8118057  37.0456123  71.0379486
  38.6906242  36.8535156  71.3650589  37.4277725  37.6160393  71.7038040
  83.8450775  58.5527687  12.9141655  83.5460129  59.1605377  12.2378445
  83.6851959  59.0134583  13.7378378  13.3780842  71.6831131   6.8945160
  13.8780289  72.1209030   6.2055821  13.4498482  70.7513733   6.6872911
  11.1851368   0.0647508  25.1333466  11.4387636   0.8329585  25.6449738
  11.8903751  -0.5652468  25.2815819  85.5962753  51.3860588  22.3741970
  86.0436096  51.1825790  21.5527840  85.7622452  52.3185310  22.5126991
  31.5487347  70.6864700  40.6029472  31.9497852  71.4746628  40.2366867
  30.8810940  70.4381866  39.9635353  19.9308262  14.5098114  45.6990280
  20.1565361  13.5852690  45.8015366  20.4902954  14.8151894  44.9849091
  71.1466675  44.5660057  50.4789925  70.7162781  43.8935738  49.9509430
  70.9741135  45.3837852  50.0124168  13.0137014  54.2120171  42.1774864
  13.7717209  54.7169533  41.8830795  12.2587872  54.6963539  41.8431931
  37.5974007  64.3694458  13.9525080  37.8756676  63.4661293  14.1035862
  37.3021011  64.6756821  14.8099718  53.3634796  64.7826385  71.9775238
  52.8231468  63.9960442  71.9030609  54.0189934  64.5611877  72.6389542
  54.0187683  45.9595680  71.5172806  54.0759583  46.7291718  70.9510040
  54.6519089  46.1280937  72.2151108  57.5892067  26.5918674  40.3410339
  57.5173683  26.7006474  39.3927536  57.6840096  25.6477814  40.4673195
  59.2933960  19.7804775  88.9761963  58.7176247  19.7997551  88.2117691
  59.7871666  20.5988808  88.9248352  11.9269009  45.4139328  68.1437607
  12.5574560  45.3066597  67.4316330  11.5258389  44.5502281  68.2406845
  48.3859787  69.6496735  58.8084564  48.7392578  70.3578568  59.3468857
  48.1963844  68.9474487  59.4306755  58.1905251  52.5688057  18.1699467
  58.7912941  52.6459198  18.9111366  58.7610664  52.5274239  17.4024849
  42.4321022  33.2249718  14.2196894  42.9111748  32.5921745  13.6846333
  41.6275101  33.3929291  13.7291231  83.9323196  51.8424110  41.4589043
  83.1891327  51.2432060  41.5285721  84.6805496  51.3332367  41.7705536
  70.9552155  33.1911964  16.2412720  70.9159927  32.4229851  16.8109589
  71.3500748  33.8727760  16.7851200  27.5965061  28.2931480  10.4402790
  26.6705914  28.3788414  10.2131891  27.6735973  28.7165337  11.2952843
  67.1279907  70.8864746  32.9794273  67.5258331  70.6232376  32.1495705
  67.7144699  71.5604019  33.3230820  81.9987411  52.7686882  46.3949165
  82.1555557  53.2258835  47.2211227  81.1085968  52.4261703  46.4759178
  56.1060410  39.2584152  45.6041527  55.9205513  40.1443863  45.2929001
  56.6393280  38.8680420  44.9117317  62.8797112  71.5478973  71.7893982
  62.8553848  71.3701324  70.8491669  63.8028679  71.4588089  72.0261993
  23.6271915   8.0609112   2.2349787  24.3037815   7.4277906   2.4750137
  23.0697556   8.1214352   3.0107577   4.6095691  35.8016739  75.0920868
   3.7974832  35.7411346  75.5951614   4.9684162  36.6595955  75.3188782
   4.7822156  15.1636763  74.1715469   5.5113449  15.7838011  74.1784897
   5.1996160  14.3037729  74.1208115  30.3000908  63.6206512  47.4834900
  31.1784248  63.8949585  47.2198219  30.4454880  63.0286942  48.2215118
  79.4117889   2.0486908  47.1825562  78.5775452   2.0276766  46.7136993
  79.9912643   2.5597847  46.6175575  45.9111786  65.3662949   8.2890987
  45.2606277  64.7577515   7.9388270  46.5096016  64.8138351   8.7919989
   6.0609279  37.8465118  58.4074898   6.6354218  38.3939323  58.9427643
   6.0678973  36.9942894  58.8432655  70.2984848  61.5947456  22.7698002
  70.8331070  61.1798668  23.4467678  70.8077011  61.4917412  21.9658642
  67.8600082  16.2019806  45.6119118  68.1123199  15.2787952  45.6292763
  68.6288300  16.6538944  45.2641754  49.3807945  66.1509781   7.9838190
  48.9517822  66.1545639   8.8394852  49.6283836  65.2370071   7.8438487
  52.2060852  10.2646685  49.9932327  52.8317261  10.9863720  49.9303894
  52.4395332   9.6817217  49.2708015  63.1955376  28.8010330  16.0990562
  63.9691658  28.8228645  16.6623116  62.7645836  29.6420555  16.2513428
  43.1707077  47.6245117  67.6188126  43.2509499  46.7208252  67.9240112
  43.1199074  48.1445503  68.4208145   6.5604491  64.3751755  87.0609589
   7.0688162  63.5932961  87.2765198   6.9937229  65.0820007  87.5393906
  82.2379227  18.0488739  47.8053360  81.4161301  18.4302311  48.1143074
  82.0530624  17.7779140  46.9060898   4.6877041  53.3019371  87.9150696
   5.4432597  53.8843422  87.9936523   5.0487561  52.4869652  87.5662231
  71.9712830  26.4448051  43.7605476  71.5831375  26.8006382  44.5598946
  71.3795242  25.7387314  43.5007019  22.0321732  28.9628983  13.7819300
  22.5542870  28.4373970  14.3881302  21.1287270  28.6944904  13.9491901
  36.1565704  43.7982292  61.5418930  35.7909431  42.9148102  61.5878983
  35.7943077  44.2474480  62.3055725  82.9472885   9.5851479  30.7618484
  82.7087784  10.4283342  30.3766422  83.6414337   9.7950239  31.3866253
  23.7979298  62.6932793  77.5161896  24.5561581  62.4751740  78.0581741
  24.1391907  63.3014221  76.8604965  22.7979298  47.4902611  71.2486420
  21.9269962  47.5381737  71.6428680  22.6967602  46.8805809  70.5176926
  65.6324997  33.2951126  76.6967392  66.2797012  33.3940620  77.3950043
  65.2618256  34.1708870  76.5878754   5.7947030  58.2699471   2.2570331
   4.8442249  58.2632980   2.3700778   5.9436622  57.7736130   1.4522377
  17.2155609  28.8081036  12.8624439  17.5235577  29.5697803  13.3535843
  16.9913406  28.1644325  13.5344887   9.7756624  65.6440430  70.1058807
  10.5698538  65.3790207  69.6419296   9.5380173  64.8792191  70.6301041
  10.8871365   4.8076167  20.0214043  10.5264711   5.6211200  20.3740597
  11.4410658   4.4669075  20.7237663  62.2077713  31.2224293  16.9351997
  62.1440735  31.6153355  16.0646820  61.3002739  31.1428699  17.2290535
  41.7988701  59.2885284  16.1201572  41.1623039  59.1616325  15.4166565
  41.5201149  60.0956535  16.5526848   1.9765961  55.7276192   1.6172037
   1.4196756  55.1990738   1.0456172   1.6060829  55.6063766   2.4914188
  32.3683662  18.4662895   6.9844418  32.2983208  18.0745945   6.1138678
  32.0936737  17.7713051   7.5825815  66.0553894   7.4247293  66.6575089
  65.4361038   7.1211166  65.9937744  65.7793045   6.9850254  67.4616623
  54.3432159   1.7522134  39.1709137  54.0682831   1.1691465  39.8784981
  54.1090965   1.2835867  38.3697815  56.9197998  58.8587799  43.2269821
  56.2467918  59.1740761  43.8302078  56.7527199  59.3331642  42.4125633
  33.4611702  45.3645477  24.0161648  33.9283371  45.9290352  23.4002571
  34.0983315  44.6911621  24.2545147  47.1149673  48.1724014  74.4454041
  47.4324760  47.9461594  75.3196106  46.4484100  48.8420868  74.5985565
  22.6582203  59.1365700  15.4840231  23.1056137  58.2906418  15.4621267
  23.3294678  59.7692146  15.2282524  71.1485596  71.9375381  56.8999252
  71.7430191  71.4927368  57.5040779  70.6254883  71.2334137  56.5167313
  67.1801300  34.4275818  66.4360046  67.0158234  33.4883995  66.5206757
  67.5329285  34.5302811  65.5521393  85.5269928  55.7246666  62.9110146
  84.5996552  55.8232040  62.6952209  85.6829453  56.3719063  63.5987587
  52.6614304  27.4971752  84.2287064  53.3591118  28.0551929  83.8850708
  51.8647995  28.0171947  84.1229248  44.9302979  66.2348862  48.9289246
  45.6839256  65.6450272  48.9105339  44.1743927  65.6549149  49.0209808
   7.0131383  41.6109505  11.8359613   6.0999837  41.8976135  11.8216743
   7.0128407  40.8384171  12.4011383  65.8654480  46.0839577  11.3107843
  65.4977493  46.9452209  11.5089016  65.1163864  45.5655937  11.0167894
  60.8653526  65.2792206   6.4087539  60.0041618  65.5491180   6.0897903
  60.7056160  64.4477310   6.8552260  35.4931374   1.8410203  33.3648224
  34.9375420   1.6978744  34.1310196  35.1338501   2.6262136  32.9517670
  81.3143692  53.1725159  32.4613190  80.8159943  52.9340897  31.6796494
  81.6500702  52.3403053  32.7944221  69.1600647  32.0620346  84.0634613
  68.4100952  32.5859222  83.7818298  69.1798477  32.1642647  85.0149841
  85.2224579  16.4300766  18.5179329  85.0309830  15.5232191  18.2788124
  86.1318893  16.5615654  18.2498188  55.5533981  58.9630737  72.1083145
  55.9276085  58.6488571  72.9313965  55.9327011  58.3928032  71.4396210
   8.5648823  41.5955544  59.1554375   8.1408262  41.3237572  58.3414726
   9.2259598  42.2308807  58.8805428  67.8751373  65.6433640  11.3537560
  66.9265823  65.7217560  11.4553461  68.1173630  66.3788834  10.7911100
  82.9516525  18.4635811  88.0660248  83.8604355  18.3575706  88.3472672
  82.8997116  19.3690529  87.7599869   5.5243092  50.3280754  21.3105202
   5.3658128  49.4327202  21.0114326   5.5546031  50.2599907  22.2648144
  78.4956589  44.4353142  83.4260635  79.2479172  44.9206123  83.7649231
  78.0151520  44.1620789  84.2075272  48.2792130  43.2508049   5.9856172
  47.7823486  43.7817078   6.6081128  48.8859596  43.8673553   5.5757895
  63.6051559  58.2019844  22.0068913  63.6012573  58.1812859  21.0499229
  62.7106323  57.9687042  22.2551498  40.0889130  36.9284439   5.7810044
  41.0277939  37.0149193   5.6159091  39.7603264  37.8274307   5.7718945
  30.9850769  56.2955513  73.7584763  31.6001320  55.5672607  73.8452530
  31.0872402  56.7932816  74.5696869  68.4783325  19.4735126  84.5234680
  68.1511154  19.4773102  85.4229965  68.9036484  18.6214485  84.4269104
  22.9542446  44.7019539  75.1633682  23.6750393  44.0930786  75.0022507
  22.5914955  44.4263000  76.0051880   1.5957586  63.2238235  40.2819633
   1.7609009  63.9201279  40.9176674   1.2496133  62.5000381  40.8040276
  15.4440928  68.2883606   3.6095557  15.3447208  67.9113617   2.7353537
  15.0989857  69.1774216   3.5276318  49.8721657  10.9638529  35.3823967
  49.6850166  11.8199091  34.9972038  49.1357574  10.4143391  35.1141281
  58.1898842  57.6772041  71.6553268  58.3253632  57.1651039  72.4525909
  58.3343010  57.0542412  70.9430847  54.7338142  33.1259346  36.3468437
  54.8805084  32.3513145  36.8896828  54.5457344  32.7759933  35.4759789
  11.9446764  53.6707268   6.9873476  11.3672028  53.3567162   7.6831574
  11.3759527  53.7496529   6.2214775  54.4235344   4.9205685  49.3695564
  54.5140038   5.8569479  49.5463066  55.0371017   4.5024247  49.9736481
  74.7079163  59.6707687  80.1733475  75.3851929  60.3430824  80.2476959
  73.9375839  60.1410408  79.8545074  19.0768509  48.1569138  36.6322975
  18.2584915  48.0967674  36.1394463  19.1483173  47.3147316  37.0815773
   9.8431301  57.4472084  28.2748089  10.2594938  57.3438797  29.1304932
   9.2736263  58.2098618  28.3760910  23.0891457  35.8546295  52.9891586
  23.2955532  36.7892876  52.9828873  22.6692238  35.6963997  52.1436653
  86.3056793  53.3844109  25.2331581  85.3579483  53.2769852  25.1525822
  86.5961151  53.6176491  24.3514099  11.7533836  56.5422821  26.5099640
  12.1787376  55.6849174  26.5252151  11.0790768  56.4871941  27.1870956
  60.7898788  43.1974754  57.3868484  61.4078217  42.5100327  57.1382446
  59.9337502  42.8536415  57.1317902  39.1457367  27.2711792  73.3634949
  38.7579536  28.1437435  73.2964935  38.3958740  26.6765060  73.3807449
  77.4597244  41.7831650  57.5243378  78.0513535  42.5261307  57.4051514
  76.8264389  41.8644791  56.8111916   5.1196923   2.0157893  81.8408203
   4.8456635   2.2437303  80.9524612   6.0606699   2.1908078  81.8535385
  50.8877640  48.4495583  82.5211716  51.7247505  48.0618973  82.2654419
  50.3688965  48.4513130  81.7168045  44.3364220  68.8584442  14.6809368
  43.9246559  69.7153625  14.5697374  44.1142044  68.6002045  15.5754557
  24.8403168   6.6190400  15.3320684  25.0689316   7.5485082  15.3245468
  24.3580818   6.4843922  14.5162554  62.0588188   5.4809642  77.8834152
  62.3946266   5.3683591  78.7726746  61.7838783   6.3970418  77.8454285
  63.6583977  41.6278839  58.8141594  63.0085640  41.3318062  58.1767540
  63.6352119  42.5829010  58.7538643  29.0737972  55.1404037  58.2333832
  28.4024754  54.5631180  57.8696518  28.9301262  55.1086769  59.1792068
  30.9451103  30.5771866  73.5430222  31.0462742  29.6438217  73.7296448
  30.0000153  30.7035885  73.4590378  75.6960373  56.1597862  58.2718430
  76.2900467  56.4266891  58.9733734  75.9776993  56.6699257  57.5124626
  15.0980511  62.0832176  50.2129974  14.6003208  62.2394142  51.0155563
  14.4530497  61.7413673  49.5938530  75.4184647   0.1527439  11.9029894
  75.5214615   0.9260560  12.4576168  75.0525436  -0.5128044  12.4855528
  36.7791252  36.7251549  24.6158104  36.0530663  36.9400978  25.2013607
  37.1329460  35.9065285  24.9635010  51.7439079  71.8231354   7.5448666
  50.8506012  71.8766327   7.2052016  51.7876091  70.9666367   7.9699898
  54.6013069  42.1363754  65.8898468  55.2604027  42.3410149  65.2265549
  54.2534218  41.2842789  65.6269073  34.9835739  40.0561142  15.5599194
  34.6809006  40.8953743  15.9067087  35.7094994  39.8081665  16.1324463
  25.9561005  24.8901348  66.3636703  25.9670200  25.7047920  65.8612366
  26.8755684  24.6295071  66.4173737   8.4681988  57.5386925  22.4967136
   7.9357305  56.8378334  22.1205368   8.0430794  57.7415314  23.3299961
  33.5948563  54.4916115  57.3434258  34.1501274  54.0091248  56.7309608
  34.0989380  55.2770729  57.5559921  52.8028946  30.9658375   4.3896222
  52.2706757  31.6707172   4.7585607  52.3805237  30.1625023   4.6937366
  11.6384563  37.7272530  20.8933277  10.7591066  37.8716278  20.5438538
  12.2056322  38.2713699  20.3469944  75.2835922  24.8965092   8.1767845
  75.8405380  25.6735973   8.1300726  74.6351776  25.0245857   7.4844093
  15.8497858  26.9822865  51.1514587  16.7012329  26.8289528  50.7418709
  15.2734127  26.3269138  50.7583733  37.7929955  22.4281502   1.1486346
  37.6480064  22.3825188   2.0936887  38.6475258  22.8497047   1.0575017
  49.5531120  14.2554283  47.7721062  48.6580696  14.1416073  48.0917511
  49.8511238  13.3678007  47.5732651  39.3522568  62.0674324  54.0844040
  38.9476509  61.3217850  53.6410751  38.7052345  62.7691002  54.0118904
  60.8025513   8.7429457  17.2019424  59.9963036   8.3586273  17.5461693
  61.1536636   9.2552605  17.9302883   5.7903981  60.0732384  75.7202225
   5.4522491  59.1825333  75.6278610   5.1777625  60.6148109  75.2226105
  15.7213297  57.5179710  27.5852890  15.3828421  57.0228119  26.8393173
  16.6727047  57.4443893  27.5097713  82.8890076   0.3579859  74.1304626
  82.6666641  -0.5069297  74.4750214  83.7005920   0.2198770  73.6421127
  36.5247421  39.2309189  32.7011490  36.8585205  38.4142189  32.3298988
  36.3969727  39.0372772  33.6298065  45.1618462  20.0116405  22.1627254
  45.7600632  19.8441696  21.4344940  45.2745552  20.9423027  22.3561058
  64.2881241  42.2032089  54.7178612  64.4596558  42.9120674  55.3377991
  64.6195068  42.5308228  53.8817482  33.8928375  65.4606476  12.5210953
  34.1877632  66.2757950  12.1151485  33.0560646  65.2708511  12.0968103
   8.7472754  45.1441078  33.9352875   8.7665339  46.1009865  33.9197617
   8.0951614  44.9284592  34.6019783  78.5008240  13.1650229  79.5967636
  77.5568008  13.0251236  79.6707687  78.6442947  14.0339928  79.9716492
  44.6597137  61.2591858   5.4644575  45.5728378  61.3553925   5.1939449
  44.6280251  60.4086990   5.9025221  40.0507851  49.4603081  23.6325722
  40.6258545  50.2173615  23.7439251  39.1705208  49.8332062  23.5844898
  21.1723099  53.6657944  23.9595070  21.6088295  54.3770409  24.4283447
  21.8657551  53.2616920  23.4379044  26.6661854  37.9546852  28.4430294
  25.8432484  37.6699448  28.8404369  27.3436584  37.6287956  29.0355301
  43.4561043  23.7808514   0.6087363  44.2502556  24.2583256   0.3687903
  43.3745422  23.1004906  -0.0596103  26.2532883  22.9513454  39.3352509
  26.7206650  22.7235870  40.1389427  26.9216022  22.9147339  38.6509666
  23.9550514  27.1639385  72.4371567  23.1856575  26.7109280  72.0921249
  23.9023800  27.0378971  73.3845520  85.1642380  69.1344757  64.6325073
  85.7199326  69.3523483  63.8841972  85.5454254  68.3317337  64.9882278
  41.5451736  38.3936653  80.0581589  42.1171379  37.7953758  80.5389252
  40.6978416  37.9489555  80.0359421  85.5897598  34.4856567  12.1244364
  86.3361511  34.3363571  12.7048206  85.9785309  34.8154068  11.3142796
  59.4314537  46.8975830  33.3147507  60.0984879  47.5368233  33.5650940
  58.7137413  47.4251137  32.9642677  27.9505272  40.4479599  80.3938980
  28.0880146  40.8292809  81.2610321  28.7395649  40.6779900  79.9032440
   7.4011388  13.3802567  16.7821636   7.0952768  14.1155777  17.3131847
   7.1961627  12.6053638  17.3053818  76.7182617   4.9497066  24.0080776
  76.5508347   5.2716632  24.8938217  75.8676071   4.6340146  23.7031994
  63.8552322  53.1654892   4.2486777  64.4902115  52.5110741   4.5398464
  64.3307114  53.6908340   3.6051204  34.4062691  50.6073723  49.9860687
  33.6375389  50.5387535  50.5522614  34.0464325  50.7104988  49.1050949
  61.6337433  17.7967339  80.3692169  61.8125572  17.3679104  81.2060928
  61.0832329  17.1743736  79.8939896  43.1181679  51.7674789  80.6191711
  42.7811623  51.5895615  81.4972382  42.9561043  50.9595261  80.1321564
   3.7142737  46.9113579   0.5059431   4.6062317  47.1560898   0.2594676
   3.8228538  46.1423645   1.0654887   4.9830179   1.1280221  15.5021973
   4.4639864   0.3242859  15.4731016   5.5981550   1.0423937  14.7738390
  64.6104355  33.0690536  40.8051453  65.3181763  32.4541512  40.6121902
  65.0154266  33.9327660  40.7263298  52.9129448  34.7058182  48.9128990
  52.1429710  34.5314789  48.3716240  52.9269066  35.6579895  49.0099068
   1.6340750  47.2401619  87.9274445   1.6318467  47.9406281  87.2750854
   2.4606194  47.3527069  88.3969040  39.8748779   3.6048150  87.1413422
  40.2608719   2.7320197  87.0673904  40.2298508   3.9552581  87.9582977
  20.4093342  67.8490906  16.5471916  21.1396637  67.2455063  16.4110451
  20.3286114  67.9166565  17.4985867  57.4083824  33.9670906   9.9687538
  56.7535515  33.7279549  10.6246824  57.7052727  33.1305275   9.6106367
  68.0764084  20.7796650  37.3521576  68.3467636  21.2971497  36.5936394
  67.1703033  20.5348148  37.1643982  58.8968201  68.1240921  49.4582939
  59.4629440  68.0434647  48.6906776  58.7766609  69.0672150  49.5692825
  32.4923668  48.3324089  87.5124359  32.8741646  47.8229179  88.2271957
  31.5858765  48.4808006  87.7816772   1.7679332  27.5766449  38.3910751
   2.6575809  27.2243462  38.4164619   1.3493232  27.1178112  37.6627426
  57.2344398  43.6877975  61.7294960  57.3009148  44.6403999  61.7955399
  56.7737961  43.4240494  62.5260353   8.7372561  45.0385017  15.0196447
   9.3165398  44.3550873  15.3567028   9.3012724  45.5794411  14.4669237
  53.8028717   4.0270634  42.0247345  54.6902199   3.8848162  42.3542976
  53.2346840   3.7992809  42.7606087  17.2379913  53.3619499  62.9962540
  16.3268776  53.2233543  63.2548981  17.6812496  53.6139488  63.8063469
  15.8761902  24.7668171   8.6027422  15.1977386  24.8318443   9.2748337
  15.6863489  25.4861031   8.0003967  62.5801392  26.6927738  78.3332443
  62.6563148  26.4162674  77.4200211  62.9423790  25.9628754  78.8355026
  38.5671692  16.0272198  87.4090347  38.5027924  16.9348850  87.1119919
  38.0786476  16.0093079  88.2319870  53.1882133  61.4600792  49.5747604
  53.0960922  60.8621101  48.8330193  52.4064026  62.0110397  49.5367775
  77.9745178  44.6724281  16.5882225  78.0044632  43.7230034  16.7062302
  78.1244583  44.8022385  15.6517925   0.0827327  46.2069054  55.7952766
  -0.7773254  46.4226189  55.4347229   0.7045283  46.5552750  55.1563416
  77.2586441  61.7853432  42.4443779  76.7947845  61.1961517  41.8494682
  76.6656952  61.8899422  43.1884918  73.3248749  65.2192230  18.8783150
  73.8128510  65.0100555  19.6747799  72.4111710  65.0456161  19.1046867
  54.1201210  29.1027927  87.4351196  53.9298401  29.4962692  86.5835342
  53.5082130  28.3698044  87.5023880  17.5084114  46.4333916  76.3488235
  16.6322632  46.1403503  76.5992661  17.9934807  45.6247864  76.1842194
  77.2771759  37.3567810  19.8679161  77.6420975  36.5233383  20.1653004
  77.6401825  38.0058365  20.4705639  15.4772911   2.3022296  76.7146378
  15.0895557   1.5536091  77.1679153  16.2864170   1.9595447  76.3350143
  43.6556816  42.2254181  34.6488953  43.2105103  42.9697456  34.2438927
  44.3911324  42.6146851  35.1219864  40.8620415  61.9024239  17.2958908
  41.5731239  62.2849960  17.8099289  40.1616135  62.5537033  17.3340969
  85.6371918  19.4449024  61.1011276  86.4515076  19.2989769  61.5826187
  85.3685837  20.3299866  61.3475113   1.1145678  65.5268784  82.4500427
   0.8179526  66.2594986  82.9899673   1.4516218  65.9373093  81.6536865
  59.9215088  12.3205786  30.6869640  59.5208588  12.0706778  31.5195885
  59.9617577  13.2764320  30.7178707  73.0123901  68.1220093  11.8537636
  72.1443863  67.7404709  11.9850206  72.8520050  69.0629044  11.7814884
  55.7648010  48.8155136  82.1247253  56.6246223  48.3990440  82.1837997
  55.3368111  48.5999260  82.9533234  51.3764763   7.0833917  73.4714355
  50.7176285   7.7776332  73.4580841  51.5077705   6.8956304  74.4008102
  25.9986439  13.8360252  74.8269424  26.6677303  14.1681767  74.2284241
  25.2408180  14.4010572  74.6763840  32.1088066  31.4236984  71.1555328
  32.8539810  31.9785004  71.3860550  31.8292198  31.0405312  71.9869385
  81.7190628  67.8472443  24.3038597  81.0589294  67.5651398  24.9370079
  82.1241913  68.6153946  24.7064152  27.4610481   5.4902916  24.7358551
  28.3841419   5.6173115  24.5167789  27.4012413   5.7195506  25.6632690
  32.1182442  57.2937088  34.9616661  32.4594574  56.4320679  35.2012100
  31.6891022  57.6107712  35.7563629  82.8208466  36.7904968  34.6253090
  83.3075867  37.3896904  34.0593796  81.9504166  37.1822929  34.6966133
  37.7635803  27.7604179  79.3067856  37.8366814  28.3759136  80.0362015
  38.4574165  27.1198826  79.4634399  49.7593536  49.1599121  61.1893692
  49.8068428  49.8991318  60.5831261  49.1851120  49.4633255  61.8925209
  41.7717361  41.2285728  19.8098812  42.6207161  41.4590683  19.4326115
  41.5990105  41.9185638  20.4504356  48.8634148  52.2698364  32.3775864
  48.7256165  52.9318504  31.7001057  48.4587860  52.6414604  33.1614265
  40.3510208  41.6787872  88.7053986  40.9008141  41.9083023  89.4545822
  40.4732971  40.7354507  88.5986404  77.0393143  66.6072845   0.7521647
  77.5141373  67.4181061   0.9347633  77.2430954  66.0380783   1.4942623
  55.3990402  11.6609974  71.8700409  54.9767761  12.0744085  71.1170349
  55.4604034  10.7358561  71.6321716  85.9956894  45.0666008  27.3039455
  85.1309738  44.6575394  27.3381767  85.9119110  45.8496819  27.8480034
  59.1480370  52.0195427  51.6539154  58.5415916  52.6036835  52.1091499
  59.4340858  52.5197182  50.8895645  68.0983353  25.1078014  83.4760284
  67.9401474  26.0095100  83.7555542  67.8237381  25.0895729  82.5592422
  11.4651041  45.3109131  37.4266777  11.2282476  44.6540718  36.7719345
  10.9424992  46.0788193  37.1955223  76.8033676  65.5959625  82.7407837
  76.1791992  65.5075684  83.4610901  76.2771072  65.9084549  82.0048294
  64.4132309  15.0374861  43.7725563  64.9394913  15.3733454  43.0469704
  64.7210388  15.5242710  44.5370979  34.4053993  30.8429184  16.4453716
  33.7159386  30.4907131  17.0082474  35.0459938  31.2117500  17.0535126
  75.1639786   0.3889249   8.9251375  75.6231689  -0.2962357   8.4394064
  75.1094666   0.0527991   9.8197212  56.3388252  37.6312027  13.8554964
  56.4065285  37.3334770  14.7626944  56.1739655  36.8332291  13.3532085
  59.8246918  58.6595840  30.2629642  60.1283951  57.8106499  30.5843811
  60.3723450  59.2983551  30.7193413  19.2317448  33.9987717   8.2816668
  20.1270924  33.7773743   8.5377283  19.3282127  34.7550926   7.7029576
  15.2912455  48.0387039  38.1163788  15.5847645  47.8238373  39.0017662
  14.4148941  47.6584969  38.0556984  38.4607582  69.1256943  12.1983242
  37.8666992  68.4734039  12.5695848  39.1347961  68.6108093  11.7547035
  47.0871849  56.8514023  70.6156921  46.6988869  56.5869026  71.4496536
  47.3371201  56.0281868  70.1960678  22.6985760  49.6844559  21.2778149
  23.2836514  49.7265739  22.0342159  21.8190861  49.6754684  21.6555042
  20.7062130  10.1415129  77.2296295  20.9297943   9.2533312  76.9514694
  20.8192005  10.1304131  78.1800766  24.6535263  25.6517982  14.8574400
  23.7726402  25.8077526  14.5169258  24.5415497  24.9504719  15.4991846
  25.9201927  52.7867661  73.2678909  25.7845135  52.1533279  73.9725723
  26.6865826  52.4601440  72.7965164   3.5610359   3.1529455   9.1690245
   3.6787286   2.2503321   9.4651155   4.1060152   3.6720147   9.7604609
  69.8321609  18.1916943  32.9989510  69.3919983  18.1638851  32.1494141
  70.4417877  17.4540577  32.9771042  53.3587151  23.9520149  18.3335114
  53.7521782  24.2824726  19.1411114  52.8190155  23.2132378  18.6148701
  75.7784882   6.4081001  20.6714954  76.6917419   6.6553168  20.8166809
  75.3141708   7.2415423  20.5939388  79.8510513  61.7339096  56.5025940
  79.5446548  61.2046204  55.7662468  80.0255280  62.5948944  56.1224632
  57.7079926  47.8775902  31.0628910  56.8561783  48.0008965  31.4817467
  57.5084915  47.4262352  30.2427006   1.8976258  33.4685822  50.3553963
   2.2656004  32.8050385  49.7718430   0.9639150  33.4813004  50.1450310
  61.6096039  41.5055847   1.6087984  60.7667770  41.0700493   1.4815737
  62.2596664  40.8251610   1.4336463  51.7851601  25.0291271  47.0877876
  52.0050888  24.5488949  47.8860588  52.2878494  25.8412704  47.1506729
  73.4338303  34.7261543  10.1612816  72.5748672  34.7259827   9.7388992
  73.6775513  35.6506233  10.2080498  50.5216789  56.7435570  16.7602921
  50.5870514  57.1347427  15.8891239  51.4182167  56.4860497  16.9751034
  23.7065945  69.9562912  70.8117218  24.5991879  69.7674713  70.5221329
  23.7452316  70.8561325  71.1357803  63.7348404  69.7959290  52.8461113
  62.8372002  69.4720001  52.7716675  64.2766647  69.0071259  52.8247986
  58.1509781  60.4251938  71.8156052  57.5043983  60.5464516  71.1202850
  58.3271828  59.4843559  71.8173981  31.0079422  53.4471931  78.8114624
  31.9006004  53.4627838  78.4662781  30.8658104  52.5357246  79.0669098
  51.6798210  47.6797371  67.2120819  52.5536270  47.4767723  66.8781662
  51.1437187  47.7926064  66.4271698  63.9720917   2.3228021  42.8802948
  64.3378067   2.9023931  43.5485458  63.8819656   1.4772966  43.3198738
  43.8265381  54.0765038   6.1426482  44.4506950  53.9999847   5.4209795
  43.6177444  53.1718826   6.3756657  62.3697777  32.0042992  31.7832317
  62.0409851  32.4265938  32.5768280  61.6174507  31.9873390  31.1916695
  45.1815643  49.8473015  33.3847542  45.3426247  50.7798042  33.2407684
  44.3116531  49.6947136  33.0157013  49.3829346  18.6055756  63.9210472
  48.9756660  18.3738613  63.0863762  48.6875458  18.4867744  64.5680084
  78.5667572  42.1703224  70.7710876  77.7353516  41.6981468  70.7257919
  79.0674896  41.7095909  71.4443054   5.4711761   8.3264742  26.1511307
   6.3588166   8.0531158  26.3826485   5.4797397   9.2783165  26.2519073
  47.2434387  20.7422009  12.6427555  47.2526321  21.5655975  13.1307774
  46.7127190  20.1523609  13.1781607  42.6392708  56.7381439  17.2422276
  42.5386391  57.5691757  17.7064362  43.0284119  56.9790039  16.4015217
  59.7989540  17.4228439   0.9318666  59.9338455  18.3349819   0.6748770
  59.8901100  16.9285126   0.1172754  80.4494095   7.3348799  77.2092667
  79.6749115   7.6620111  77.6668320  80.9625549   6.8980899  77.8890610
  39.5338135  57.0916862  65.7353210  39.6206284  56.8614540  64.8102875
  38.6468124  56.8173904  65.9681854  83.6723633   8.8520546   6.1630707
  84.4157257   9.4381819   6.0212989  84.0689240   8.0218248   6.4270630
  67.0922089  68.0447845  55.7659798  66.4752960  68.7519760  55.5774727
  67.9453201  68.4766083  55.8102722  69.0781097  41.3055992  67.1599579
  68.7560577  41.7038918  67.9685822  68.5451279  41.7002945  66.4697571
  38.1093369   1.3114758  43.6129417  37.2069969   1.1724091  43.9004784
  38.0472412   1.3956932  42.6614799  22.1173916  63.8659248  72.6664963
  21.7942696  63.7600250  71.7717285  22.9792976  64.2693939  72.5637131
   7.8225470  65.7971497  32.3782501   7.5147319  65.2928391  33.1313515
   7.3621092  66.6336136  32.4457626  66.4948196  70.0228958   9.3321686
  65.5861206  70.2293167   9.5509996  66.9631195  70.0917740  10.1641455
   3.1112080  36.7431412  43.4429436   3.7060602  36.9085884  44.1743851
   2.2456198  36.6827888  43.8471031  61.2313843  67.2878265   4.1825438
  60.7603378  66.4665604   4.0415635  61.4459534  67.2837830   5.1153760
   5.4846745  54.7529984  41.4309578   4.6458435  55.2134933  41.4541550
   5.2497482  53.8256111  41.4625778  40.1214294  50.8849144  66.1334000
  39.8900185  51.7973938  66.3067932  39.4387245  50.3771858  66.5719833
  65.9050674   4.9012799  20.9701519  66.2271881   5.6317687  20.4420815
  64.9792709   4.8280511  20.7382774  68.5495377  10.9066458  32.3495636
  68.6722488  11.4262791  33.1440163  68.2548981  11.5382099  31.6934052
  23.7500267  61.4540291  54.5700302  24.4106865  60.9116440  55.0008202
  24.1202583  62.3366547  54.5813217  63.2536583  52.7243233  78.8648376
  62.6819191  52.0641747  79.2566910  62.9705582  52.7748604  77.9518585
  46.7230453  60.8878403  19.5124035  45.8852730  60.6769180  19.9245720
  47.3797646  60.6319504  20.1600704  67.2611542  52.5984421  68.0105820
  68.0528259  53.1336937  68.0653381  66.5504608  53.1980247  68.2378464
  44.3056831  53.1016541  67.9110031  45.0145187  52.5341721  67.6081085
  43.8252869  52.5678177  68.5438309  37.1627693  44.9015770  57.5809441
  37.5293732  44.1076813  57.1916351  36.7716217  44.6064987  58.4032364
  17.5940781  53.4452896  45.5965919  16.8598366  53.7339668  46.1386147
  17.6790390  52.5109406  45.7863388  45.4262924  36.9149361  64.2025452
  45.4667664  36.6491127  63.2838860  46.1756516  36.4811668  64.6106339
  56.5917397   5.8695650  29.8408203  57.1409378   5.0868893  29.7957687
  56.6546707   6.2568989  28.9677544   9.0772638  60.7169228  30.2735500
   8.4363651  60.0480309  30.0325890   9.7120495  60.2543640  30.8206501
  51.1078873  54.6263542  41.5894814  50.7810974  53.7515793  41.3792229
  52.0386238  54.4969292  41.7717361  51.1292229  35.7752342   9.0949402
  50.8319778  35.0924034   9.6962872  51.0364494  36.5884438   9.5912390
  80.0842514  59.3342018  48.0760193  80.0974350  60.2855072  48.1812439
  79.1565781  59.1016617  48.1158180   8.5786409  38.3321381  60.1699982
   9.2951422  38.0149879  60.7197914   8.6100025  39.2844429  60.2614708
  41.8969803  57.4826241  34.0309486  41.5225372  58.3622589  34.0785713
  42.1580963  57.3827095  33.1154861  67.2492752  38.8514938  42.4139786
  68.0676346  39.1810608  42.7853432  66.9240723  38.2297249  43.0650368
  68.9513931  57.1801109  61.7138329  68.6403198  56.4226227  62.2094841
  69.8890381  57.0239983  61.6011810  14.4033918  42.8137550  51.4388542
  14.5634899  42.4512062  52.3101501  13.5151777  43.1674194  51.4860954
  70.4005280  21.6881561  78.2277298  70.1056137  22.2234669  78.9644165
  71.2955551  21.4377670  78.4567719  62.3879967   6.4558015  68.6851501
  61.8432579   6.5675311  67.9060364  61.7887154   6.1159639  69.3496780
  62.1338615  69.9434433  82.5304947  61.5665703  69.2172852  82.7895584
  62.1181335  69.9300385  81.5735168  41.6689987  60.0146828  66.2698288
  41.8287201  60.3147430  67.1646423  41.2422485  59.1643486  66.3749390
  68.9631424  48.3322067  80.6031494  68.7069855  47.4315491  80.8017349
  69.7992249  48.4484711  81.0544662  66.6929855  67.1943054   4.8529363
  66.9749451  68.0916748   5.0303340  65.9830246  67.2874756   4.2177100
  64.8157730  17.0427284  72.8808517  65.4969788  16.9770489  72.2116165
  64.9825974  16.3036232  73.4657669  64.0423660  24.2293816  32.8294029
  63.1362839  24.3501797  33.1133919  64.4388428  23.6924248  33.5154915
  86.5950851  53.3293381  63.1014824  86.0871429  54.1401138  63.0719604
  86.5660248  52.9957161  62.2047729   3.3709238  55.4386444  70.5411224
   2.5837071  55.4405136  69.9965897   3.7074049  56.3325806  70.4787750
  66.8902283  53.3785133  13.7850580  66.1987457  53.9018021  13.3797722
  67.3170166  53.9782562  14.3969269  53.4150124   9.7838650  55.4847679
  54.0889053  10.4017611  55.2013855  53.4534111   9.0759811  54.8416061
  42.6487732  46.6061897  13.9712172  42.9204750  47.2009697  14.6702480
  43.0535431  45.7690201  14.1982412   1.3035392  17.0742359  64.8995819
   0.9702256  17.3632317  65.7490616   2.2322407  16.9005833  65.0531693
   2.5989232   9.4403419  54.4734573   2.1402526   8.6896210  54.0962677
   1.9182979   9.9290867  54.9361763  13.0131273  55.6122856  32.0915260
  13.3682184  55.5162086  31.2078342  12.3372889  56.2847481  32.0062790
  22.8277779  36.1190910  62.4444656  22.1463203  36.7698669  62.6128159
  23.4331093  36.2103157  63.1803207  48.8996849  43.2957039  31.3567696
  48.7526588  42.4479027  30.9374256  48.3876953  43.9132347  30.8345089
  26.5851364  50.7029457  39.1125412  26.6604271  51.5030251  39.6325798
  25.7843666  50.8234787  38.6021805  62.9260063   0.8074145  19.2940598
  63.5583801   1.3605629  18.8354073  63.2452202   0.7758029  20.1959114
  41.1768112   7.4685497  83.6415405  42.0432320   7.2482166  83.2994919
  41.2639503   8.3698082  83.9519730  69.2866287  67.9863358  73.6321716
  69.0836563  67.1919861  74.1261749  68.4507523  68.4482193  73.5673370
  68.9653778  62.0322762  31.1317005  69.3162537  62.3968124  31.9442463
  69.5806580  61.3381920  30.8952484  64.4895935  10.4860907  32.6735878
  63.5797043  10.2724247  32.4669876  64.9987183   9.7859926  32.2650681
   2.3837016  38.6255875  85.3419800   2.4957922  37.9308128  84.6931763
   2.5816391  39.4320717  84.8659134  52.8760757  41.6006012  50.6102257
  53.1999359  42.4331665  50.9540100  53.0984421  41.6230621  49.6794815
  24.3095169  42.2749100  36.9213295  25.2379551  42.5049171  36.8848495
  24.1158390  42.2082520  37.8563576  75.9329071  68.3841019  40.3302078
  75.2831802  67.9632568  40.8932152  75.4279785  69.0034790  39.8032799
  22.2400932  31.5929890  87.6890717  22.0424366  31.6632042  86.7551346
  22.2087612  30.6536751  87.8705597  42.5715599  66.8458252   9.1282597
  42.9062958  67.5413513   8.5622015  42.9930573  67.0012436   9.9734917
  44.4514885  44.0501976  55.5318909  44.3883286  44.0247803  56.4866676
  45.3207626  43.6984329  55.3399086  19.3505001  56.9106598   5.8780532
  18.6550026  57.2798500   5.3337998  19.6276073  57.6363029   6.4374142
  69.4348679  37.4790726  74.8540039  69.7503433  38.3729630  74.9869385
  68.7426605  37.3699265  75.5060501  31.6327934  43.4306908  32.7810135
  30.9219341  42.7915115  32.7324600  32.2442551  43.1614075  32.0955696
   0.9222168  32.2608070   8.4877348   0.6138048  31.8867016   9.3130589
   0.7047644  31.6007481   7.8295012  79.8440781  56.1164703  78.8054352
  80.5045319  55.9178925  79.4692154  79.1951065  56.6491623  79.2651291
  73.4468918  42.1421432  38.7797127  73.6624985  41.4425468  38.1630173
  73.5571823  42.9482841  38.2755203   0.4214228  67.8227310   0.5453654
   0.9707208  67.5354462   1.2747288   0.9433769  68.4908905   0.1011210
  72.8662262  16.4865303  81.8578491  72.1602859  15.8436909  81.9259796
  72.5243149  17.1558170  81.2650681  85.9535065  52.1834221  60.6917191
  86.0215607  51.2334938  60.7878227  85.1634445  52.3151398  60.1676102
  63.9540215  32.8266907  59.0414238  63.0394554  32.5600700  59.1347733
  64.0522461  33.5615921  59.6468201  81.0628891   6.6151175  55.6579933
  80.9377518   6.8555703  56.5760078  80.9939651   7.4427586  55.1820831
  83.4686050  39.6127396  85.0045319  83.4247208  39.6470680  84.0489502
  84.3974075  39.4845543  85.1971893  61.9601097  36.4551926   8.8219604
  62.8655853  36.6223488   9.0834999  61.6728554  37.2734985   8.4168749
  48.9769745  20.5540371  68.6969452  49.6706886  20.8358479  68.1006470
  49.4060555  19.9356976  69.2883682  23.6440907  12.2995491  71.8641739
  24.1718884  13.0533953  72.1275635  23.2170944  12.0123768  72.6712875
  45.2704582  27.4014187  25.7912540  46.0987473  26.9657497  25.9921703
  44.8959885  26.8861904  25.0767307  13.5441113  15.9363794  82.8256836
  14.2796545  16.5150452  83.0265579  13.7597084  15.1136751  83.2649002
  38.7997704  32.5690269  15.8053341  39.4577751  33.2604179  15.8777466
  38.4779549  32.6378517  14.9064856  41.0023537  10.0210323  49.0675735
  40.5565605  10.5595608  48.4137459  41.8053131  10.5023317  49.2671700
   1.7075353  17.5029564  86.5805588   1.9121115  16.6146526  86.8726120
   0.7549612  17.5649071  86.6512451   1.3233278   4.6165872  33.0041161
   1.3610239   5.5591211  32.8415108   0.4244858   4.3714185  32.7845535
  49.5063515  70.3524780  14.1801405  50.4190903  70.1045609  14.0329056
  49.3633881  70.1964798  15.1136589  23.4382191  58.2989082  21.7213211
  23.4569454  58.1497459  22.6666431  22.5816498  58.6937103  21.5580635
  46.0181808  12.5908689  74.0336685  45.3485985  11.9689245  73.7489319
  45.7839203  12.7974482  74.9384766  43.4561996  48.2828865   6.5233231
  43.0232315  48.6292801   5.7430768  43.6783409  47.3806686   6.2933435
  38.0263367  67.2685089  53.2526550  37.7639542  68.1873016  53.1960526
  38.0895195  66.9809189  52.3418694  40.4576836   1.5524486  46.3956108
  39.5989914   1.2443453  46.6853561  40.2651520   2.1678984  45.6882286
  77.5033493  48.7556610  26.4806747  76.6980438  48.8206329  25.9673653
  77.3963394  47.9547501  26.9938202   4.9773741  62.4720421  47.3565254
   4.7996120  62.3173599  48.2842674   4.5385780  61.7509880  46.9051132
  17.5371799  47.9812393  86.6033020  18.1356964  48.7206421  86.7095871
  16.6733246  48.3834534  86.5127106  73.9220200  41.1804352  28.1085415
  74.0750046  41.0875511  27.1682224  74.6702499  41.6872482  28.4240208
  51.4244003  25.5939121  39.2633400  52.2868423  25.9974594  39.3611794
  51.5123787  24.7367191  39.6801262  51.5868835   6.9435263  59.9280853
  52.3827934   6.8794084  60.4559555  51.3793640   7.8779273  59.9201584
  82.1593933  17.3519764  67.7548141  81.7822189  18.2241173  67.8703384
  81.5733871  16.7713680  68.2403259  66.3530731  70.6905594   4.0875468
  67.3046799  70.5906525   4.1138086  66.1352997  70.6660995   3.1557696
  33.2313194  27.5631905  64.3598557  34.1273766  27.8516083  64.5334320
  32.7878036  28.3446941  64.0300446  11.2222624   1.0526489  61.8377228
  10.9950991   1.6257905  62.5699348  12.0978518   0.7290660  62.0495453
  55.0950966  22.8339252  63.8949928  55.0480919  23.7675667  63.6892357
  55.6445198  22.7884769  64.6774902  29.4903679  66.7885590  74.0016556
  30.1626415  67.3757324  73.6559601  28.6675682  67.2566528  73.8598328
  52.0253448  45.0018768  23.0492840  52.0875702  45.2722816  22.1331825
  52.6224594  45.5887032  23.5133114  17.9629326  14.5669041  47.3531418
  18.6956692  14.5306950  46.7383118  17.1844139  14.4773588  46.8034859
  39.2759933  68.4286880  22.7534313  39.8528099  68.5788727  22.0044632
  38.4114037  68.2916794  22.3661976  47.2492638  59.7751465   5.4392214
  47.8220444  59.3281174   4.8160677  47.5675125  59.4980888   6.2983999
  81.3551407  39.6508408  47.1893616  81.6209641  40.5665169  47.2736855
  80.9621353  39.5947647  46.3183670  44.5801544  68.3517609  60.6176109
  43.7783318  68.0991974  61.0753555  44.3322296  68.3713455  59.6932831
  41.3176003  43.1601982  43.4591827  41.8341599  42.7386513  44.1459846
  40.4400520  43.2383766  43.8333778  23.1856155  54.2536926  85.9285507
  23.9413147  54.0097504  85.3940887  23.5581741  54.7480240  86.6586609
  42.8956718  68.7657089   3.0527072  42.8783875  69.3145599   3.8367314
  41.9765778  68.6816483   2.7988758  32.2512169  32.0504761  10.5760336
  33.1470604  32.2159195  10.2822218  31.8519859  31.5557060   9.8604574
  58.6615486  43.8071861  45.3426781  59.3517227  43.7109566  44.6864510
  58.4333038  44.7363853  45.3157272  33.5318947  50.7716827  61.7588654
  34.0353775  50.7827644  60.9448509  34.1365433  50.4151421  62.4096413
  67.8811798  30.9403629  33.8250694  67.3995667  30.4320107  33.1724930
  68.5381241  30.3327522  34.1648750  69.1537933  51.4315376   4.9808702
  69.3684464  50.5193253   5.1758566  68.7576675  51.4034882   4.1099353
  47.7558937   8.5024776  63.4585457  47.0404243   7.8720098  63.5412712
  47.3470459   9.3518791  63.6246567  81.7544174  56.1236458  13.3208485
  81.6622391  56.4500999  12.4257717  82.6636581  55.8296051  13.3761072
  18.0086136  17.3905525  27.8323460  17.1240101  17.7533264  27.8781776
  18.4954548  18.0138416  27.2931519  86.5188828  56.7961235  55.6375542
  85.9343033  57.5479622  55.7336922  86.6442719  56.4745216  56.5303459
  28.9025173  67.1438370  67.9328613  28.7985878  66.1930313  67.8955765
  29.8416672  67.2772827  68.0610123   5.6814837  67.8916702  69.7762222
   5.6160617  68.6775665  69.2336960   6.3816676  67.3792191  69.3720322
  36.2334213  67.2402878  13.1550035  36.3966713  66.3898468  13.5628462
  35.9578896  67.0291748  12.2629566  71.1649017  64.4733200  67.7874222
  70.9538727  63.6507454  67.3457489  71.9247055  64.2651749  68.3311157
   3.6977177  60.4397278  27.5796432   3.1399152  60.0674629  26.8966293
   3.2947457  61.2834435  27.7845497  46.4614296  27.5826893  43.9724045
  46.9441338  28.3349304  44.3149834  47.1257782  26.9028053  43.8600006
  67.0099335  44.2364960  63.6202354  66.2059708  44.4619141  63.1521950
  67.6720352  44.8237915  63.2556229  45.7488899   4.8788662   0.5574891
  45.2594719   4.1262226   0.2254788  46.4766922   4.4946084   1.0462430
  24.9872990  29.1415939   3.4640107  25.8545094  29.4927120   3.2617862
  24.4485626  29.3858166   2.7114489  15.4022760  26.1739120  74.3583298
  14.6414480  25.8308697  73.8896179  15.0734625  26.9487591  74.8141022
  84.9264221  59.3299255  78.9215317  85.1345901  58.6605186  79.5732956
  84.1333618  59.0083160  78.4927597  21.5610104  31.8999271  85.1378555
  21.3771782  32.8347855  85.2299194  20.8933792  31.5833321  84.5293579
  44.6263351  51.5642662   0.3893414  44.2781487  52.3602066  -0.0124984
  44.1356964  51.4740295   1.2062629  19.2830830  63.8444824  50.2151184
  18.8818951  63.2049332  49.6266823  19.9576797  64.2681122  49.6843719
  32.1149597  14.2662411  87.8676071  32.7555161  14.0390310  88.5416183
  31.7852135  15.1255322  88.1305161  50.4603882  64.8008423  19.5004044
  50.1422768  63.9331512  19.2510948  50.4942665  64.7778625  20.4567280
   4.9259162  32.2069244  64.1395798   4.2369790  31.7965317  63.6169128
   4.8826518  33.1344223  63.9069748  41.5019493  18.8557396  16.6106319
  40.8126106  18.6708794  15.9727707  41.1595535  18.5176105  17.4380779
   6.2391324  63.6747131   9.1307774   5.8475213  63.0881042   9.7778959
   6.2253733  63.1745415   8.3147688  61.9089508  12.6405516  15.3534756
  60.9705200  12.7304096  15.5193186  62.2289505  13.5407200  15.2940674
  72.5388870  67.0346832  77.1897812  71.8451233  66.5615311  77.6491928
  72.0742340  67.6534042  76.6262970  84.2591476  15.7033587  66.6705322
  84.6081848  15.9711695  65.8204269  83.9208145  16.5115910  67.0559158
  70.5153885  70.8215256  43.7913666  70.5678406  70.7770004  44.7460899
  71.2394180  71.3941498  43.5381584  50.5283585  62.0579987   9.9864721
  50.2295952  61.2562218   9.5573730  51.4128494  62.1957855   9.6474638
  80.7056046   1.8620180  42.9461708  81.2620850   1.4677442  43.6178169
  81.2890549   2.4501455  42.4666672  40.3293571  37.0688210  76.5998840
  40.0464554  37.8348312  77.0993118  41.0772362  36.7265091  77.0895081
  10.0018578  46.8080025  65.1836090   9.6312933  47.6245689  64.8487396
  10.0873089  46.9524765  66.1259766  54.8417778  64.3454056  32.1313095
  55.0885582  64.6189346  31.2478447  55.1238670  65.0672379  32.6931000
  70.3939590  50.5656853  66.9284134  70.8436737  51.3118172  67.3249969
  69.5660248  50.9261818  66.6109238  25.6381207  70.7711868   7.2478118
  24.7475719  71.0850296   7.0907807  25.5212326  69.9286346   7.6867566
  65.6596603   4.7106481  65.2392731  66.2301254   4.8153248  64.4777985
  65.0555649   5.4514842  65.1896210  62.4186859  42.2472115  70.3843918
  62.3978729  42.3185081  71.3387070  61.6405296  41.7345848  70.1654816
  10.1881914   4.7421460  27.6043015   9.4216099   4.7842145  28.1759777
  10.5552015   5.6258059  27.6303787  65.0115814  47.9895287  86.8894348
  65.6921539  47.3904037  86.5826721  64.5356979  48.2374649  86.0967865
  10.3709936  49.6598053  50.9445190  11.3206997  49.6951027  50.8303108
  10.0526505  50.4749336  50.5566292  71.9799805  66.4915085  22.6915684
  71.7254562  65.7307587  23.2137871  72.1076279  67.1904602  23.3329754
  17.2843037  42.2816734  81.8423615  17.5976753  42.2964363  82.7466888
  16.9836464  43.1755257  81.6784439  54.8067360  62.6822014  68.4345551
  54.1208344  62.4803848  69.0709763  55.2891388  63.4107971  68.8252716
  80.8736725   1.9876989  49.4621544  80.5811234   1.1405436  49.7982750
  80.3143692   2.1500628  48.7025146  59.9741135  37.2154808   2.0212982
  59.8865395  38.0619087   2.4596214  60.8479347  37.2370644   1.6311662
  61.4344826  52.4945030  64.4024582  61.9051132  53.0373840  63.7699890
  60.5580368  52.8773346  64.4413757  63.7511520  52.0644913   7.4524326
  63.1271553  51.7883263   8.1236963  63.3732300  52.8653564   7.0890760
  76.7853088  23.0343494  56.4520302  77.3983459  22.4020233  56.0770988
  76.9028549  22.9498463  57.3982201  69.4986725  18.1657982  17.5318546
  68.8652573  18.8582573  17.3433914  69.4618988  17.5926666  16.7660866
  44.6124840  41.5624580  85.9308319  45.1589699  40.8052521  86.1411209
  44.3073540  41.8809357  86.7803650   2.9189143  51.3658447  18.6505241
   3.7326243  50.9085159  18.4384899   3.1416478  51.9149055  19.4022923
   1.7343881  23.8015919   2.4275296   2.3741167  24.2752800   1.8959297
   1.4731233  23.0591297   1.8828075  29.7970486   3.0522621  80.6190720
  30.6231327   3.1256158  81.0970230  30.0407810   2.6674616  79.7771912
  49.8972168  63.2427025  66.6462479  49.6972160  63.1124229  67.5732040
  49.0434380  63.3699341  66.2325897  59.6944618  47.8996811   3.7430534
  59.6048622  46.9495354   3.8166900  59.5501060  48.0826340   2.8146563
  54.1550903  49.7630234  11.4078703  54.4033241  49.7094269  12.3307667
  53.2440796  49.4699821  11.3874750  86.3168945  23.9656429  62.5847321
  86.6153030  24.8713398  62.5016747  86.9415817  23.5619450  63.1872482
  65.5340271  16.9773979   7.7615132  64.9499359  17.7310944   7.6778145
  66.2895966  17.3123837   8.2443514   9.8387814  47.7687149  79.2249374
   9.6561499  48.1351395  78.3597107  10.0139198  46.8421478  79.0605392
  17.0313892   7.9032979  79.9432678  17.6199684   7.8966546  80.6980972
  16.1955471   8.2108479  80.2939987  13.5866489  10.8428497   5.5677004
  13.8963499  11.3343716   4.8069615  12.6834669  11.1352024   5.6902680
  11.3585072   1.5686150   8.2546539  12.1280899   1.2976744   7.7540889
  11.7154160   2.0522265   8.9996157  74.1665421  70.5831528  15.8422174
  74.7204361  70.0783615  15.2467184  74.7092438  71.3281326  16.1004906
  51.8475800  25.9975624  78.0499039  52.2287025  25.4232979  78.7141342
  51.0010300  25.5997677  77.8465729  36.6376686  49.6969223  65.4759216
  36.4828682  49.7094727  64.5314026  37.4532852  49.2065239  65.5784531
   5.1406441  64.2682953   0.9717615   5.5815611  63.5213547   0.5669061
   5.5576286  64.3568420   1.8288003   5.3152189  34.2955742  53.1395531
   5.2138100  33.5845261  53.7722893   4.4492774  34.3879623  52.7422600
   2.3543127  69.1070251  80.2303162   2.0400548  69.4593277  79.3976364
   1.8579381  69.5845413  80.8950119  53.7216148  53.7218513  30.4863205
  53.1080894  53.2819405  31.0747910  54.5367317  53.2284279  30.5776978
  33.0205078  36.1294174  88.7012711  32.9311943  36.6176720  89.5197220
  33.6058884  35.4037361  88.9179459  52.6544762  27.7866287  29.0839386
  53.3771896  27.3224297  28.6615181  52.4227829  27.2379189  29.8332481
  27.0597649   9.1012611   3.0710325  27.9811497   9.1673670   2.8202093
  26.7611389   8.2837515   2.6726210   1.7614146   0.9987886  26.7275925
   1.0911139   0.4584381  27.1458645   1.9349204   0.5622558  25.8935871
  15.9058390  40.0877037  46.4172668  15.1479235  40.6676292  46.4913063
  15.7948437  39.4565392  47.1282845  29.5806351  42.1608696  25.4204865
  28.8048477  41.8610687  24.9466667  30.2925777  42.0879021  24.7848415
  66.0280151   7.4865904  25.7188377  65.2670517   7.2545571  26.2511158
  66.7706299   7.0960641  26.1795464  52.9705353  19.3485394  51.5562057
  53.5658264  19.6418324  50.8663940  52.1161690  19.6947460  51.2984619
  26.8988914  45.0261230  73.8018951  27.2089348  45.7864838  74.2937927
  26.0599861  45.3043976  73.4344330  48.6917839  46.5228310   9.5341578
  49.1407356  46.3272934  10.3566179  49.3752251  46.8804398   8.9673643
  71.1917191  51.0298042   1.0997535  70.3699875  50.7686310   0.6840804
  71.4273148  51.8516083   0.6692075  30.0391178  51.1325760  38.2361565
  29.2828388  50.9016495  37.6967621  30.1357899  50.3967438  38.8406715
   4.7282171  48.3688774  25.6832199   4.1275086  49.0249672  26.0366707
   4.4343762  47.5431290  26.0679703  73.5406647  41.7576599  71.2161636
  73.9555130  41.8400307  72.0748520  72.8937149  42.4627838  71.1940918
  59.0394249   7.4284229  50.0111504  58.4259224   8.1575480  49.9204636
  59.2412300   7.1718745  49.1113243   9.0182428  36.3590508  78.0466766
   8.5024567  35.8057861  77.4600830   9.8303127  35.8711777  78.1836243
  66.5978470  14.8844852  70.8779984  66.9327621  15.1572027  71.7322159
  66.5934296  13.9280777  70.9166870  64.8797836  19.3568535  41.4148178
  64.9774170  20.2042007  40.9804192  65.3248978  18.7381477  40.8357582
  65.1945877  70.6688156  18.2650623  65.6111984  70.9246826  19.0879822
  65.7271423  71.0852051  17.5873909  50.0322609  33.9132080  78.1397095
  50.9333496  33.6681480  77.9294281  49.5002861  33.2064476  77.7740326
  86.0285492  17.8530540  15.4145336  85.3627930  18.4423962  15.0600300
  86.3442612  18.2948532  16.2028065  66.8814621  22.1458187  69.6488266
  66.0193253  21.7351151  69.5834274  66.9687653  22.3733654  70.5744781
  86.4809570  27.7558079  59.1737099  85.7832489  28.3618050  58.9243050
  86.5175323  27.1240330  58.4555473  14.2509594  32.4438553  74.2075119
  14.0657148  31.6008339  73.7937164  15.1789694  32.5984802  74.0310974
  63.1369858  37.3842659  43.9600449  63.2323456  36.5702896  44.4545975
  62.8784256  37.1024895  43.0825577  48.2981758  42.0961113  86.0600128
  47.6989288  42.8337708  85.9460373  48.8547630  42.3511543  86.7958069
   1.2221627  69.4914627  30.8717709   1.8398529  68.8100281  30.6065731
   1.7718235  70.2508774  31.0651703  51.0931168  53.0545616   9.1625490
  51.7223701  53.6997719   8.8400888  51.5740585  52.2269821   9.1561346
  18.5208454   4.2322087   5.9928608  18.2219410   3.9982591   5.1141367
  17.7799969   4.6968565   6.3820610  54.5488281  49.4523048  79.6933365
  55.0998573  49.2667046  80.4536972  55.0867157  49.2041626  78.9414444
  59.3414993  13.5981140  80.6059570  58.6134453  13.5173998  81.2221146
  59.0188904  13.1951008  79.7998962  46.6612167  61.1589890  41.0893822
  47.0241776  61.8243141  40.5047150  46.9828224  60.3292007  40.7368965
   9.0524225  31.1518593  73.4490204   9.5871401  31.6102161  74.0972595
   8.9911032  31.7623138  72.7142944  63.8083687  24.5647907  79.5334778
  63.5470314  24.8092880  80.4212646  63.9464111  23.6185722  79.5764694
  44.0508842  16.0657425  77.6360779  44.1018639  15.5053129  78.4103851
  44.6342621  16.7988453  77.8321838  55.9107323  57.9409561  74.6033020
  55.9927292  57.0785904  75.0105286  56.2839508  58.5452919  75.2449570
  56.7031479   3.9902382  50.7208633  57.6142616   3.7458103  50.8832207
  56.3318825   4.1235619  51.5929985  76.7424088   6.8208003   0.1853148
  77.3552170   6.2658038   0.6676826  76.2200394   7.2474442   0.8645357
  48.8973579  56.5592957  21.3499813  49.1423912  56.8950844  20.4877529
  47.9407692  56.5928040  21.3570747  85.3904343  34.5741692  32.6569901
  85.9100342  35.2059402  33.1540947  85.9793320  33.8313065  32.5243607
  34.4714661  49.8640442   4.8608942  34.4469299  49.0554047   4.3493013
  34.2239723  50.5484314   4.2391281  68.2450256  64.2348785  20.8189850
  68.4119797  64.2639618  21.7610626  67.5207825  64.8462524  20.6851025
  48.3908310  31.7146320  36.3235474  47.9491539  31.7353420  35.4745903
  47.8318443  31.1631737  36.8709602  21.3536758  67.3459854  70.2521973
  22.1501389  67.1842880  70.7578964  21.0383224  68.1933517  70.5664520
  57.9655609  24.3589478  29.6182003  57.2915344  25.0008736  29.8414803
  57.4921227  23.6634846  29.1616707  25.7827225  10.0324049  71.7239151
  25.8165913  10.9078369  71.3382950  26.6822414   9.7102842  71.6661682
  54.5582123  30.2488384  45.1360397  54.9176178  31.0092449  44.6790504
  55.1968002  30.0584908  45.8232155  64.1255112  10.2274389  62.2016373
  64.7240448  10.2977848  61.4579659  63.2804451  10.0084124  61.8090630
  71.7409439  41.9947472  60.1732750  72.3847580  41.2983437  60.3027267
  70.9213028  41.6277847  60.5045700  25.3513927  24.7204742  71.8300018
  25.1127777  23.8281746  72.0811920  24.5168610  25.1866856  71.7806702
  46.2237015  46.1274261   1.7610290  46.9244652  46.7140694   1.4764031
  46.4355240  45.2867432   1.3553021  57.2631645  36.6186409  78.4363937
  57.9925613  36.0026436  78.3674393  56.5017509  36.0686111  78.6206436
  31.9360580   3.2023249   7.9397035  31.1701813   2.7023025   8.2219114
  31.6542301   3.6387575   7.1357560  75.2816772  68.4566422  62.5330734
  74.4459152  68.2092056  62.9286880  75.2715454  69.4137802  62.5308037
  28.8744411  61.6790352  52.2311211  28.5819588  60.9176445  51.7301521
  28.1228828  62.2718010  52.2266350  24.9187317  11.3413315   2.3091097
  24.9434586  10.3928289   2.4354532  24.2821445  11.6521864   2.9528160
  50.7569313  42.3650475  64.4971771  50.3297348  41.5884399  64.8585815
  50.4875069  43.0779686  65.0763016  32.7515984  42.5848503  37.7159958
  33.3274651  43.3404999  37.5993462  32.9035606  42.3049927  38.6186676
   8.3104439  33.6241875  18.9580326   8.0920229  32.7267151  18.7068920
   9.0337744  33.8655128  18.3794250  50.1775627  59.5864754  41.4323654
  50.6377106  58.7798920  41.2001724  49.9995995  59.4995956  42.3688583
  62.7229881  48.8474617  62.9887314  63.0206413  47.9571419  63.1757278
  62.6899147  48.8932152  62.0331993  54.9461021  71.0667114  87.0968475
  55.4935837  70.8998566  86.3296127  55.5646133  71.1199188  87.8254395
   3.4399164   4.3058944  17.6534615   2.5291481   4.5157647  17.8600712
   3.7841556   3.9162104  18.4571266  81.3567734  48.5634422  79.3862915
  81.8528671  49.1571846  78.8227386  81.9343033  48.4031525  80.1326218
  16.5143261  20.5235596   5.4317288  16.3372269  21.2292442   6.0537233
  17.4680920  20.5081501   5.3521852  65.8880081  68.3236923  29.2010326
  65.4034805  68.1200104  30.0010185  66.6528473  67.7489471  29.2313538
  27.1246128  35.4430504   7.2541962  26.3418884  35.4498978   7.8051305
  27.5228062  34.5874786   7.4144249  77.4326401  69.5249252  15.9999857
  76.7531891  68.9645309  16.3748684  78.2180634  69.3215179  16.5078888
  18.3083515  53.6541367  41.0750732  18.9488163  52.9848824  41.3161850
  18.1488056  54.1363182  41.8864174  75.0032883  66.5417404  54.6732674
  74.3348083  66.1753998  55.2521935  75.4002304  67.2482529  55.1826820
  53.0652161  12.4491796  66.8326492  52.5453758  13.2529154  66.8301620
  52.4885254  11.7921495  67.2224808  61.5216637  25.1283035  55.9697037
  61.9203148  24.5098133  56.5818939  60.8010521  25.5216560  56.4618645
  79.1796265  58.1507454  13.5060034  79.9894333  57.6512833  13.6108017
  78.5564957  57.5227585  13.1405249  11.4805679  59.1757660  83.9070663
  10.7043076  59.0696754  83.3571548  12.1184664  58.5626717  83.5417786
  35.6715317  68.9792480  80.1012726  35.9423294  69.7892303  79.6690445
  35.2436752  69.2691650  80.9069443  65.9110336  63.6972389  15.2473993
  65.0931473  63.9515839  15.6747246  66.3230362  64.5267487  15.0057459
  80.3820114  33.2005463  88.6658859  80.7631454  33.4879379  87.8362045
  79.6353073  32.6584206  88.4114151  55.9932404  23.2952404  36.3758392
  56.4930077  24.0832920  36.1626701  55.9382668  22.8156052  35.5493050
  55.0243874  59.2630615  29.9439869  54.6541634  58.8464966  30.7222157
  55.5939484  58.5948944  29.5626984   8.6768494  56.1884232  61.4218597
   8.4871473  55.2639465  61.2619095   7.8237524  56.6198387  61.3734894
  75.2898331  30.5524845  25.3453751  76.0971909  31.0586452  25.4359970
  75.1311264  30.5216141  24.4019279  43.4740143  58.0851707  84.6584320
  42.8701897  57.9350624  85.3858185  43.3201675  58.9948120  84.4032593
  29.6350498  69.7353210  71.4665680  29.5807838  70.4403000  70.8213654
  28.7246170  69.5526886  71.6989212  23.7454720  42.3246727   6.3357611
  24.1331863  43.1116829   6.7185454  22.8092155  42.5179443   6.2877812
  37.0413361   4.8308115  42.2721252  37.8518410   5.2323542  42.5852966
  36.7989426   4.2119145  42.9609222  60.7278671  36.2515564  75.2835617
  61.2370949  36.6132050  74.5582123  61.0733757  36.6903229  76.0609512
  53.7228851  53.0649643  39.7041702  54.3720093  52.6757545  39.1181831
  52.8795547  52.8326378  39.3155212  32.1935539  59.2405624   3.1175430
  32.5562019  58.5244522   3.6389890  31.2800045  59.3013878   3.3967521
  41.5930328  42.8746300  55.6882172  41.3465347  42.6879539  54.7823334
  42.4756699  43.2397270  55.6258888  43.1204720  57.1234856  36.7881165
  42.6881218  57.2715759  35.9470596  42.4147263  57.1755486  37.4326630
  49.1560822  62.4891205  50.5282936  49.6050987  62.8841362  51.2756767
  48.2841949  62.8840523  50.5366287  68.8058395  25.5772514  76.7912369
  69.5977325  25.4049950  76.2818604  68.9056473  26.4808292  77.0909271
  69.1432953  61.1113319  44.2863350  69.9398651  61.5845222  44.0459213
  68.4802399  61.4325523  43.6752586  25.7610226  67.5994339  61.6316643
  25.9291897  67.0077896  60.8982391  25.4995213  67.0227509  62.3494949
  32.1352997  60.2212639   9.2603378  32.7582397  59.6837234   8.7712326
  32.0775375  59.8003654  10.1180897  66.9611053  27.7258530  74.1503296
  66.2447739  27.4235668  74.7086487  67.2835922  28.5170746  74.5818329
  70.1029892  44.1969185  42.9312630  69.6461639  43.5116730  43.4190979
  69.7996140  45.0145798  43.3257637  37.3633232  57.5734444  89.2772446
  38.2003517  57.9870300  89.4883347  37.3751259  57.4814720  88.3245468
  78.6976852  39.6064682  58.7310486  78.4340439  38.7725983  58.3419609
  78.3401718  40.2698326  58.1408272  71.6782532  53.9192238  59.1142998
  72.0758362  53.0832939  59.3579979  70.7392807  53.7366562  59.0791893
   2.0088401  44.8975601  45.4670372   1.0646788  45.0541763  45.4832497
   2.1369503  44.1461067  46.0459442  57.2364464  69.7451706  38.4821243
  56.8592453  69.7575836  39.3617821  58.1819916  69.7818527  38.6264343
  84.8803558  66.5092621  47.2488213  84.0534515  66.8897247  47.5449944
  85.5339813  67.1838303  47.4331017  53.7863617  26.2047119   0.5380216
  53.2520485  26.3539658   1.3180625  53.2363853  25.6643467  -0.0292186
  17.5310574  43.3951263  76.2076492  17.5492210  42.4382896  76.1886292
  17.9719563  43.6591530  75.4001083  50.4400902  41.0090332  27.7973900
  51.2720528  40.6203537  28.0675735  50.0591698  40.3670425  27.1982441
   8.7241402  37.5777855  80.5637054   8.4268341  37.1771545  79.7467957
   7.9231553  37.8971252  80.9792480  44.2633438  17.8119469  87.5555420
  43.5696106  17.7427082  88.2114182  45.0572777  17.5423374  88.0172958
  40.6234627  33.6483383  79.4441071  39.8144341  33.2776337  79.0915604
  41.2549973  33.5683441  78.7292633   6.0940361  29.6295815  64.4121628
   5.3473864  30.0362625  63.9724388   6.3108883  30.2326946  65.1231155
  21.5547047  34.5092583   6.5643511  21.0988235  35.3180656   6.7972322
  21.8331413  34.6435776   5.6584468  82.1582870  55.7962990  42.4855003
  81.9172287  55.1583710  41.8138123  81.3456726  55.9580879  42.9647980
  20.9010620  19.5519886  80.7283783  20.0014000  19.7946510  80.5093918
  21.4086990  19.7888145  79.9522018  58.2370758  39.1276360  85.5976257
  58.3830261  38.2852707  86.0281525  57.8807297  38.8992577  84.7390823
  54.6324272   7.2665277  87.9187469  54.7913322   6.5909910  87.2594757
  54.3706856   8.0367079  87.4142227  48.9461365  12.1120310  60.4566422
  49.0390358  12.3594675  59.5366516  48.1527748  11.5770779  60.4818459
  29.4220200  13.6412907  71.8834000  28.6974583  13.6935291  71.2600861
  29.9251556  12.8770485  71.6022949  42.0477371  15.8559265  85.6658783
  42.2501831  16.7914619  85.6614838  42.7916260  15.4478130  85.2228165
  55.6154518  46.2685127  51.7000198  56.4975471  46.3426514  51.3358231
  55.0391273  46.5573006  50.9924278  45.6687431  18.1802197  44.7480659
  46.4549255  18.5494747  45.1503067  45.4677162  17.4093342  45.2786827
  36.7170868   5.5663910  71.9380264  36.0630569   6.1848340  72.2636108
  37.5573311   5.9650874  72.1644287  38.1116562  30.4876728  10.3315191
  37.2016945  30.2998657  10.1014519  38.0536652  31.1697044  11.0006247
  60.0115967  31.2999535  28.0882626  59.9840889  30.6784744  27.3607731
  60.8978271  31.6606827  28.0617256  40.3396988  61.2911873  86.6382217
  40.8880997  61.2694283  87.4224472  39.4995651  60.9319153  86.9234085
  17.1603775  32.3666840  15.0639534  17.3310928  33.3081093  15.0355997
  16.3990974  32.2441292  14.4967985  30.9987183   7.0459957  81.7752609
  31.4949684   6.3259110  82.1644211  30.1097164   6.9336090  82.1118317
  11.4726372  29.7075748  70.8037491  10.9528189  29.0806980  70.3007126
  12.3537178  29.3336716  70.8149796  84.6156006  60.3816147  58.2020988
  83.7868652  60.8176346  58.4003754  84.7232056  59.7407417  58.9049034
  50.7769966  31.1069069   0.7272180  50.8879051  31.4749432   1.6038482
  51.2768059  30.2907562   0.7451023  61.5463486  17.7306156  28.0057945
  60.7077980  18.1020889  27.7318058  62.0494461  18.4815197  28.3208656
   7.1343775  48.1083031  63.2002602   7.2722087  48.4504623  64.0835266
   7.9571295  48.2847061  62.7439804  86.0907516  64.3442535  14.6758318
  86.4068375  63.7803497  15.3817596  85.2570648  64.6868591  14.9980364
  17.4727001  49.1925011  70.3906174  17.4302368  49.5469780  69.5024796
  16.7433910  48.5742798  70.4368744  33.4412346   5.6545067  17.1616249
  32.7216225   5.2219191  16.7019939  34.0320625   5.9414496  16.4653378
  83.8596115  69.9620209   6.2952046  84.3675613  69.1512070   6.2668190
  84.2361450  70.5049133   5.6025834  35.2373085  45.6925888  28.3971710
  34.6775627  45.4292030  27.6667290  34.6625748  45.6632004  29.1620560
  57.5237732  37.5251846  20.2745647  57.8319855  38.4313927  20.2793102
  58.2297211  37.0299187  20.6899910  81.8901596  42.9888840  22.5146198
  81.1040802  42.8047333  23.0288219  82.2528152  42.1260223  22.3141518
  86.7452087  62.2007751  16.6279526  86.1637344  61.5260315  16.9784374
  86.8697739  62.8108330  17.3549652  64.5680923   1.5184344   9.9724369
  64.3330765   1.6930341  10.8837614  65.4860687   1.2497075  10.0090885
  48.1579208  65.3970871  59.7462692  47.9737930  66.2941360  60.0248871
  48.2857475  64.9141541  60.5627670  60.0606308  45.0943298   6.5924821
  61.0025635  45.1275406   6.7595048  59.7537918  45.9827347   6.7736359
  85.6817856  18.6067200   5.1124692  84.7281036  18.6384068   5.1881495
  85.9533463  19.5245495   5.1209531   5.5353217   5.5480199  43.9220085
   6.3935375   5.7421699  43.5451775   4.9321251   6.1255550  43.4542046
  53.6236191  22.2519131  31.4207439  53.3180504  22.7769833  30.6810417
  53.1982384  22.6428699  32.1839218  30.2771225   5.3543601  22.7924519
  29.6582203   4.6492662  22.6026306  30.4807777   5.7312002  21.9364452
  63.4870491   3.5107327   8.1287470  63.4932785   4.1034875   8.8803024
  63.8333893   2.6865683   8.4708500  44.5094604  50.5742111  28.0208740
  44.9581070  50.9298439  28.7879944  43.6429672  50.9804573  28.0404453
  67.4391403  28.8839912  48.9421463  68.2865067  29.3182907  48.8442879
  67.6498718  27.9506149  48.9673271  78.0612640  12.9270267  18.9015617
  78.8570404  13.2889862  18.5117455  78.1813507  13.0444860  19.8439064
  42.0792084  26.5250797  73.8359070  42.7212448  27.1733418  73.5464630
  41.2390518  26.8670425  73.5302429   7.6330333  70.4143143  72.1538239
   7.6123581  69.5223312  72.5004883   7.2783809  70.9541168  72.8602676
  34.5235519  23.8032303   8.6565285  34.6834068  22.8950176   8.9130926
  33.6492348  23.9972229   8.9944153  86.7862244  69.3641815  33.4081802
  87.2153702  69.4388962  32.5558357  85.8987122  69.6901627  33.2588882
  41.0689507   3.9379916  84.1747971  42.0093536   4.0465078  84.0330200
  41.0060310   3.4134223  84.9729843  38.0102234  31.7871799  80.7409134
  38.9109039  31.4796886  80.6386642  37.6419640  31.7475910  79.8582764
  10.6120720  59.6920280  32.4683113  10.3490906  60.5162277  32.8779068
  10.2086992  59.0151062  33.0117226  46.0356903  14.6688757  72.3451004
  45.9151344  13.8984604  72.9002151  45.9247742  15.4115400  72.9387131
  35.8729286  42.1677551  36.1469193  35.9542465  43.0947571  36.3711624
  36.4868736  41.7248764  36.7327194  27.5895977  46.7332687  49.2294083
  26.6572018  46.5615921  49.3613091  27.8319054  46.1813698  48.4858170
  43.8090591  45.3671265  31.8907719  44.4504013  44.7492447  31.5398617
  43.1577187  44.8158226  32.3244171  18.5929623  61.8352203  70.8423080
  18.6355572  62.1623344  71.7408676  19.5003777  61.8518791  70.5380859
  26.5950470  42.7628708  44.2320824  26.8452091  42.8067932  45.1549721
  27.3533230  43.1091805  43.7616425  64.2551575  53.0716324  39.7528954
  64.3040771  52.4195480  40.4519119  64.9013214  53.7340469  39.9976387
  33.6488800  36.5209961  17.3554039  33.6298981  37.4772263  17.3167381
  33.9126358  36.3228111  18.2539520  73.2681351  38.5538254   5.8902102
  72.4600143  38.2272949   6.2858682  73.6928482  39.0514679   6.5889268
  45.6316414   2.8676374  74.3401566  44.7999687   2.5936680  74.7267990
  45.4527168   2.9228487  73.4014511  33.9381218  57.0394096  88.1463318
  33.7770576  57.7448196  88.7729874  33.6308556  56.2493439  88.5908737
  74.7713699  43.0636101  50.6427917  74.1260376  43.2444267  51.3262291
  75.2533722  43.8848152  50.5452042  66.5911636  25.6003132  80.7203445
  66.7921295  24.8671684  80.1386719  66.5767365  26.3653488  80.1452408
  47.0514565  30.0032654  77.3213730  46.6941948  29.7367992  78.1684799
  46.2841148  30.0990410  76.7572403  26.8211441   6.5962224  27.1863708
  26.9781342   7.0631809  28.0070629  25.8691216   6.5089059  27.1388130
  35.8410378  65.0958633  75.4363174  35.8698502  64.3620529  74.8223801
  36.6302567  65.6015701  75.2423325  76.1934586  49.1282616   3.0964949
  76.8416519  48.4447060   2.9267051  76.2417068  49.6997604   2.3301439
  70.4481812  36.8427086  36.3713760  69.7910004  37.2019844  35.7753334
  70.5253372  37.4972839  37.0655022  79.4876404  57.5910187  63.5406113
  78.7324448  57.9099274  64.0347900  79.1312943  56.9073029  62.9733543
   6.0168614   1.2435286  77.6767578   6.6561747   0.6003200  77.9830093
   5.4237757   0.7434769  77.1160126   0.5002798  62.6378937  51.5819016
  -0.2945954  62.5375862  52.1056786   0.2816225  62.2446404  50.7370491
  18.7108345  54.5986519   7.3204751  19.1445904  54.7517319   8.1599121
  19.0963898  55.2459755   6.7300916  21.6389351  70.7074432  53.7852898
  22.5243092  70.3581543  53.8869743  21.7582417  71.6566010  53.7522659
  52.2051048  44.5427551  48.5183678  51.9767342  44.5200691  49.4476509
  51.5918350  43.9343452  48.1060982  83.7151489  54.3328972  65.1863937
  82.9816208  54.1360893  65.7690048  83.4126511  54.0605621  64.3200455
   5.8159871  42.1915092   3.6414001   5.8388557  42.1137276   2.6876397
   6.6487885  41.8197708   3.9320605  59.5070419  48.4260025  79.6244354
  59.6295013  48.7810478  80.5048752  59.7070351  47.4940376  79.7120514
  21.1581039  35.7505569  13.5208015  21.1387615  35.6909676  12.5656548
  21.4450073  36.6461639  13.6991425  56.7679939  64.0678024  47.4841576
  57.2912521  64.5486221  48.1254349  56.0133743  64.6329422  47.3186531
  61.5302696  61.7895966  83.9253769  60.5818138  61.9094200  83.8773575
  61.6462555  61.0146980  84.4752045  53.9060593  61.5528412  38.1538849
  53.8248596  60.7494087  37.6399460  54.4832954  62.1122780  37.6342125
  24.0452614  42.2614555  44.7911186  24.9495239  42.4023170  44.5105858
  23.9385300  42.8331528  45.5513802  58.8549881  14.1037693  61.5047989
  58.3431053  13.3188448  61.6999969  58.4062233  14.5031929  60.7596130
  68.7414093   9.9801874  28.9479427  67.9065933   9.8254576  28.5059299
  69.1455917   9.1144714  29.0063038  64.1604614  54.4919777  29.8524609
  64.2187195  55.4388504  29.9800110  63.7729607  54.3908119  28.9830685
  34.5410614  65.8745880  41.3680382  34.6099243  65.9286880  42.3212242
  35.3071747  65.3666534  41.1010017  83.0304337   6.3358383  62.4656982
  82.8881226   7.1421003  61.9697952  83.7045135   6.5641694  63.1057892
   9.5498438  56.8197365  46.7937927   9.4751501  55.8858604  46.5975151
   8.9477406  56.9597893  47.5246086  45.8585434  48.9590034   0.3799288
  45.0134125  48.6669846   0.0382994  45.6353836  49.5292625   1.1156180
   1.9123315  50.4934998  22.3797283   1.5613587  50.3889008  23.2640972
   2.4895346  49.7392998  22.2603588  30.2256546  39.5411186  26.3291302
  30.5096912  39.1198769  25.5178890  30.2261982  40.4765587  26.1261940
  57.3366241  70.8559647  60.5763092  56.8822708  71.6111374  60.9498100
  57.5147171  71.1077042  59.6701393  64.4840317  48.6958771  84.2423248
  64.8943634  48.0747261  83.6406326  64.1414185  49.3872871  83.6759338
   4.3801689  41.3872833   9.0754957   4.9903364  41.6628571   8.3914003
   3.6917617  40.9156151   8.6066084  58.7473488  53.7309570  79.8026428
  57.9791794  53.2763596  80.1483154  58.6124954  54.6471786  80.0446701
  74.3066406   2.3988507  72.5402908  74.4229736   1.7775257  71.8215103
  74.1015091   3.2283866  72.1089859  -0.0511771  64.9468002  75.3151245
  -0.2434146  64.5090942  76.1443939   0.8367903  65.2871780  75.4241714
  20.6373787  15.1887789  83.3349457  19.9236717  14.7019577  82.9228058
  20.5340290  15.0185928  84.2712097  85.5551682  35.3082466  83.8304367
  85.3796310  35.9240189  84.5419464  85.6137314  34.4552879  84.2608566
  53.6305008  12.8284826  88.7588959  53.7223587  13.5596762  89.3697586
  54.4985733  12.4258537  88.7350006  85.5303802  57.8665085  24.7420845
  85.8791733  58.5011940  25.3679810  86.0389938  58.0123901  23.9444237
  76.3508377  38.5786057  23.1156044  76.7265778  37.7614098  23.4430790
  76.9520264  38.8590584  22.4255714  37.1967354  15.3255901  11.7330341
  38.0256042  14.9557028  11.4290752  37.2916603  15.3765297  12.6841516
  36.6511612  38.6928062  73.0704346  36.7029800  38.5201874  74.0105133
  37.4061089  39.2521667  72.8876648  80.8729706  57.8097229  36.3156853
  81.6665268  57.3324547  36.5579910  81.0160065  58.6962204  36.6471863
  41.1019554  64.5121460  41.8422089  41.6844025  64.5939178  41.0870285
  41.6422729  64.1031494  42.5182343   2.6610956  19.6862545  28.6338005
   2.3066204  20.4743862  29.0454197   2.0915051  18.9799576  28.9386673
  49.3190689  19.6099720  38.9298401  49.0102577  20.5150299  38.8881721
  49.7522087  19.4657154  38.0885239  64.3713760  54.7954674  52.0188904
  64.7048798  54.8779678  51.1254692  64.2687378  55.6980820  52.3205376
  13.0010414  47.7927475  56.3613815  12.2203255  47.7903748  55.8075676
  13.4934301  47.0200005  56.0845299  17.4293842  55.7903938  50.8636398
  16.9101028  56.4944992  51.2519836  18.2561817  56.2078247  50.6220016
   6.0149741   5.3434343   1.7744126   5.6063833   5.9870062   2.3532913
   6.3592024   5.8606906   1.0462748  19.0209846  65.3419266  56.9424286
  19.1771793  65.9031677  57.7019348  18.5751019  64.5739822  57.2997437
  29.4005890   0.9854712  20.3322029  28.8117256   0.5277770  20.9321918
  29.0087910   1.8524436  20.2269192  41.3231087  26.3086510  15.9388838
  41.2562675  26.1181526  15.0032158  41.0855255  27.2329540  16.0126934
  70.8492432  25.6549683  25.6696892  71.0835800  25.2721214  26.5151138
  71.3240662  26.4856701  25.6430740  11.9731226  43.0941010  85.6207581
  11.9856453  42.1820107  85.9108810  12.8217831  43.2223244  85.1970062
  24.0160675  37.8065414  10.3812199  24.3859119  37.7120895  11.2590170
  23.9164314  36.9084549  10.0653896  60.1494331  36.8311348  55.0060997
  60.3977203  36.6340179  55.9092751  60.3489037  36.0295410  54.5224762
  16.4958305  47.9022675  35.6353683  16.2317924  48.3773880  34.8474770
  16.0081291  48.3229446  36.3434677  67.5845108  35.8430061  76.7811050
  67.5437241  35.1694794  76.1021881  67.4615707  35.3644562  77.6009293
  72.6888809  70.9293289  11.6186638  71.9244385  71.3330841  11.2077675
  73.3922119  71.5665894  11.4943180  20.0340767  15.0036077  53.5922050
  20.0338326  15.5666656  52.8181267  20.4380474  14.1882505  53.2951660
  54.2033119  62.9891243   2.2886484  55.0398674  62.6789360   1.9419682
  54.4309158  63.7582664   2.8109956  69.3284302  26.1672726   3.4718738
  69.0008087  25.6081924   2.7673714  69.6543350  26.9488068   3.0255275
  78.9667206  16.0996094   9.6189690  79.6357117  15.4152803   9.6382246
  78.2234116  15.6953812   9.1713877  26.2787590  60.9912987  17.0787182
  26.0514450  60.9178162  18.0056267  26.4806194  60.0950928  16.8098335
   3.5804710   7.3673577  59.4610672   3.4460886   7.8708920  58.6581802
   3.1648417   6.5229383  59.2865944   3.4501910  69.3780899  67.1861343
   2.5919936  69.7808990  67.3183060   4.0124617  69.7920074  67.8409271
  57.1852798  14.4797850  83.9472427  58.0238914  14.0366745  83.8183441
  56.8231087  14.0815144  84.7387238  28.0924530  24.5233078  73.8413467
  28.6775970  24.7736149  73.1263809  27.2284565  24.8246555  73.5603943
  36.9499626  28.5191097  46.9031181  36.6787872  27.9623508  46.1732445
  36.3640404  29.2747135  46.8585320   8.2662382  34.0577087  56.5154228
   8.9221821  33.6910744  57.1083374   7.4900990  34.1789360  57.0623627
  39.0726738   7.9822245  23.0106030  39.4203491   8.8297529  22.7330246
  38.2226906   8.1878672  23.3997936  70.5856628  55.3502808  75.0213318
  70.2700958  54.4470863  75.0512009  71.2099304  55.3620071  74.2958145
  60.6968384   6.0629458  19.7519970  60.0319443   5.8052120  20.3905277
  60.2991524   6.7894101  19.2720737  46.2493668  29.0518131  11.6983128
  46.6927719  28.2212143  11.8707361  46.9338188  29.6197739  11.3445101
  56.1042328  28.2056656  10.7810116  56.8876152  28.6948242  10.5294895
  55.6950569  28.7416115  11.4604006  28.0232868  64.5884247   4.4536080
  27.2912273  64.7711716   3.8646066  28.0143356  65.3131561   5.0788364
  63.4881210  38.0254135  32.0826492  62.8853188  38.6437759  31.6697464
  63.8414993  37.5133934  31.3551922  57.4793701   3.5971322  62.5539284
  57.2174988   3.8947062  63.4251938  58.1640663   4.2105036  62.2870979
  68.6671524  22.2543430  76.2212906  68.7044067  23.1043854  75.7827988
  69.3763046  22.2848282  76.8634796  22.8196754  55.5392456   3.1551621
  23.0018158  56.1555290   3.8645647  21.9014587  55.6939125   2.9333766
  76.6363983  10.0944929  10.9554758  77.3579407   9.6488218  10.5116444
  75.8849106   9.9693537  10.3759699  46.9688568  24.5695591   4.8737903
  47.3642921  25.1662388   5.5092726  46.5839119  25.1447010   4.2125354
  78.2136154  55.8656120  62.1324577  77.5580978  55.6069794  62.7802505
  77.7201920  55.9627380  61.3180084  14.7879667  12.3763771  19.8845539
  14.4297371  13.1804934  20.2604542  15.4097967  12.0615845  20.5406532
  81.9136200  53.8266678  67.1229858  81.9505615  54.6151390  67.6644440
  81.8502197  53.1073723  67.7513428  37.4692726  52.9061317  54.3968620
  38.0511131  52.2900276  54.8419609  37.6110954  52.7390327  53.4650917
  29.9978542  54.4130363  47.0916328  30.9510517  54.4878006  47.1369667
  29.8205185  54.1561813  46.1867523  76.0828323  64.3577576  10.4109230
  75.2937851  64.8958435  10.4749737  75.8029327  63.4874725  10.6946211
  40.0273170  21.1761360  69.9766388  40.4315834  21.2144318  70.8434372
  40.7029152  20.7980232  69.4137650  25.1046524  65.4788437  67.8045959
  25.3418980  65.7988129  68.6749725  24.9046230  66.2702942  67.3047638
  57.3343887  15.3533573  13.6767845  58.2768097  15.4942465  13.7674580
  57.0259094  16.1102161  13.1785498  57.4370499  10.8847542  13.0578794
  56.6422729  10.6274691  13.5251741  58.1283607  10.8400230  13.7184238
  56.8695602  69.2949371  14.4751301  57.5757370  69.5029602  13.8633490
  56.2621803  70.0308151  14.3990021  46.8965302  44.6520271  28.7223339
  46.2097855  45.2985611  28.5592213  47.3752785  44.9961891  29.4763813
  64.3089752  61.5043564  14.6094790  63.7603874  62.0270576  14.0246143
  64.9480820  62.1260872  14.9576492  45.2417679  35.9570999  61.6124268
  45.3666267  36.7292442  61.0606689  44.9934082  35.2635841  61.0012093
  78.5316620  60.6659660  84.1428070  78.6291962  60.8855362  83.2162476
  79.3095398  61.0363503  84.5598907  60.1371841  70.4297485  67.5180206
  59.4619522  70.2514496  66.8634109  60.3234062  69.5759735  67.9086914
  84.3903198  37.5408325  38.6212234  84.5836029  37.2024345  37.7469444
  84.6420441  38.4635086  38.5819702  84.5480804  45.1224289  24.0636444
  84.2672424  44.2741547  24.4068508  83.8920898  45.7403793  24.3862114
  37.8523750  59.9599304  18.5681419  38.4891815  59.2486801  18.6376171
  37.7041550  60.0576820  17.6275520  66.4322357  55.9857216   7.8984647
  66.3379669  55.0568886   8.1096725  66.9437637  56.3454247   8.6231585
  69.6584854   0.9882445  65.3237076  70.5121841   0.8222159  64.9238739
  69.2086029   1.5580823  64.6999054  45.2695961  49.9965591  76.6755447
  45.7525330  50.2754173  77.4535141  44.6670418  50.7183533  76.4961777
  66.7324448  58.8271141  20.2641277  65.9361725  58.5293045  19.8242435
  66.6235504  59.7750130  20.3406811  30.8221607  49.1022911   4.0128160
  30.1815033  48.9757156   3.3129821  31.0023689  48.2192001   4.3351626
  51.7852783  43.4014893  31.7437401  51.5175781  43.0015335  32.5711479
  50.9799919  43.4474983  31.2283516  75.0095139   6.3813791  81.4803619
  74.2981567   5.7526298  81.6023178  74.7477951   7.1425905  81.9983292
   7.6752439  62.9364433  30.6374226   8.1535463  62.1334496  30.4308777
   6.8489385  62.8521347  30.1616669   1.8264060  55.4626503  21.9871368
   1.8893523  55.9159508  21.1464291   2.5780082  55.7804527  22.4874668
  73.2776642  53.7028847   1.2094606  73.8979797  53.5028000   0.5084554
  72.7278137  54.3996315   0.8510746  45.4931831  66.6169815  32.4957237
  45.6581383  67.1362228  31.7086945  46.3056870  66.6786346  32.9979897
  79.3146286  46.8426247  17.6049061  80.1026840  46.3240280  17.4428463
  78.6644058  46.4856911  16.9998970  60.4385262  31.5283279  64.4205093
  60.9415779  30.7163258  64.3586655  60.9270706  32.0658531  65.0439072
  10.3257847  17.1892319   3.7234547  10.7808743  17.1273155   4.5632715
   9.5256872  16.6783810   3.8463690  58.7722244  59.5613518   5.2086911
  59.2661362  58.7789688   4.9634151  58.4769897  59.9291306   4.3757405
  38.2512474  18.2366695  67.4487076  39.1413803  17.8855858  67.4234924
  38.1081276  18.4607697  68.3682327  17.6568699  65.8009033  71.1055298
  18.0208321  66.6360550  71.3992767  18.1299534  65.1416397  71.6132584
  33.2136574  50.2701912  17.7286510  32.9720917  49.6356926  17.0539017
  34.0453682  50.6356049  17.4270477  43.5170441  48.5263138  72.4834900
  42.9500237  48.8603592  73.1785736  43.6881943  47.6173973  72.7300873
  37.9876747   0.4372463  46.8505707  37.3368378  -0.1653201  46.4906273
  37.4715462   1.1481535  47.2306442  59.0798836  69.1494598  -0.0010917
  59.9043312  69.2839127  -0.4684673  59.3307762  69.1146240   0.9219855
  52.2909546   9.0939455  82.7970428  52.2685509   8.8121138  83.7115326
  53.1456337   8.8041916  82.4779816  53.1839218  48.8672447  48.5491180
  53.7090034  49.6339798  48.3196945  52.4523582  48.8845978  47.9320755
   5.6556926  67.3122025  20.9823933   5.3369474  66.5816803  20.4523315
   5.4379606  67.0682755  21.8820171  85.6148834  36.5151329  66.5701752
  85.9501419  37.4098282  66.6280899  85.7933884  36.2504120  65.6677933
  58.7787781  28.5401230   4.9142094  58.0439644  29.1517754   4.8677158
  59.3363647  28.8880577   5.6101036  25.5844631  24.5567894  47.4359360
  25.9923325  24.2567120  48.2482338  25.2744770  23.7557678  47.0134392
  74.3085709  26.0670471  62.5928688  74.7684174  25.9368534  63.4222221
  74.3319092  25.2092133  62.1688309  34.2445221  19.8054237  75.6318817
  34.7362709  19.2369232  75.0392380  34.7535172  20.6154385  75.6640472
  82.3665161  33.7103043  36.4916191  82.2695312  34.2270355  35.6917381
  82.4501801  34.3611145  37.1885262  33.1215210  37.4547653   1.7016912
  32.8392029  37.1634941   2.5686920  33.6661377  38.2231178   1.8727322
  63.2751312  16.0248222  85.5200958  63.5590630  15.5814829  86.3195114
  63.0284691  16.9036465  85.8082962  63.7666435  64.6662445  39.6933174
  64.5747223  64.5216751  39.2010384  63.1785927  65.0911789  39.0689354
  45.7418137  33.5413933  29.7039013  45.3526306  32.7407150  30.0555897
  46.5464668  33.2486763  29.2760258  71.1845856  25.6442833  13.8880053
  71.7966919  25.2010403  14.4754496  71.0060654  25.0031662  13.2000141
  29.2791557  62.6658401  26.0207882  28.3695984  62.9483528  26.1163120
  29.3658600  62.4472122  25.0929317  55.4919395  22.4286766  12.2650404
  55.8549614  22.4270859  11.3793516  56.1787643  22.8201771  12.8046999
  83.2377167  47.0092087  69.6152878  83.0200653  46.8427315  68.6981506
  83.0004578  46.2001305  70.0684280   0.7872431   4.0198631  29.6849461
   0.2519445   3.7988265  28.9228249   1.0853086   4.9138570  29.5171280
   4.8391056  55.6789055   8.6829233   3.8920286  55.7169571   8.5493975
   5.1712470  56.4767723   8.2714338   4.5870557   8.6398888  61.9379349
   4.4725146   8.2770157  61.0596199   3.9435089   8.1767702  62.4742203
  12.0252609  44.1988182  61.1209145  11.2256632  44.6874924  60.9257812
  12.2358418  43.7477684  60.3033295  74.1642227  33.3335342  12.1783447
  73.7157364  33.9871521  11.6418066  73.5210876  33.0871696  12.8431101
  29.6372051  48.0793457  52.4549179  29.7895031  47.8424034  53.3697357
  28.6846046  48.0734978  52.3613815  25.7771435  14.8375740  88.2478485
  25.8659191  15.7906466  88.2459488  26.0882988  14.5663223  87.3842239
  76.2211609  60.2017517  17.1754646  76.6022720  60.9721603  17.5967255
  75.5999985  60.5585899  16.5406017  65.5867462  34.9389153   6.8465633
  64.9223099  34.3023643   6.5828347  65.4169617  35.7039986   6.2969651
  42.9819107  53.8610306  61.7681885  43.6873436  54.4832649  61.9454536
  42.7671700  53.9988632  60.8456268  10.1678476  39.2139091  30.0741272
   9.9175119  39.3622627  30.9860229  10.1964035  38.2612457  29.9855423
  54.9020958  61.7332153   5.4903884  55.7308006  62.1835060   5.3269348
  54.2309418  62.3727837   5.2521958  54.6411629  42.5658569  57.9860954
  55.0470543  41.7301559  58.2165031  53.7900238  42.5474396  58.4236565
   9.5006304  41.5935402  70.9166641   9.9904737  41.7816811  71.7172241
   9.1665134  40.7055473  71.0434189  26.2877026  63.0272484  12.9797630
  26.9946365  63.5732422  13.3238068  26.5772991  62.7869911  12.0996246
  12.7395859  10.8163891  19.4689102  12.0586500  11.3359470  19.8962498
  13.5412521  11.3248053  19.5916977  72.1046982  42.0231247  67.4408722
  71.6935349  42.1360512  68.2978592  71.3985748  42.1798401  66.8139191
   1.2896432  29.4876881  77.5910645   1.7916734  29.3451748  78.3934937
   1.3608258  28.6609116  77.1139832  80.7857437  65.1792221  12.9806662
  80.9311142  65.4729996  13.8799953  80.3348999  64.3398819  13.0727987
  55.5190392  57.0545502  56.6376724  55.6586800  56.1110115  56.5572472
  55.4088478  57.3580284  55.7365646  30.0543690  56.5463066  87.7335892
  30.0901680  56.7203445  88.6741486  30.3984127  55.6578712  87.6411362
   0.7577808  67.1981964  84.5259705   1.6333370  67.5848465  84.5142212
   0.5737017  67.0502853  85.4535828  45.6719513  51.8720551  30.2502003
  45.1370964  52.6138000  29.9673939  45.7221184  51.9619827  31.2018452
  16.7707825  28.6935005  78.1757202  16.7482662  27.7430782  78.2871857
  16.7051678  28.8253479  77.2299118  72.1711426   6.1110029  48.2006645
  71.7204971   5.4916468  47.6265984  71.4778824   6.4756932  48.7507782
  63.3136101  18.4512939  25.5947456  63.2161751  17.7309513  26.2175179
  62.4547005  18.5262623  25.1789513  79.8856735  15.6727009  60.0958214
  79.7034760  16.6003723  59.9459534  79.0807648  15.3302755  60.4845390
   9.6924524  14.3615894  25.3827152   9.7988615  14.4689817  26.3278999
  10.2467766  15.0419083  25.0004539  18.9399700  56.0130463  22.6723232
  18.5170403  55.5197792  23.3752098  19.3037205  55.3423386  22.0943375
  67.2561646  25.6287575  55.5294876  67.7979050  24.8451023  55.6224174
  67.2049713  25.9908180  56.4140892  53.4554520  34.0842819  24.6702385
  54.2297554  33.5215302  24.6682339  53.1256256  34.0410538  23.7726974
  49.1369591   7.1969843  54.8290215  49.6136665   6.4655080  55.2213554
  49.0379753   7.8281884  55.5417747  59.9185562  13.9373560  20.1308556
  60.4220848  13.4037619  20.7456455  59.4914589  13.3019838  19.5562935
  61.8671608  35.2759895  20.0356503  60.9396400  35.0452843  20.0876980
  62.2705803  34.8135605  20.7702579  78.3203201   8.9861155  41.3408394
  78.9073563   8.3246260  41.7069702  78.7102051   9.8214207  41.5986900
  60.6819420   7.8548965  65.0185699  59.8947754   8.2213755  65.4214325
  61.3687553   8.4933376  65.2106934  77.1595459  44.1671524   4.5994878
  77.0133896  43.6875992   5.4149017  78.0943756  44.3727493   4.6068058
  23.5931702  53.8484840  32.6601524  24.2477531  54.3733521  33.1208801
  23.5950947  54.1931534  31.7671604  38.9866180   4.6393585  61.1071854
  38.6171722   4.2217989  60.3291168  38.5852127   4.1749673  61.8416557
  60.8676758  61.7955360  38.2857857  60.4733162  62.1853638  39.0660095
  61.5028610  61.1662064  38.6274300  83.3943558  71.0692520  85.0487900
  83.2934952  70.1457291  85.2793579  84.3409882  71.2010040  84.9962921
  78.3609085  22.2260532  74.8811111  79.2596436  22.3569260  74.5788269
  77.9187698  23.0514221  74.6823425  59.2903633  24.5457878  82.2756729
  60.0027695  24.9856968  82.7395554  59.7268028  24.0432129  81.5877991
  51.3396339  63.4293633  36.9498940  51.3119926  63.3120232  37.8994751
  51.7598648  62.6341286  36.6224251  54.8451157  55.3941269  70.8804398
  55.4639778  54.8618507  71.3803635  54.0447235  55.3872871  71.4053726
  13.5396070  62.4123383  60.7944870  12.6053162  62.5444565  60.6336250
  13.5731840  61.8914070  61.5968170  35.2925072  17.1696949  72.0967941
  36.0539093  16.8367710  71.6217651  35.3304253  16.7317791  72.9471054
  31.5235729  47.3932495  25.7852631  30.8944492  47.5472908  26.4900379
  32.3644753  47.6684952  26.1504440   7.2008185  59.0155106  84.2275009
   7.9871278  59.3706093  84.6420593   6.8386736  59.7501297  83.7321091
  32.1091614  44.0043488   8.9378433  31.3132801  43.7722664   8.4593658
  32.0142593  43.5700035   9.7855272  14.4665194   4.2815061   5.3891277
  15.0521955   5.0365705   5.3335099  13.6376715   4.6438370   5.7021127
  63.1274223  28.2706013  53.2152367  63.7933960  28.9391384  53.3757668
  62.7744064  28.4865837  52.3521271   9.3167524   1.2613482  22.8601398
  10.0465431   0.6828558  23.0814648   8.5387049   0.7901679  23.1582394
  50.3378296  18.9300976   0.5092326  50.5792046  18.3338089  -0.1995758
  49.4089241  19.1103325   0.3647302  33.4460220  61.5965118   3.7858107
  33.1577530  60.7061272   3.5849485  33.2536354  62.0953865   2.9918685
  34.9726562  41.3346138  56.1746216  35.8741302  41.1578712  55.9056587
  34.4400787  41.0389671  55.4362526  12.7379780  21.7384682  84.4592056
  12.1177521  21.1013565  84.8136597  13.5990543  21.3730774  84.6623535
   4.6867690  50.5431633  12.8826714   5.4630446  51.0849724  12.7410059
   5.0256457  49.6498947  12.9415417  62.3558998  70.9414597  65.6296997
  61.7062454  71.0303345  66.3270340  62.2641258  70.0367889  65.3307343
  16.1804199  54.2699013  12.4621372  15.4581261  54.2561722  11.8341761
  16.4204140  55.1939659  12.5309725  70.8164291  56.0605316  51.5208473
  69.9747772  55.6281319  51.6653519  71.4412460  55.5449677  52.0307808
   9.9056864   5.8348389  13.2100067   9.3884792   5.3153405  13.8255148
  10.2665234   5.1926694  12.5987406  28.5092335  49.1486473  13.9896984
  28.7262974  48.7952995  13.1269932  29.2736816  49.6702805  14.2341337
  49.1384964  20.9331036  18.1748981  48.8293877  20.1909676  17.6553650
  48.4929771  21.6218719  18.0163689  46.3304520  68.9021759  52.9821930
  46.6102524  68.7332306  52.0825272  46.7782516  68.2344589  53.5016747
  52.0024338  27.2038937  43.8446655  52.6561127  26.6709423  44.2973251
  51.3463631  26.5746956  43.5448074  74.0420074  12.2428150  20.9830647
  74.8782501  11.7996836  20.8396530  73.8312454  12.6364546  20.1363888
  56.7668419  19.2003670  54.5718002  57.1552315  18.3255138  54.5681496
  55.9252739  19.0869656  55.0135422  81.0726166  31.5445671  84.7350616
  81.1977386  32.3774109  84.2801514  80.1536026  31.3243065  84.5830154
  74.5771561  36.4432106   4.6399388  74.3618393  37.2691002   5.0732727
  75.3842468  36.6280327   4.1596489  82.9021149  54.2225418  26.0731087
  83.1370850  54.3750114  25.1578102  82.1866531  53.5878448  26.0341892
  75.8448029  53.2774353  24.9315929  75.1799850  53.9153366  24.6720963
  76.6772308  53.6977425  24.7156525  25.7138367  66.7805252  44.8472061
  25.6504803  66.9835587  43.9139328  26.1871681  67.5231552  45.2222862
  83.7035141  54.5606041  23.5453529  84.4415741  54.7330208  22.9607430
  83.1267776  53.9874001  23.0403366  24.3692360  15.4410782  43.8738480
  24.3744526  15.0217648  44.7343025  25.2733078  15.3703279  43.5674515
  45.2614975  39.5695915  21.3082256  44.9669075  39.1936111  20.4787159
  44.4627914  39.6575775  21.8283768  13.4768467  57.1933556   3.4869447
  13.8190804  58.0851326   3.5489004  12.8153534  57.2380943   2.7965419
  46.6668739  68.3392334  13.2176561  46.8654938  67.4410477  13.4823084
  45.9059029  68.5816727  13.7452765  68.8513870  45.0311813   0.4821458
  69.7891312  45.0831528   0.6669976  68.5061264  45.8814392   0.7543391
  31.5645409  56.5189819  83.9578934  31.6918659  57.3563766  83.5120239
  32.1363144  56.5662308  84.7240982  61.2725410  35.7848854  39.8658524
  61.7587852  34.9847145  39.6670418  60.6715469  35.5320740  40.5666542
  21.4794827  31.4462585  16.5143929  22.2878742  31.7501450  16.9271717
  21.7400532  31.2066994  15.6250420  82.7839966  50.6940422   1.3450135
  83.1306229  50.8438339   2.2245829  81.8882675  51.0297050   1.3801949
  81.7108536   2.9913538   5.1120014  82.0676804   2.2623425   5.6193972
  80.7634201   2.8565810   5.1328092  62.2520523  38.3693848  28.3533440
  61.4036369  38.7834778  28.5113029  62.4919968  38.6448479  27.4685955
  31.2856846  57.9310303  37.4067078  31.9758396  57.3406029  37.7088890
  31.1749916  58.5564461  38.1228333  61.8356628  61.1634293  70.6653214
  62.1309929  61.1234932  71.5749435  61.4553070  60.3009491  70.4989090
  80.4071808  52.2193489  82.1109543  80.8465576  52.3936119  81.2786026
  80.9211121  52.7016220  82.7586594   4.5146394   7.9666767  70.8570404
   4.9995127   8.5331469  71.4572449   3.7252169   8.4640598  70.6433792
   1.0972095  13.0167446  18.5833569   1.0926602  13.6983862  19.2553501
   1.8229522  12.4430218  18.8290634  43.9167633   6.0849881  29.0916843
  44.6027451   5.4209833  29.0226765  43.2932129   5.7207718  29.7199841
  65.5065231  62.0869560  29.0175285  64.9923782  62.4052124  28.2755032
  65.6322021  61.1548691  28.8396339  35.2551727  59.2034149   7.9797544
  35.1429291  59.1088219   7.0338759  35.2764168  58.3050423   8.3094568
  60.0919075  16.2602654  62.4103279  59.6800079  15.4745283  62.0509033
  60.0435448  16.1433735  63.3591347  20.2756672  13.5524979  73.3342743
  20.7612686  13.2502337  74.1017761  19.3988590  13.7453861  73.6662827
  75.6880722  38.5684586  40.8595695  75.6007843  39.3469582  40.3095245
  75.8690262  38.9123306  41.7343483   6.7108417   8.2822590  15.6495800
   6.5350332   8.3658915  16.5867710   6.8651905   7.3468814  15.5173798
  65.1146851  12.2932978  86.4681396  64.8109818  12.4157677  87.3675842
  64.8831024  13.1089792  86.0239944  76.5877991   1.7950388  83.9770660
  77.4022827   1.3027245  83.8747482  76.5222855   2.3183475  83.1782608
  49.6057892  33.7999420  57.8727989  49.8420525  32.9901276  57.4204597
  50.2592278  34.4361038  57.5820236  43.6469345  63.1105080  88.0933380
  44.2385979  63.5369377  88.7132797  43.4154091  63.7995300  87.4705429
  23.5873795  70.5185852  85.7101212  23.6918526  71.1596451  86.4132385
  23.5774193  71.0417175  84.9085846  26.4336185  44.7732201  25.9322090
  26.6084480  45.6430054  26.2915707  27.0796432  44.6683731  25.2337170
  67.8978195  49.2427216  13.6152210  67.2192001  49.9165306  13.6562872
  67.4142227  48.4198036  13.5433245  51.5997162  28.9541378  64.4346008
  50.7161331  28.7744999  64.1132812  51.7603149  28.2727547  65.0874100
  45.3686562  53.6491737  64.9198227  44.8750801  54.4411850  65.1327286
  44.7372055  53.0867767  64.4712448  53.7614708  15.0837984  65.1115570
  54.5682144  15.5120478  64.8252106  53.6986847  15.2902851  66.0441132
  56.9430962  39.4677963  81.3461380  56.0556908  39.4082451  80.9923019
  57.5069809  39.1795731  80.6283646  19.3822517  62.8578110  38.2772141
  18.5895863  62.4391670  37.9415779  19.3527966  62.7041245  39.2215347
  33.4150543   7.8040843   3.6737328  33.9792366   7.7908711   2.9005864
  33.9311447   7.3719068   4.3542514  82.0181198  14.6667967   3.9659560
  81.1978149  14.9090958   4.3956432  81.7732391  13.9686670   3.3585975
  27.1936684  28.0341377  65.7974777  26.3846226  28.1180153  65.2928543
  26.9044018  27.9951038  66.7090836  42.5464783  54.6502533  26.9589672
  41.6640434  54.5676956  27.3205299  42.8809052  55.4677963  27.3277645
  32.6070442  24.3515320  10.6000309  32.0611191  23.7587471  10.0834999
  32.0543900  24.6022377  11.3402681  66.6912994  64.5228195   3.5898206
  65.8012238  64.7232208   3.3002918  66.5744934  63.9153404   4.3202734
  58.2899742  10.5526524  74.8995361  59.0415192  11.1454544  74.9008102
  58.6157036   9.7520771  75.3108902  32.4077454   5.0126262  24.1788731
  31.6265221   5.1977386  23.6576653  33.0921326   5.5537248  23.7851028
  58.1570892  69.9918747  69.8314362  58.3857422  69.6251297  68.9773560
  57.4636269  70.6241150  69.6427231  70.1528778  59.3858032  33.8912964
  70.0049896  60.3314705  33.8829079  69.2983398  59.0116310  34.1057358
  56.8095016  71.5448990  54.0944328  57.2618523  72.2290802  54.5878906
  57.4269943  70.8136978  54.0775948  26.5575142  57.7544785  22.4724483
  26.1431217  57.8248596  21.6124744  27.0322609  56.9238510  22.4422932
   1.9332870  67.8160172  70.4239960   2.3756852  67.4718628  71.1999283
   2.3425434  68.6680603  70.2731018  66.7736206  14.2976999  84.9890976
  67.0467682  13.5761976  85.5557175  66.3984299  13.8692303  84.2197647
  48.5727348  40.9630775  60.7658958  48.8215027  41.8279839  61.0919037
  47.6944580  41.0863495  60.4058037  46.7540817  35.0559044  47.4186325
  46.3323441  34.3239861  47.8688164  46.5221100  34.9363556  46.4976959
   3.7434206  53.0785255  31.5323582   3.8831556  53.7135010  30.8298550
   4.4774828  53.2178650  32.1306648  66.4609985  47.0992050  14.7994452
  66.8891220  46.3360519  14.4114504  66.2518845  46.8278847  15.6932507
   2.4985995  46.2209625  36.0574303   2.5435915  45.4633827  36.6407623
   2.8655186  46.9406967  36.5708351  65.5114136  65.9103394  74.4410934
  65.3771286  66.0089340  73.4984970  66.4617233  65.8590317  74.5435638
  20.4986877  58.0130081  22.0562515  20.0016403  57.2790871  22.4175510
  20.5163383  58.6604118  22.7610855  27.5828629  60.1247330  11.2609806
  28.0366879  59.3444328  10.9425392  27.7156620  60.7766342  10.5727816
  21.9334183  55.0238342  73.7645721  22.8707905  55.0237083  73.9583893
  21.6678524  55.9377708  73.8666916  37.1893501  42.8360558   5.5733247
  36.8869514  42.8788300   6.4804950  37.4480247  41.9227753   5.4498949
  72.0473709  44.4240952  60.9442940  71.2534866  44.4840469  61.4756966
  72.0876617  43.5059624  60.6766434  10.4433222   5.0413036  59.8321533
   9.7341785   4.4424205  59.5983047  11.2262020   4.4907856  59.8483276
  12.9856319  62.1906967  69.3234406  13.1869736  62.6030693  70.1634674
  13.1949224  61.2658768  69.4543610   1.2746594  22.7142639  64.1239166
   1.4916043  22.1012688  63.4214897   1.1284500  22.1589622  64.8897476
  77.2254257   1.5084496  75.6913223  76.7611084   2.2125592  76.1439438
  76.6695480   0.7386216  75.8121109   0.7022438  66.5065765  77.9130783
   1.4447252  66.1423721  77.4310913   0.7744501  67.4524460  77.7852325
  18.3135376  13.4633303  80.5441971  19.2383213  13.3849325  80.3099747
  17.9055996  12.6803312  80.1744308  56.2426834  52.1513023   7.0433717
  57.1821594  51.9777794   7.1026258  56.0299568  52.6001854   7.8615918
  21.3010883   7.6559229  22.8998871  21.5013409   8.1311903  23.7062683
  20.6531906   8.2020006  22.4546261  75.0830078  59.6991386  36.9906769
  75.4464035  59.2961311  36.2021599  75.2911453  60.6292152  36.9019928
   3.9767885  36.5956497  37.8819466   4.6732183  36.8124695  38.5017929
   3.5335999  35.8428993  38.2733307  40.1280174  41.4040947  39.0923042
  39.2592697  41.0057678  39.0389786  40.3790321  41.5542030  38.1808815
  49.1638947  15.6643429  64.1794891  50.0209465  16.0129204  63.9341469
  48.5372810  16.2820892  63.8026924  23.1582012  70.8534622  89.0443878
  23.4769516  71.7168884  88.7814713  22.2919159  71.0207748  89.4155884
  36.4993515   1.5403140  67.1615753  37.0155258   0.7427384  67.0446548
  36.8233986   1.9175848  67.9794312  60.8649445  57.9156609  11.8063631
  60.8991051  57.1710434  12.4068680  60.0464287  57.7973442  11.3244305
   7.5251861  14.7061243  52.9582901   7.0026917  13.9227972  52.7861519
   7.9507356  14.8985596  52.1227608  61.6848640  15.7347517  25.4378605
  61.2518234  15.3450594  26.1973648  61.2059860  16.5484715  25.2804756
  62.4441376  41.4325829  46.5858383  63.2547226  41.0843315  46.2144814
  62.1986198  40.7997627  47.2607384  64.1071243  27.5980282  55.7538300
  63.6586494  26.7850571  55.9865990  63.6372375  27.9188519  54.9840851
  65.6033478  15.7268801  80.2512665  66.0596695  16.1226482  80.9938126
  64.9332581  15.1718102  80.6501541  62.8236275  67.2471542  54.3359146
  62.8036270  66.3448792  54.0169754  62.6370621  67.7788849  53.5621681
  48.5605545  11.5805349   1.8627700  49.0608940  11.3874884   2.6556299
  48.9041901  10.9720726   1.2086124  19.0001068  51.1656456  33.1110458
  18.3503799  51.0600815  32.4161034  18.4863911  51.1835938  33.9185143
  11.5574083  41.3677902  65.0700836  11.4978704  41.9949303  64.3494110
  12.4052210  41.5489616  65.4758224  57.9691582   1.3039848  67.8256989
  57.2527885   1.0500371  68.4075546  58.5118599   0.5184969  67.7570267
  20.2851410  50.7517548  51.3303337  19.4965343  50.2096291  51.3510323
  20.2481499  51.1961174  50.4833336  56.6500015  16.2237682  64.9071808
  56.6118889  17.1795273  64.8710556  57.5855446  16.0216389  64.9187241
  66.4664841  17.9191380  70.4165726  66.2229996  17.2947865  69.7331009
  67.4202881  17.8575344  70.4684830  64.5325317  28.5346832  58.2999153
  64.4874954  28.2565956  57.3851089  64.4692154  29.4890938  58.2635155
  27.2236366  41.1743469   0.6491970  26.4905891  41.6971931   0.9740157
  27.8895340  41.8186646   0.4090541  23.6935349   8.8523312  21.5601692
  24.1428928   9.6908531  21.4543839  24.0932255   8.4628372  22.3378391
   1.1051074  31.0999088  61.7995071   1.7924564  31.2441025  62.4498863
   0.9129319  31.9726715  61.4566040  79.2275238  60.9161377  77.5014267
  79.7787399  60.9496765  78.2832718  78.4300995  60.4718590  77.7894592
  62.4157104  35.2486153  52.1997223  62.2935944  35.3577385  51.2566376
  63.1468925  35.8275833  52.4151306  65.3685455  31.6354790  86.0915909
  64.7668533  32.0708504  86.6954575  65.9787445  31.1647625  86.6593170
  69.6747665  53.6382256  60.9296303  70.4824982  53.4991417  61.4240608
  69.0744324  54.0377579  61.5590782   6.3109956  13.2179546  77.8205566
   7.1482344  13.0176315  77.4020691   5.9835463  12.3695936  78.1193771
  83.7496796   6.5664425  80.9395676  83.3136978   6.7544508  81.7707214
  84.6733780   6.4680648  81.1705170   9.6562471  69.2697372  78.1086349
  10.1828299  68.6394119  77.6170807   9.0138531  69.5904465  77.4756165
  69.7805557  68.2525406  24.3680496  70.0084229  68.6437302  25.2114258
  70.3113861  68.7306976  23.7310085  56.7601814  51.1518593  81.0014343
  56.4630318  50.3140068  81.3563156  57.3633461  51.4915771  81.6625061
  79.4261322  35.8443794  70.2855682  79.8437500  36.5346832  70.8006439
  78.9866943  35.2942619  70.9340210  44.5115204   7.8434434  88.1233597
  45.3143501   8.0418491  88.6053772  44.2220955   8.6894016  87.7815781
  25.0275574  67.2984924  86.4221878  25.5071831  67.6998978  87.1467972
  24.8095303  68.0301514  85.8448029  27.5424061  57.4359856  81.6629105
  26.6967754  56.9875069  81.6597443  27.9659271  57.1543312  80.8520203
  53.1370239   4.8522906  54.9494286  52.9061775   5.2421980  55.7925873
  52.3351974   4.4175987  54.6590080  28.7504387  44.7975922  47.2585564
  29.1400280  44.7612190  46.3849831  28.0990639  44.0962067  47.2597008
  71.5763702  38.5317001  32.9076538  70.8191528  38.5555000  32.3226051
  72.1080627  37.8054962  32.5818176  75.2810745  56.5056190  74.6524124
  74.6566391  56.2681503  75.3379211  74.9573975  57.3396568  74.3120575
  36.3789291  65.0395889  61.9246330  35.5235786  64.8636322  61.5326538
  37.0072784  64.8214569  61.2362823  63.7442741  64.4135132  76.5019455
  64.5448685  64.0016708  76.8270035  64.0268250  64.9166870  75.7382584
   5.6402364  30.0370674  56.2687645   5.9256821  30.3364487  57.1319695
   6.2143998  29.2974815  56.0698166  33.5280571  20.5804100  80.1525574
  33.0957756  19.9511242  80.7299347  32.8153152  21.1190987  79.8089752
   2.8104775  70.4132309  70.9120941   3.3581557  71.1756897  71.0989990
   2.0896399  70.7593079  70.3859253  75.3828735  53.7442818  44.9744987
  75.0456848  54.6312180  44.8484840  74.6059647  53.2167702  45.1598854
  39.8831520  51.2617455  36.9082794  40.7534370  51.5962334  36.6915779
  39.4451828  51.9953957  37.3397484   2.5834148  65.1140137  68.3067474
   3.2798798  65.6084976  67.8747101   2.9639738  64.8448105  69.1427689
  24.5962944  54.9329529  74.4193268  25.1143112  54.3292046  73.8869934
  24.8539753  54.7391243  75.3205872  36.0962677   4.5403714   0.5214947
  35.3231430   4.1417441   0.1219854  36.6166573   4.8494186  -0.2200674
   1.1916541  29.3321877  85.6607666   0.9906141  29.0944004  84.7556305
   1.1724836  28.5017815  86.1364746  42.5273666  70.9830093  72.2517624
  42.2688293  71.1241226  71.3410034  41.9130745  70.3243179  72.5758057
  65.0078812  19.2140675  34.3607407  65.6940231  19.1561394  33.6958466
  64.9168701  18.3197346  34.6895485  49.0432968   4.7410412  83.0169754
  48.5300026   4.7210689  83.8246613  49.3995552   5.6287651  82.9814835
  79.4937668  40.7104340  63.9190674  79.1879272  41.3869629  64.5232239
  78.9128189  40.7850151  63.1619873  41.4551392  34.1992836  21.6943226
  42.1961746  34.1239548  22.2955093  41.8438950  34.1171188  20.8234901
  79.3589630  70.5123901  38.8378563  79.3448181  71.4426498  38.6128082
  79.4728470  70.0648422  37.9994240  70.2892990  26.3338470  50.6588173
  70.0274506  26.8644619  49.9064102  70.9998322  25.7840481  50.3285179
  79.4964294  47.5749779  71.7525024  79.7302628  48.1499748  72.4811554
  79.7800903  46.7049904  72.0333710  70.7936020  29.5796432  88.3740768
  71.0124435  29.8133888  87.4720230  71.6392746  29.4119930  88.7899551
  52.0934982  37.7850914  50.7946396  52.8561897  38.3406105  50.6336098
  52.0005455  37.7761574  51.7472763  13.1765900  51.2039642  12.2168655
  12.3867903  50.7975540  11.8601027  13.5307322  51.7172966  11.4907103
  76.4485092   6.1442924  37.8882828  77.2743301   6.0613956  38.3651276
  75.8112564   5.6790991  38.4302521  80.7709579  12.6048098  68.2246475
  80.6415558  13.3128357  67.5936279  80.6245880  13.0142498  69.0773926
  50.9966660  45.9073715  80.4641418  51.8759766  45.7811012  80.8206558
  50.4110107  45.7031212  81.1931992  63.7544556  14.4231997  34.0444832
  62.8085442  14.2857828  33.9934540  64.0759735  14.2030487  33.1701889
  68.9615173  15.9481983  16.0022888  69.7982864  16.1911182  15.6059952
  68.4228821  15.6585608  15.2659378  80.8933563  63.0260353  21.6909943
  80.2315979  63.7039185  21.5539417  80.4119186  62.2023010  21.6141109
  49.1879501  10.5429039   8.2085514  48.5662994  10.3402023   7.5094872
  50.0224152  10.6707382   7.7573781  32.6533699  45.8063660  77.5569305
  32.8138885  45.3998146  76.7053528  32.3326035  45.0916252  78.1069107
  74.1194839  53.7372894  87.3365707  74.9638901  53.4892693  86.9601517
  73.9892502  54.6432915  87.0565186  80.9091949  30.7436256  71.5487442
  80.1513214  31.2803574  71.3168335  80.6042252  29.8420048  71.4472198
   8.9977064  45.4844780  25.6025677   8.2374001  45.2737846  26.1445770
   8.8050537  45.0853043  24.7541714  74.7101669  59.0092697  12.0809612
  74.7631073  58.1224251  12.4372406  75.5912170  59.1884270  11.7525024
  21.1927948  70.9809418  20.6133003  21.7309570  71.6333084  20.1649437
  21.6206322  70.1460114  20.4233303  54.3230820  45.0847130  33.2383194
  53.3743134  44.9829063  33.1627502  54.4962006  45.9670067  32.9099617
  46.2872963  24.2450123  43.0558243  46.8529587  24.9729099  43.3135452
  46.5710945  23.5147820  43.6057854  55.2900276  64.4124985  21.5527515
  56.2061920  64.2116394  21.3616123  54.9828377  64.8875198  20.7805977
  45.9951172  56.4416199  17.7030029  46.8934364  56.1210327  17.6225090
  45.6481590  55.9911919  18.4730473  85.7999039  56.7119827  85.6154175
  85.8834381  56.4431953  84.7005386  85.2072372  56.0669975  86.0013885
  81.4796448  31.8262634  62.3682480  80.7260208  32.2487640  62.7802849
  81.4498444  32.1188164  61.4573402  54.5320129  22.0025158  71.9591064
  54.9923706  22.5710850  71.3418274  53.9239273  22.5853367  72.4138412
  86.6030121  43.7220078  78.7188492  86.7938156  42.8378716  79.0320969
  86.4935074  44.2401810  79.5161819  48.4534073  24.1407719   7.5973558
  47.6604691  23.6092110   7.5272021  48.9107361  23.7890606   8.3611498
  57.4333115  68.0578079   6.5984030  57.3708725  68.7410965   5.9309831
  57.9559784  68.4521027   7.2966766  12.1593075  66.8924255   6.7518067
  11.7653389  66.4920731   5.9767327  11.4225864  67.2876663   7.2179155
  38.5728569  53.0409203  42.9286499  38.0458260  52.2559166  43.0777855
  37.9392929  53.7584343  42.9291954  61.5026321  40.1707764  44.2571793
  61.6426430  40.6156654  45.0930634  62.2838554  39.6302872  44.1397171
  12.5905895  39.7158813  14.8537416  12.8131933  40.1353645  15.6848326
  12.1599016  40.4036560  14.3460970  82.5633163  21.7023315  42.4910736
  81.7461243  21.2178898  42.6083412  82.8479080  21.4808788  41.6043968
  77.9047318   3.8271317  60.1840439  76.9595490   3.6766012  60.1984825
  78.0232315   4.5466056  59.5639267  17.1321526  53.9033089  20.2150326
  16.2956161  53.7633781  20.6587219  17.6968575  53.2030869  20.5421848
  76.8839645  56.0722084  43.5440788  77.0300217  55.5848999  42.7332611
  77.4977417  56.8052063  43.4968605  34.5539856  41.6186371  61.6736946
  34.4687881  40.8512001  62.2393951  34.6724129  41.2568436  60.7954483
  79.7033463  51.8717995  30.1022873  80.2039108  52.6134758  29.7623158
  79.1018753  51.6437111  29.3934574  47.1719475  20.6319332  59.4648285
  46.3729019  20.8748341  58.9971123  46.8635674  20.2877331  60.3030777
  73.1387253  33.8619232  41.7655678  73.1774673  34.8065491  41.6158752
  74.0111084  33.6343994  42.0871353  24.9687061  65.4099197  63.1567726
  24.2091408  65.7753601  63.6103592  25.2453747  64.6762238  63.7057533
  86.1085587  21.8145943  55.9667740  85.9030685  21.4963493  56.8458252
  85.3416672  21.5830135  55.4428596  44.7489777  43.6811943  22.3374805
  45.4490891  43.5266380  22.9716625  44.0701752  44.1359177  22.8361645
  56.0451698   9.7723818  40.5974236  56.8769569  10.2044144  40.4032364
  56.1371956   8.8962612  40.2230263  68.8333817   5.0146041  38.3351822
  69.1762390   4.1225109  38.3885841  68.5577316   5.2191453  39.2287216
  10.5163193  47.9168968   1.3210466   9.7605085  47.8879242   0.7344106
  10.3146429  48.6213722   1.9368980  77.2177429  40.9266129   2.6137621
  76.4416885  40.8677750   3.1709957  77.1906281  41.8149834   2.2583764
   7.9871936  28.7845287  20.0389652   7.8436575  28.5297489  20.9504032
   8.9376497  28.7561054  19.9291630   5.7318358  63.7132034  66.0009460
   5.7869921  64.2928162  65.2411880   6.6404905  63.4790688  66.1900482
   0.0343023  11.2607975   3.6924903  -0.0495012  10.9094458   2.8060586
   0.3489845  10.5224247   4.2140388  33.4455681  60.8150826  72.9002762
  33.4413185  60.1190643  73.5573654  34.3453598  61.1415863  72.9030380
  53.0166130  70.4106598  75.2073593  53.6114044  69.6658173  75.2949295
  53.5498581  71.0971603  74.8066177  20.3515053  69.0766220  65.3915253
  20.1174107  68.9231186  66.3068771  19.5175495  69.2583847  64.9582672
  15.7990570  53.3501511  69.5775833  15.3430586  54.0556526  69.1187134
  16.6416035  53.7309036  69.8253250  61.9035645  24.1394920  34.5263786
  61.6636200  23.2944469  34.1461754  62.4050674  23.9156647  35.3103600
  70.8768616  38.8782387  38.8996696  69.9573288  39.0268097  39.1201363
  71.3611603  39.4530373  39.4923668  59.1566162  11.5673704  33.2111320
  58.7330017  12.3428326  33.5791550  59.2244110  10.9593754  33.9473228
  48.2255859  61.3982582  27.1046162  49.1689148  61.5285378  27.0076866
  48.0598259  61.5329666  28.0376797  68.8846436  63.5440254  59.3534355
  69.1297607  62.7228813  59.7798958  67.9522781  63.4448738  59.1608200
  19.1105690  20.4070015  76.6993790  18.6405087  20.8696556  76.0056763
  18.6656971  19.5622387  76.7679138  25.6950855  22.2542114  12.8037357
  25.7771015  21.4022808  12.3751087  24.8538094  22.5951424  12.5000086
  30.0491982  58.4542160  85.4611816  30.5791512  58.0708008  84.7623444
  29.8330593  57.7157135  86.0305099   1.2217422  12.8105946   6.0724697
   1.3532329  12.7954006   5.1244659   1.3038363  13.7339830   6.3108926
   5.1095099  39.2743263  21.5956535   5.1800971  38.7492561  22.3928699
   5.3553576  40.1582642  21.8684940  82.7658768  69.1098938  54.3530197
  83.0084763  69.8488922  53.7951088  81.8971481  68.8520737  54.0446892
   2.5109651  38.6133308  18.4144897   1.7304538  39.1640015  18.4760838
   2.3188057  38.0044022  17.7013893  59.1025047  67.1290512  23.7300491
  58.8216133  66.4809036  24.3759880  59.3063126  67.9089203  24.2462845
  43.3716278  45.2510185  23.9664364  43.6708946  46.1585426  24.0218849
  43.3416519  44.9527397  24.8754807  84.6546936  28.1773167  64.4204102
  84.9806061  29.0433559  64.1754837  84.6220856  27.6917553  63.5961494
  11.9581909  70.0936508  29.9626350  12.6638050  70.3131943  30.5710278
  11.1580009  70.1904831  30.4789219  26.5563126  31.6162643   9.6855850
  27.2243271  31.1038380   9.2301674  27.0372658  32.3493881  10.0695686
  18.2635231  14.9197273  55.6986237  18.2755508  15.8724957  55.7898407
  18.9676971  14.7295542  55.0787811  67.7054672  38.6228638   7.7482281
  66.9821014  38.4673119   8.3554945  67.3423157  38.4199753   6.8861446
  46.6810760  65.3927765  80.9046097  47.5772438  65.1009064  80.7374954
  46.1689453  64.5849228  80.9410858  76.3238907   9.0552750  17.5441647
  75.9090729   9.5986118  16.8741283  76.3683548   9.6193581  18.3162174
  44.3735466  62.5171623  66.9234848  45.0356331  62.4143486  66.2398911
  44.4091835  61.6975555  67.4166489   1.7097676   0.5759891  36.6417160
   1.9215183   1.4062014  36.2149391   2.5338173   0.2936466  37.0385246
  16.6729717  51.0778694  31.1575031  15.9930725  51.5478401  31.6403046
  16.3154430  50.9793434  30.2750664  17.1105423  48.0259819  28.7003727
  16.1936512  47.7537422  28.7381878  17.4481030  47.8533020  29.5792732
  54.0184784  47.3022842  53.5411072  53.3847351  47.6361923  52.9062004
  54.7712364  47.0383568  53.0120201   8.7957106  40.4238358  81.2583160
   9.1706867  39.8389893  81.9167862   7.8494153  40.3445625  81.3786240
   2.4986291  15.1489029  75.7480087   3.2838020  15.1931877  75.2023239
   2.0399892  15.9710512  75.5749359  66.0019226  36.3712730  70.8120117
  65.1294708  36.7322807  70.6547394  66.6001282  37.0837212  70.5866241
  79.4294357  26.7813892  83.4867706  78.6123352  27.0424328  83.0620041
  79.2371826  25.9258232  83.8705368  12.2224464  46.8507385   5.5335164
  12.2777853  46.4327469   4.6741838  12.4577770  47.7642365   5.3711214
  69.4463806  61.7272949  47.0556145  68.9008179  61.8124161  46.2737312
  70.2070007  61.2249908  46.7634163  76.5557785  51.3973122  67.7631378
  76.7216415  50.4872398  67.5171890  75.7800980  51.6439819  67.2594528
  36.8859215  23.8598385   9.8755541  36.0673256  23.9993801   9.3994627
  36.7555008  23.0324364  10.3388338  53.8799973  36.6106300  82.5966644
  53.4432449  37.1314011  83.2706604  53.1697617  36.1416855  82.1586151
  35.2080956  45.9731598   2.2670717  35.8481064  45.9329033   1.5564415
  34.8680191  45.0809097   2.3339493  50.3924332  54.1005287  76.2737503
  51.0946159  54.7172813  76.4806061  49.6224403  54.6519814  76.1350327
  82.1485901  10.2648926  10.6245461  81.9230728   9.9542208  11.5013905
  82.5330582  11.1296120  10.7683430  47.0574074  59.6932487  17.0175877
  47.0371628  60.1557922  17.8553677  46.2822647  60.0071373  16.5519047
  73.8320618   6.5848932  76.6202545  74.0164185   6.4461880  75.6912766
  72.9256592   6.2974768  76.7300873  79.4786377  51.8978119  69.1668777
  78.7145233  51.4187279  69.4875565  79.4925919  52.7017403  69.6862335
  80.3578415  12.8554049  23.3234215  80.2712936  13.7905064  23.1381493
  81.3018188  12.7102423  23.3872108  60.0124016  70.5405273  41.7837906
  59.9920349  69.8559265  41.1151085  60.6964836  71.1421051  41.4899063
  44.5218964  10.6453505  70.1348724  44.2976608  10.0113535  70.8160477
  44.1212006  11.4637060  70.4280777  74.9502182  10.4195566  15.3954954
  74.2635956   9.7546253  15.3440800  74.5094681  11.1921291  15.7491894
  33.4890060  23.7100105  15.2913904  33.9949608  23.6141262  14.4845133
  33.4294090  24.6558571  15.4257565   7.5536685   6.9507508  28.3868580
   8.4560385   7.2213488  28.2173386   7.1306515   7.7342453  28.7381763
  67.9020538  49.9497910  68.1812668  67.1549149  49.5762405  68.6486893
  67.7176743  50.8884087  68.1462021  60.4490242  48.8989792   9.3965940
  60.1997833  48.6474953   8.5072870  59.6312485  48.8658333   9.8929577
   4.6566081  44.7582321  23.2703800   4.8799453  44.1849251  22.5371208
   4.8655686  45.6386719  22.9582996  80.5600357   6.3816953  23.6215954
  79.8929367   6.5550551  24.2857857  80.0877762   5.9358234  22.9184608
  40.6544991  51.5866776  10.1069841  40.1557121  51.9514618  10.8379927
  40.5256004  50.6408157  10.1774139  55.7019157  46.7735596  86.7403717
  54.9024124  46.7096634  87.2628098  55.9559669  45.8648758  86.5791931
  32.2976074  63.7382774  51.3151207  32.7294083  64.5018234  50.9320068
  32.2067909  63.1239090  50.5867424  46.6051750  14.3680143  60.9875565
  45.6586456  14.4207439  60.8551521  46.7062454  13.8675690  61.7972336
  17.0317707  31.5311527  71.4507828  17.2259140  32.1986618  70.7927780
  16.6089745  32.0120316  72.1622772  66.9557571   9.7046146   6.2747817
  66.9937897   8.7587290   6.1330585  66.0259705   9.8898201   6.4068265
  58.3032150  29.6575603  10.3622398  59.1473770  29.8689480  10.7609043
  58.1452332  30.3706684   9.7435713  39.5440407  70.4426498  78.8139191
  38.6085663  70.6251984  78.7256317  39.7218742  70.5499649  79.7483139
  29.1175270  16.0841560  89.0713348  28.3892517  15.5092916  88.8360062
  28.7826385  16.9683437  88.9220276  79.1807327  28.2119923  56.2838554
  78.9400253  27.6624756  55.5379829  80.0448761  27.8946724  56.5461388
  78.5283051  11.6938114  21.5930862  77.9109497  11.6885672  22.3245735
  79.3724823  11.9015579  21.9936256  65.2717133  57.1639252  25.9579926
  64.5825500  56.5457153  25.7148800  65.3221970  57.7693710  25.2183170
  61.7927513  63.4626312  20.2873421  62.6981125  63.1579895  20.2261238
  61.5568161  63.6945190  19.3891258  53.5370827  11.4743137  80.3460159
  53.0522614  10.7280073  79.9935837  52.9443092  12.2179642  80.2372208
  63.1879539  49.1419220  66.0212250  64.1402893  49.1068993  65.9314575
  62.8600693  49.0695496  65.1248474  69.2284164  12.9130421  40.1383324
  68.6376724  13.1416054  39.4206848  68.6800842  12.9530048  40.9218903
  37.4199448  43.2234268  46.5009613  38.3479347  43.4553032  46.5370483
  37.3910637  42.4345474  45.9596062  17.1810055  38.3165970  40.2662888
  16.8063622  37.4539490  40.0882187  16.7482300  38.6043892  41.0700989
  20.0699596  57.7866898  78.7543564  20.5255814  58.3140297  79.4105225
  20.1241150  56.8908882  79.0872879  54.1304321   1.4811265  25.9014015
  54.3791237   1.0667017  26.7276192  54.9622841   1.6566434  25.4615707
  50.5691261  14.9932451  11.4690113  50.8667755  14.2308340  10.9726562
  51.3333359  15.5684614  11.5056257  15.5912361   4.3689046  60.1359673
  15.4126902   3.9165468  59.3115120  15.9871445   3.7004170  60.6950836
  40.4127617  26.0469818  13.2350149  40.2202950  26.8244190  12.7108202
  39.5532722  25.6878242  13.4552746  28.6789970   7.3358941  82.8858643
  27.8011379   7.0881643  83.1760788  28.9127102   8.0812511  83.4390793
  16.2724762  70.6388321  20.0774097  17.1362286  70.3042831  19.8360748
  15.8297033  69.8912354  20.4790115  11.1657677  54.4080505  28.8408051
  11.9140549  54.9961205  28.9431477  11.1212292  54.2386398  27.8997688
  20.9025135  64.4645920  27.9572601  21.3474216  63.6220016  28.0485249
  21.5722599  65.1136551  28.1726398  42.5928421  49.2265358  12.0634995
  42.0662689  48.6815186  12.6482296  43.3966293  49.3972893  12.5544186
  59.3767395  68.9866486  60.1488953  58.6699562  69.6143188  60.2996521
  58.9287872  68.1695404  59.9300461  25.9750881  15.4301472  84.7438354
  25.5794659  15.8646278  83.9882278  25.3051949  15.4785805  85.4258347
  26.2852840  12.5800829  70.5965729  26.4337139  13.1832371  71.3248596
  25.5907459  12.9917517  70.0823975  67.9070816  11.8869286   5.2761350
  67.6694794  11.0163755   5.5953774  67.5474396  11.9234123   4.3898168
  27.0432091  24.5023060  82.6543427  27.4476128  23.9408989  81.9928970
  26.2151623  24.0694065  82.8621140  40.1052284  40.0782433  54.5762825
  39.1629944  40.1846657  54.4454994  40.2644157  40.4163589  55.4575157
  40.0877838  24.0520000   0.7603583  39.5287857  24.8033791   0.5624133
  40.8249512  24.4230499   1.2452666  64.2613220  52.0717926  21.1881790
  63.6482887  51.8102722  20.5011330  64.9527740  51.4106407  21.1565723
  55.7647934  25.9694691  43.0200653  56.0136986  26.3152256  42.1629028
  55.1302910  25.2798138  42.8250923  11.1711359  65.3760452  49.8303108
  10.5837603  65.7072601  50.5096626  10.6419373  64.7444382  49.3432312
   4.7704968  36.0200691   4.6445079   4.5680604  35.7016182   5.5241899
   5.2309308  35.2924385   4.2264390  75.3054047  70.6243134  60.0552177
  74.3719635  70.7930069  59.9268837  75.4320374  70.6862259  61.0019836
  21.3832417  49.2798271  77.9887085  21.4256210  49.8360329  77.2108459
  22.2510109  48.8797264  78.0446243  42.0111961  61.2401237  68.8636627
  41.7575836  62.0372162  68.3983002  42.1537819  61.5248718  69.7663345
  36.6131630  51.7610397  50.8683167  35.8957939  51.2452011  50.5001869
  37.1591454  51.1206703  51.3244514  83.3366852  35.9413528  80.4380722
  84.0351715  36.1273994  79.8105850  82.9355011  36.7933502  80.6094589
  82.8912354  66.3170319  11.7542200  82.0635071  65.9714355  12.0883665
  83.2964325  66.7412491  12.5105877  49.0253258  66.1683350   2.6679704
  49.0844345  67.0873108   2.4067733  48.1582947  66.0875931   3.0654261
  71.8798599  34.1475182  33.1912613  71.0483551  34.2826881  32.7367592
  72.5412140  34.4809761  32.5849190   5.2483006  70.9995728   4.6724892
   5.9607234  70.8442383   5.2926149   5.5392747  70.5792694   3.8632233
   5.0439577  34.7202530  18.0093479   4.3919601  35.1589165  18.5558872
   5.6620984  34.3392944  18.6330528  78.9694290  44.9609985  55.3878670
  79.7302933  44.4827003  55.0584145  79.0187683  44.8637924  56.3388367
  45.3503265  70.1427917  73.2613907  45.9685364  69.7597961  72.6390076
  44.4914589  70.0032578  72.8625107  17.0190067  27.6177559  15.5988865
  17.6299667  27.1161079  16.1386185  16.5945377  28.2176781  16.2121964
  85.0660706  60.5082092  42.5309906  85.0038605  59.5800896  42.7567215
  84.9867554  60.9643097  43.3687935  70.2016830  70.8419189  62.0179977
  69.3662262  71.2492142  61.7891846  70.0065613  70.3135834  62.7919655
  76.2755203  67.6796494  37.8653946  75.9188614  68.5398102  37.6436996
  76.3046951  67.6717987  38.8221207  11.3866043  34.2151756  83.0308456
  11.5517244  34.0275993  83.9548492  11.1701880  33.3646469  82.6487427
  26.4395924  67.8984375  77.7197800  26.2969780  67.3847198  78.5147552
  26.9790783  67.3355865  77.1644592  60.2122574  55.5100822  13.6673775
  60.2928848  55.3855743  14.6130152  59.4175072  55.0324211  13.4298096
  65.4122162  42.3434486  71.7556305  65.7214203  42.2189713  70.8583374
  65.1762314  43.2699814  71.8012772   4.8904576   2.6743114   5.8847051
   4.2812772   2.3098917   5.2425761   4.4047413   2.6621623   6.7094254
  49.5106659  61.9004631  80.8873062  48.5562057  61.8431511  80.8430862
  49.6831131  62.4259644  81.6685486  20.4778595  58.8841095  19.1540432
  20.5765953  58.5168800  20.0324650  19.7866096  59.5399628  19.2449322
  28.7221260  68.2447968  49.0976143  28.4770298  68.0751801  50.0072250
  28.7832527  69.1982956  49.0398407  27.0930176  24.5446434   1.4361769
  27.6699314  24.7153759   0.6916959  27.6397552  24.7067165   2.2049701
  17.1393471  28.9652615  68.0406342  17.2696342  29.7562714  67.5176010
  16.2604103  28.6661854  67.8077087  23.4963722  67.9023361  65.5266571
  22.9598808  67.4251251  64.8936691  22.9602375  68.6551971  65.7756577
  43.6423683  54.6640625  38.5781937  43.4807053  55.3736839  37.9564743
  42.7695961  54.3819656  38.8519096  29.0194874  59.6313553  82.6827011
  28.5308590  59.7257042  83.5003662  28.6135712  58.8824234  82.2461624
   1.3393823  18.1286774  55.9795723   1.1732676  18.8936386  55.4286880
   0.5067938  17.6565609  55.9912186  66.5134888  49.1331825  10.8787651
  66.2674561  49.1399078   9.9537497  67.3962402  49.5029640  10.8945055
  70.4402084   9.5500565  13.8245268  71.2496338  10.0513611  13.9233522
  70.3916855   9.3555899  12.8885460  74.1568298  44.7051811  21.5859013
  73.5198288  45.3457108  21.2693825  74.9542999  45.2134743  21.7339134
  74.8436050  48.0475235  70.6628418  74.8660507  47.4407387  69.9228821
  75.7139664  48.4457703  70.6725006  69.2162476  67.4706573  87.3760223
  69.6376572  67.5155487  88.2342987  69.8427658  67.8808670  86.7798386
  22.3334045  68.1100769  59.1025352  22.5114937  68.9450989  58.6698151
  21.4130955  67.9315796  58.9091415  37.8160172  39.4533195  10.0544271
  38.4187202  38.8124504   9.6772404  37.6557236  39.1370239  10.9435244
  13.0011845  52.7255669  33.3197250  12.6975670  53.6238213  33.4508095
  13.7995472  52.8161087  32.7994881  58.8152809  44.2759590  27.1728096
  58.5010872  43.5434418  26.6427765  58.1957817  44.3280067  27.9006443
  85.8420486   3.2717338  66.6074066  85.7803116   4.2199378  66.7228546
  84.9948349   3.0194962  66.2402115  29.3943672  17.6443062  10.5263643
  29.1426182  17.2093048  11.3409986  29.3982430  16.9450321   9.8727331
  83.6499023  62.6298409   1.5741940  83.2631149  63.0504532   0.8062665
  84.5356293  62.3946228   1.2977878   6.8159485  27.8584671  89.0314560
   6.1674867  28.4516926  88.6522369   7.3572755  27.5893211  88.2893295
  17.7857666  18.0070744   3.9562528  18.4316254  18.3881264   3.3613603
  17.0291119  17.8203163   3.4005294  47.2741737  56.9952507  87.0699997
  47.0433350  56.8493652  86.1525726  47.8595352  57.7523956  87.0522079
   8.7864237  18.8802319   1.0099620   8.7275553  19.8345394   1.0553890
   9.7231941  18.6946735   1.0752438  60.4351501  59.0818253  35.7170944
  59.5925674  59.5329742  35.6646843  60.9782143  59.6512260  36.2621613
   3.4417202   2.7869048  65.3500671   3.7531028   1.8999898  65.1693649
   4.1843576   3.3503926  65.1328049  61.2280807  66.5716705   1.0316293
  60.9137192  65.6884995   1.2250453  60.5606728  67.1497650   1.4012384
  17.3600426  14.3510513  67.9167862  17.0035839  13.5176601  68.2244034
  18.1691780  14.4641523  68.4155273  21.0475292  40.4038315  52.2460861
  21.9355297  40.5462151  51.9183426  20.7650681  39.5908699  51.8271065
  16.8092422  60.0984764  28.1022053  16.4529018  59.2656517  27.7929211
  17.4776268  60.3275871  27.4564476  17.7087116  55.1046066  43.3317070
  16.9901733  55.7178802  43.4860878  17.6116943  54.4443626  44.0179253
  69.4676666  22.9795036  59.6803322  70.2866821  22.5815010  59.3853149
  69.5951385  23.1226921  60.6181412  47.3293953   2.3525808  68.3174973
  47.4375801   1.4170071  68.4884644  46.7140274   2.6490123  68.9880829
   4.5437598  10.7177057   5.3970618   3.9538124  10.6490202   6.1477127
   5.2365289  10.0824308   5.5779753   8.8152514  44.0843201  76.4914627
   8.9878197  45.0105019  76.6606979   8.3432188  44.0768929  75.6587753
  75.3962631   5.5493355  61.9625092  75.1498337   4.9365568  61.2696838
  75.2194595   5.0756354  62.7752724  78.9023666  26.4041348  54.2615547
  78.7096100  26.2444515  53.3376617  79.7524567  25.9879570  54.4042740
  49.6053467  32.8376579  29.7662029  48.7591934  32.5843506  29.3972912
  50.1732483  32.0848236  29.6020050  41.1876526  20.9417648  85.8533478
  40.9931297  21.6599503  86.4555130  40.5264702  21.0200691  85.1656418
  17.5118961   0.8464860  75.3899460  18.1688709   0.2034305  75.6565857
  16.9621010   0.3802017  74.7602386  71.6104202  25.0911179  55.1487694
  71.1354980  25.6645336  54.5472107  72.3314819  25.6299725  55.4742584
  14.3458366  50.5437164   0.5726122  13.7115717  49.8294373   0.6338263
  13.8119793  51.3276939   0.4437517   8.0910425   2.0649693  62.0796356
   8.9238958   2.2526391  62.5124969   7.5056839   1.8025099  62.7900620
  34.1006050  52.4959717   1.0851377  34.7819023  51.8900757   0.7936687
  33.7593155  52.1039352   1.8889159  73.1831436   7.4010468   3.1135755
  73.4037781   8.3324509   3.1075923  73.2442703   7.1345286   2.1962624
  21.3887405  62.1662140  55.3542404  22.1547279  61.7152061  54.9991531
  20.6829834  61.9578476  54.7420959  85.1253662  20.5665550  64.9609451
  85.9858780  20.7261562  65.3485947  84.5883636  20.2554321  65.6896896
  46.2355804  49.3228683  81.8907928  46.1773987  49.9887009  82.5760040
  45.3605614  48.9362526  81.8575974  39.5081139  71.1585999  15.7109108
  39.8069572  70.2569809  15.8292513  39.2406616  71.2037430  14.7929440
  22.9270325  66.1324692  24.6599846  23.0614624  66.9291840  25.1732121
  22.0179882  65.8871231  24.8322487  18.8416462  41.3826027  38.4732170
  18.6144848  41.9930458  39.1746330  19.7307682  41.0968208  38.6830292
  35.7154999  69.7038574  49.4545860  35.8277130  70.6427460  49.6033707
  35.7856216  69.6016998  48.5054398  53.8555794   3.6775544  68.4851379
  53.6793709   2.9198101  67.9274597  54.4752464   4.2061086  67.9822693
  34.4554405  47.6449318   8.9823294  34.9965248  48.0987930   8.3362122
  34.9174995  47.7691574   9.8113661  21.6295013   5.2461953  80.8951797
  21.0200615   4.5151081  80.7935638  21.6010761   5.7005153  80.0531464
  53.7891579  68.8190308  17.2056503  53.1262436  69.4786224  17.4098892
  53.4726906  68.0218201  17.6305408   4.2760401  37.4912987  11.9074869
   4.6350350  37.7734184  11.0662012   3.7170835  38.2171440  12.1848860
  29.7475796  34.1387024   2.4056036  29.0223732  34.1878052   1.7827895
  30.2722702  34.9184685   2.2242362  82.4193344  48.1013756   4.0844207
  83.3240891  47.7951927   4.1468606  82.4938278  49.0509491   3.9895990
   6.2998691  55.7781105  53.6041908   5.5250382  56.1044121  54.0617905
   5.9772763  55.5206299  52.7405548   2.4285405  20.9762936  62.0826645
   2.6679595  20.4732780  61.3042755   2.2463026  20.3139076  62.7491951
  36.2975807  12.2518530  74.7557449  35.5113945  12.5523100  74.2998199
  36.3552017  12.8130331  75.5290451  83.8946991  64.9208145  75.5677261
  84.1437683  64.3481522  76.2931595  84.7175064  65.1051254  75.1146851
  50.7052803  57.2265968  88.5819702  50.3078156  56.7570953  89.3153305
  49.9818230  57.7162971  88.1907654  65.5783539  27.8685589  63.3682480
  65.7828522  27.7981510  64.3006973  65.4922867  26.9621696  63.0728149
  49.2572212  51.1139679  80.1534348  49.7621155  51.5019455  79.4387436
  49.4445801  51.6710091  80.9089737  71.8277893  70.8960190  71.4553833
  72.6360855  71.2410965  71.0761642  72.0809402  70.0536804  71.8330307
  51.9575806  28.8044682  77.5468826  52.1034966  27.8584633  77.5509949
  51.0166626  28.9010448  77.4000092  36.5500031  50.7676353  43.4366989
  36.1156654  49.9155045  43.3985786  36.1286240  51.2187347  44.1682625
  39.6053848   7.1871262  13.0498343  38.8806496   7.7870030  13.2262917
  39.6385117   6.6186476  13.8192272  20.7404385  13.5325470  64.4948654
  21.0999527  14.1483679  65.1334076  21.2289734  13.7087870  63.6908073
  55.9464722  37.1856308  50.8361168  55.4912682  38.0270653  50.8679543
  56.2132416  37.0920868  49.9216118  58.4305267  60.5638924  23.3301563
  57.7766647  60.3961601  24.0088043  58.9433403  61.2981796  23.6679039
  26.5804367  43.5679207  31.5298519  26.4306297  43.2242317  30.6491318
  25.7648411  43.3901215  31.9982758  51.5234604  48.3014565  19.8985996
  51.3261032  48.4420815  20.8246155  50.6696968  48.3202934  19.4662037
  22.0012283  63.7022209  37.3154182  21.9210339  64.0311813  36.4201050
  21.1148510  63.4272499  37.5498466  21.7310028  46.3835030   5.3103595
  21.3874969  45.7763824   4.6548891  21.0766697  47.0805435   5.3574133
  55.5039482  61.7144241  72.2588730  55.4924393  60.9038773  71.7498398
  55.1626358  61.4631271  73.1171188  -0.0478211  50.4141006   6.7540255
   0.6605321  50.6407661   6.1514559   0.2234783  50.7859306   7.5932937
  49.1146355  18.0603027  22.5845699  48.1967773  18.1813583  22.8277016
  49.0944824  17.3947582  21.8969097  46.8486443  43.3907967  24.2798195
  47.5444946  44.0428963  24.3622208  47.3095245  42.5530319  24.2354221
  51.0371017  17.6671333  24.7327480  50.3348694  17.2976418  24.1974182
  50.5883141  18.2410412  25.3535957  38.4591331  11.3998508  84.2653885
  37.6010780  11.6711760  83.9392624  38.9040756  12.2197695  84.4798355
  41.6022148  33.5112228  84.6413040  41.6546593  33.8544426  83.7492981
  42.0335083  32.6579285  84.5953598  46.6261482  22.5747566  30.0247002
  46.5361633  22.9180756  29.1357307  47.3552666  21.9569778  29.9702034
  79.5692139  69.9511032  76.7126694  79.5199509  70.9032822  76.7973099
  79.1591644  69.6181564  77.5109482  46.7784958  42.7572708  14.7662811
  47.5883408  42.9409904  14.2902279  47.0231667  42.8227539  15.6893625
  39.4673119  54.2733002  71.7590179  40.1850548  53.7232285  72.0728607
  39.9007339  55.0045319  71.3189240   1.0906949  53.1369858  15.9003811
   0.3058469  53.1467247  16.4482422   1.4228588  52.2422638  15.9736691
   9.5439501  59.2176781  35.4258080   9.8612843  59.0932999  36.3202705
  10.0884056  59.9221191  35.0742912   9.4497709  25.2168388   3.7779205
  10.2519684  24.9466152   4.2247877   8.7500858  24.7596760   4.2444773
  83.9948425  52.9267235  76.2176590  84.5443192  52.4334831  76.8267746
  83.8803177  52.3403778  75.4697876  75.6420898  28.3631840  88.8033600
  75.9137115  28.2632008  89.7157516  76.2851334  27.8584976  88.3053513
  41.2398109  69.8528214  84.2994614  42.1843567  69.7352753  84.1982346
  41.1212654  70.0506592  85.2284622  62.6438980  70.7434540  75.5845184
  62.6142387  71.5919724  75.1425095  61.7340546  70.4462509  75.5937119
  65.0058823  55.7646332  60.2663918  65.5640564  55.7876663  59.4891281
  64.3753204  55.0669594  60.0878525   1.1211547  56.1030045  37.3979568
   1.1373177  57.0595207  37.4302940   0.4007842  55.8956146  36.8027344
  45.1769791  68.4088440  63.3260040  45.0542831  68.7056122  62.4242821
  44.7098923  67.5744553  63.3691940  23.0346508  61.9920578  61.2419395
  22.1604481  61.6539078  61.0478821  23.1519318  61.8296890  62.1779480
  52.2335854  28.1990681  67.4078064  52.5059090  28.8337898  68.0705338
  51.2772064  28.2078381  67.4464645  34.9001617  70.7327347  64.2976379
  35.6287384  70.3347855  63.8211403  34.1252708  70.5055771  63.7836571
  48.8800545  58.7060585  72.6592865  48.2443123  58.0012093  72.5357819
  49.6257286  58.4542122  72.1145096  52.2793503  23.2052059  40.2416725
  53.1723747  23.5490837  40.2637520  52.1514740  22.9288673  39.3341942
  32.6865807   2.7594194  43.9896622  32.3082542   2.8584414  44.8633308
  32.8860359   1.8258684  43.9194298  71.3879013  27.5948391   1.9310275
  71.2507629  27.4615746   0.9931233  71.8909454  28.4073086   1.9864696
  41.2902603  51.4036484  29.1211605  40.3876839  51.6464157  29.3276901
  41.6464691  51.0797844  29.9484825  61.4620972  20.8426456  60.2792931
  61.2496643  20.1005898  60.8453865  62.3595924  20.6752644  59.9916878
  48.6004448  69.3729782  62.4584045  47.9816513  70.0925446  62.5830956
  49.4091988  69.6786804  62.8691254  11.3196135  63.3451195  84.0551376
  10.8554602  62.7306786  83.4865875  11.5861235  62.8191833  84.8091888
  48.9301682   4.5412335  25.1437321  48.5610237   5.3108654  24.7105694
  48.5923958   4.5848174  26.0382938  48.2564583  18.0719566  52.2553902
  48.4731369  17.8125839  53.1509399  47.5592499  17.4705029  51.9938850
   6.7749524  63.2520142  21.3652840   6.1302276  63.8915977  21.0628014
   7.5758681  63.7607155  21.4917278  83.3400116  20.3775120  23.4001484
  82.5237122  20.0910225  23.8098011  83.8616180  20.7256069  24.1233273
  68.6152420  30.2813797  66.1986084  67.8076248  30.5938091  65.7907104
  68.9019165  31.0090714  66.7504272  46.7834053  34.0450668  14.8213472
  45.9001579  34.0951729  14.4558392  47.1409492  34.9253616  14.7052593
  49.0637779  35.7951546  42.0889664  49.0724792  36.7226982  41.8527069
  48.6176491  35.3661766  41.3587761   3.8761902  15.0171661  83.5064011
   4.3495808  14.9856529  82.6750565   3.8506019  15.9469633  83.7323608
  59.9749069  13.0999746  36.4742889  59.7827263  12.1715879  36.3423996
  60.9291725  13.1563816  36.4250069   8.7165537  62.7070007  39.3053551
   7.9304895  63.1722450  39.0192070   8.5003881  62.3878860  40.1815224
   9.8525686  41.0179863   9.4272299  10.7889538  41.1511650   9.5744619
   9.4262991  41.6269608  10.0302849  18.0577507  54.8656807  81.4611511
  18.6450844  54.8056107  82.2145844  18.6250629  54.7239799  80.7033234
  25.7629261  39.2165909  68.3227005  26.5933971  38.7780075  68.1377869
  25.2256184  38.5448685  68.7426147  21.9392624  33.9013672  69.0550613
  22.0687580  33.0567322  69.4864044  21.3180962  33.7176743  68.3503342
  15.7351856  56.9183502  24.6842346  15.5529699  57.1178589  23.7659607
  16.5596313  56.4324074  24.6647243  83.0615463   4.2218366  22.9583340
  83.5099869   4.9317679  23.4178181  82.6346970   3.7193882  23.6522903
  28.4329014  18.6971645  88.7845078  28.6392956  19.2173233  89.5610886
  29.0921497  18.9561062  88.1406403  12.6294088  43.7959175   1.0800073
  11.9420681  43.3077927   0.6266532  13.0434313  43.1504860   1.6529279
   7.5414877  56.9109116  64.1745834   7.5970197  57.7302208  64.6663971
   8.3459187  56.8876610  63.6563301  71.9814987  41.8610573  54.2801056
  72.7038193  41.2334976  54.2544670  71.9238968  42.1225357  55.1990929
  10.9049215  67.1542206  58.1743126  10.9298773  66.7512894  57.3064117
  11.1032925  68.0771103  58.0157051  53.5462265  14.9716434   1.2691123
  52.6927299  15.3452225   1.4886773  54.1133270  15.7313328   1.1368165
  77.2696915  55.7265396  30.0770702  76.6276398  55.5940247  30.7745247
  76.8990402  55.2717552  29.3207474  73.5449677  62.6221581  87.0821304
  74.0432281  61.8132286  87.1987762  72.7644958  62.3548393  86.5967102
  26.2734985  61.9496765  63.0912514  25.3197651  61.9666176  63.0116539
  26.4565926  61.1670990  63.6111336  46.4437256  31.1232014  34.4536171
  45.7093506  31.4696541  34.9604683  46.0397873  30.5250759  33.8248749
  84.7649307  29.7028694  81.0227127  85.3937149  30.0494938  80.3896942
  84.7843399  30.3286095  81.7468033  65.6515350  59.0028229  37.2397270
  66.3193359  59.6760635  37.1092873  65.4479141  59.0452919  38.1740532
  47.8059769  64.3183289  57.2212296  48.0504723  64.6945114  58.0667725
  48.6391907  64.1790161  56.7711411  48.3968163  31.2322941  10.6451073
  48.3010178  31.6438065  11.5040083  48.7169304  31.9336929  10.0778370
  50.5959206  69.8317871  64.5791855  51.4996567  69.6299820  64.8216095
  50.1919212  70.1352463  65.3921585  79.3522263  29.6280270  20.2336540
  80.2096939  29.2381382  20.4038525  78.7308350  29.0319691  20.6517715
  58.1193466  43.2291718  29.8929386  57.1947746  43.3848457  30.0857239
  58.5796204  43.9425163  30.3351154  38.6322708  15.9230623  83.5549774
  39.4578247  16.0608616  84.0194168  38.1783714  16.7633762  83.6188507
  79.6845093  42.3402519  28.2987003  79.7162933  43.1618462  28.7888069
  80.2182083  41.7340851  28.8124676  49.3576126   6.5236397  65.6251831
  49.0397835   5.6629577  65.8980255  49.2497063   6.5283551  64.6740952
  48.9237747   3.3069537  76.7316666  48.5237389   3.9364753  76.1317444
  49.8454971   3.5626400  76.7675018   1.7346359  14.9243965  62.8141785
   2.0477018  15.3691578  63.6018410   1.5245143  15.6333323  62.2063217
  25.1457062  27.7679024  87.1215668  24.8640766  28.6793957  87.0435104
  25.3843460  27.6690464  88.0432587  24.4195633   5.5206385  85.6372452
  25.2635212   5.4401002  85.1928558  24.2467251   6.4619498  85.6543045
  34.5060768   3.4675932  80.8324814  34.4877052   3.7845087  79.9294586
  35.1465378   4.0283923  81.2701416  83.6420212  47.5851135  42.6543617
  84.4491730  47.8953667  42.2438889  83.5300140  48.1495552  43.4192734
  16.3851452  70.4314194   8.0123158  15.7697563  70.7279663   8.6828270
  16.0281010  69.5954666   7.7124286  41.6212807  49.3272514  37.8584137
  40.7853622  49.5523949  37.4500198  42.0871925  48.8255119  37.1895294
  37.5994911  50.5572701  23.6671448  36.8272858  50.0009499  23.7692966
  37.3364754  51.4016762  24.0332432  82.4054794  42.4020157  17.9523487
  83.0989456  41.9313507  17.4899387  82.6554413  42.3509979  18.8749256
  71.7699051   8.8111477  57.4323196  71.2420578   8.8560438  58.2295609
  72.4924850   8.2246456  57.6562004   2.5688791  20.3983631  21.6874256
   1.8359644  20.4063320  22.3030605   3.0661585  21.1889973  21.8968086
  71.4103317  20.6023712  29.5418549  71.8684845  20.6940403  28.7064342
  72.1069107  20.4592476  30.1825809  67.1712112  36.4354134  56.6311150
  67.6210175  35.6333084  56.3655357  66.6242523  36.6634102  55.8793983
   7.7336893  58.9697647  16.4710484   7.6059356  58.3545151  17.1931171
   8.1392984  59.7354774  16.8777409   0.5228273  31.9254150  46.3378525
   1.3967673  31.6702518  46.6334076   0.4212935  32.8275642  46.6412468
  80.4742661  31.4994240  78.5234985  80.3625565  31.5722961  79.4713593
  81.2133179  32.0742683  78.3245392   4.7625804  58.7290726  21.3992062
   4.7262182  57.9529877  21.9583130   4.9921875  59.4425964  21.9945202
   7.0107450  50.4739342  76.0362854   6.1702576  50.3896713  75.5860443
   6.9906502  51.3511391  76.4188232  63.6516190  64.2585526   5.3126683
  62.7165718  64.4581985   5.3580580  63.7051277  63.3199387   5.4925942
  68.1886368  12.7194691  87.1355438  69.0919952  12.5508947  87.4034271
  67.6574326  12.2261467  87.7605896  54.7229309  26.3579388  27.9168949
  55.1808472  26.6769123  28.6945858  55.4057388  25.9418316  27.3907204
  12.7947121   4.9344831  17.8327274  12.1001501   5.0199375  18.4858074
  13.2254772   4.1072531  18.0480499  48.3712959  20.3423252  30.2694740
  49.1989555  20.0086861  29.9232101  47.7317390  19.6622143  30.0581799
  43.2244606  21.6422100  19.2838306  43.3049393  22.1322212  18.4655132
  43.7720566  22.1220760  19.9051952   1.5371714   9.1467266  23.6253910
   1.1275126   8.3435545  23.3039474   1.8181404   9.6056805  22.8337803
  68.0588226  17.2394505  22.8726330  68.2185822  16.7640877  23.6879482
  68.0185623  16.5577621  22.2018776  80.3991928  26.2598495  19.4476147
  80.4603043  26.8774166  18.7188435  79.4594116  26.1235657  19.5679035
  27.8540001  20.3663578  14.6313915  27.4913368  21.2510433  14.6765614
  27.4863853  19.9176388  15.3927994  19.9568138   8.9935570   1.6114947
  20.1808414   9.6697617   2.2508621  20.1244812   8.1684504   2.0668168
   7.1375194  67.8854065  26.4887333   6.5677948  68.3378601  25.8666954
   7.0051718  68.3489456  27.3156815   0.3413435  36.1152458  34.1561089
   0.6615646  36.3762512  33.2926445   1.1318982  36.0298386  34.6889877
  59.5581856  13.7118130   1.9118026  59.6225891  13.8730879   2.8531179
  58.8552742  14.2908754   1.6171306  41.6723557  55.6004677   5.7619667
  42.5581322  55.2466545   5.8422484  41.1008797  54.8745270   6.0122871
  10.9844608  60.4131775  21.6036472  10.0553436  60.4337082  21.8328857
  11.3818207  61.0883751  22.1535969  21.1946564  59.8121529  44.6604614
  21.1593361  60.0468559  43.7331543  20.2978802  59.5572166  44.8773270
  78.5995102  39.2859001  73.3575287  78.1244354  38.8792686  74.0822220
  79.5162888  39.2680740  73.6321716  30.1500530  62.2989006   0.2575520
  30.9689789  61.8470078   0.4609849  30.0301018  62.1655769  -0.6826968
  74.8947601  51.5407639  72.7980881  75.7129669  51.0951424  73.0176010
  74.2232513  51.0612755  73.2832794   4.9317102  42.5873680  16.5577393
   4.0786858  42.8901863  16.8689976   4.7953448  42.4009476  15.6288242
  78.0528336  12.5494270  57.0660820  77.5799713  12.3726006  57.8793259
  78.7962646  13.0896187  57.3339005  36.1486588   2.0130627  58.4479218
  35.2832718   2.4220157  58.4380722  36.0313377   1.1926655  57.9689484
  83.2344437  27.3619251  81.6877518  83.7551651  28.0042381  81.2055511
  82.3902130  27.3508472  81.2367630  42.2330132  44.9089851  87.5901337
  42.8008232  45.4149666  88.1713409  41.3515930  45.2338448  87.7739716
  27.7431202  54.4139252  87.3640671  27.4678879  53.7035255  86.7845764
  27.8933868  55.1560745  86.7785187  10.5011063  50.8875351   9.3461838
   9.8859053  50.7120819   8.6341610  11.3650331  50.7869110   8.9465141
  82.4588852  44.9146271  74.4014816  82.8553619  44.8137856  75.2668533
  83.0917664  44.5211639  73.8007431  54.7782326  37.2635498  41.1880836
  55.1074257  36.4137611  41.4808731  53.9011116  37.3239555  41.5665550
  74.5497055  34.9326439  56.9201088  75.3233566  34.6712914  57.4195061
  74.8116760  34.8358803  56.0045547  14.4343948  47.0979919   7.9088354
  15.2325478  46.8601227   7.4370294  13.7231102  46.8088531   7.3372555
  21.3863602  59.7869415  27.7758675  22.1165504  59.1696281  27.8203144
  20.6618004  59.2753677  27.4159565  54.0033951  20.0499516   5.8581233
  53.3802109  19.3253193   5.8053751  54.7064362  19.7209473   6.4182334
  56.7708817   3.6529315  67.3861237  57.2958145   2.8532169  67.3524399
  57.0588493   4.0949969  68.1847992  79.9569702  44.6930504   4.7997837
  79.8611145  45.6303520   4.6309414  80.9016495  44.5587654   4.8758454
  31.9704361  42.4199371  21.5819950  32.1010094  41.9547157  20.7557068
  32.5750351  43.1607132  21.5379181  68.4263992   7.8024998  45.3884735
  68.9557037   8.5152617  45.0306511  68.0538788   8.1617403  46.1937103
  58.5347252  56.7574806  50.3081284  58.4877090  57.2731400  49.5030708
  57.6284180  56.5045700  50.4838409  73.1856842  64.7327194  15.9494152
  73.3851700  65.5292664  15.4575214  73.1425934  65.0190964  16.8617554
  35.5482445  42.0911522  67.1593628  34.8295708  41.6582413  66.6985779
  36.2827263  41.4820251  67.0836411  81.0174255  42.6753502  49.9979210
  81.6165619  42.5827484  50.7386551  81.3959274  42.1237488  49.3133049
  58.7852516  60.0572090   8.0029516  58.8601913  59.3367233   8.6286650
  58.8102417  59.6330910   7.1452041   4.7821484  49.3435173  41.0622253
   3.8777668  49.0365982  40.9979897   4.9507952  49.3966560  42.0029526
  14.3932848  53.8068810   7.9527612  13.5018616  53.8908386   7.6143136
  14.8423376  54.5932045   7.6424742  70.7077179  63.7608299  51.4158096
  70.9243240  64.1114197  50.5518646  70.0956573  63.0467072  51.2379341
  54.9909821  42.3259239  46.3121872  55.6397209  42.8254166  46.8080406
  55.4356499  42.1005898  45.4950409  78.7143250   3.1880846  34.2777786
  79.5910873   3.0911877  33.9061127  78.7603760   3.9932592  34.7933388
  32.6687851  49.9670448  55.9948540  32.9049988  49.8336945  55.0768929
  31.8323154  50.4312325  55.9619293   1.0478445  19.2499161  70.3322449
   0.5231556  18.6791134  70.8936005   1.0315911  20.0996246  70.7726593
  16.6051216   2.8886538  86.9409866  16.7816639   2.4339721  86.1173782
  15.7422276   3.2837372  86.8162766   7.2140489  64.2961349  14.5469112
   8.1519194  64.3964539  14.3839159   6.9415965  63.5953827  13.9545012
  26.0166054   6.5064068  69.2868042  26.8442211   6.8061423  68.9107208
  25.5174904   7.3091030  69.4377823  85.3973007  67.2383347  51.9018364
  86.1883469  66.7332840  52.0900002  85.7150650  68.1233826  51.7230949
  69.6701202  70.6518250  83.3284149  69.9205627  69.7280502  83.3406067
  70.4859390  71.1187973  83.1478348  14.0089540   9.0019789  11.4475689
  13.4434404   9.1083460  12.2124949  14.8926592   9.1615248  11.7789955
  10.2601166  65.4177933  34.5656357  10.5326548  64.5404587  34.2968788
  10.0245552  65.8563766  33.7480812  84.0654984  66.5491791  85.6166611
  83.4589844  66.6466141  86.3507462  83.5115814  66.6111679  84.8384781
  54.0371780  51.1388664  26.8079987  53.6805992  50.2627068  26.9543953
  53.3440781  51.7312889  27.0993385  50.1032448  36.9988136  25.4879341
  50.3979950  36.2456741  24.9759502  49.4060516  36.6519623  26.0445747
  30.7440605  70.6559372  50.9637032  29.9113693  70.5968399  51.4320679
  30.7435055  71.5346527  50.5840988  16.6855564   2.2682571  61.6834221
  16.1226139   1.6599591  62.1622772  17.3272076   2.5608411  62.3306580
  36.9436569  45.9711990  16.8799934  36.7193451  46.0804329  15.9558802
  37.2254295  46.8412590  17.1625328  44.7614746   6.2632442  58.1203575
  45.7016449   6.4102907  58.2237206  44.6983109   5.4107690  57.6896286
  11.9294882  37.0440826   5.5512247  11.9441557  36.3761406   6.2366939
  12.0964813  36.5606537   4.7421250  15.6453018  18.6690788  89.1209793
  15.9240112  19.5846558  89.1374893  15.1030788  18.5979004  88.3353882
  31.1587086  41.5556641   6.4859781  31.8600750  40.9119110   6.3864827
  31.4257336  42.2884827   5.9310818  73.7952652  44.1180153  66.9491043
  74.5422058  43.5471382  66.7690659  73.0793839  43.5174713  67.1567001
  70.2151871  34.8468361  12.0868206  69.7574158  34.0711555  12.4108620
  69.5312119  35.5112839  12.0036097   3.8443160  20.9021950  80.9892349
   4.3026352  20.4328041  80.2922058   4.4631362  20.9104881  81.7194519
  63.2475929  21.7200470   7.4998102  62.7821159  22.4361629   7.9319453
  64.0350418  22.1286469   7.1403675  86.3700333  10.2377205  19.1990566
  86.0817261  10.2903948  18.2878284  85.6969070  10.7081451  19.6908207
  21.5423527  51.9803467  33.6481781  20.7106686  52.1459007  33.2041931
  22.1694317  52.5496216  33.2021637  62.3660088  42.2074852   7.8201418
  61.4215965  42.1543274   7.9667335  62.5510406  41.5072327   7.1943326
  68.9514236  29.1166286  22.9011688  69.8332291  28.7497883  22.8373203
  68.7506943  29.0962238  23.8368645  14.4671383  53.0737114   2.9827914
  14.7753773  53.7859383   3.5431058  15.1738777  52.9433632   2.3505249
  20.1289787  55.3233032  56.5589638  20.7519550  54.6182022  56.7349281
  20.5058308  55.7962379  55.8169746  69.1409531  26.7744007  47.9093513
  69.2933655  27.3821030  47.1856766  69.3908386  25.9188480  47.5603333
  36.6307449  56.9597702  52.7241745  37.3733864  57.1539230  52.1523132
  37.0204048  56.8389778  53.5900917  78.4272461  55.3438187  85.9770355
  77.5480652  55.6416016  86.2107010  78.6154175  55.7811012  85.1466141
  41.9130936  49.2281647  75.7617035  42.7583046  48.9251213  76.0933990
  42.1338196  49.7753258  75.0079651  20.8637295  47.2363625  21.0291080
  21.4672031  46.5318527  20.7930584  20.9246483  47.8572121  20.3031139
  66.8753128  69.8428345  24.3433971  67.5888824  70.4455414  24.5526714
  67.2506409  68.9722366  24.4754333  21.1664352  36.6908340  89.0385437
  21.0698795  35.7667046  88.8085556  21.4599075  37.1096306  88.2294006
  73.1186676  23.5621300  58.1405449  72.7565308  22.7027645  58.3563766
  73.4586105  23.4623280  57.2513275  32.4682121  64.5777130  58.3901482
  31.8262386  63.8722343  58.3101730  33.1988716  64.3004608  57.8374252
  37.5742836  26.8207989  82.8335266  36.7039757  26.7109718  83.2165833
  38.1377869  26.2447853  83.3501511  66.4076996  41.0039215  32.5646439
  66.0694275  41.0369835  31.6698170  67.2341843  41.4852371  32.5261993
   4.4208775  51.7032394  70.8302383   4.7362142  50.8262405  71.0485611
   5.1134849  52.2895241  71.1348648  55.2972870  53.0212173  46.3193321
  55.3645897  53.8725662  46.7516632  54.7714691  53.1904716  45.5376053
   0.9944990   3.2515619  61.8225899   1.0934203   3.6948495  62.6651726
   0.7624321   2.3515146  62.0512619  62.0439911  16.4258385  42.6915169
  62.5748444  15.6954517  43.0092583  62.1213264  16.3813362  41.7384834
  30.4245567  13.0389385  78.5511017  30.2102680  13.2710609  77.6475372
  30.9517727  12.2436047  78.4754791  77.3265991  51.1008492  31.7103672
  77.8593140  51.0291176  32.5023880  77.7562637  51.7824707  31.1936378
  48.5894470  28.6682701  40.2580643  47.9936066  29.1461163  40.8350143
  48.7987747  29.2905369  39.5615005  68.4832687  46.7109108  43.2728500
  68.1645889  46.2604408  44.0549927  69.3192596  47.0927887  43.5402870
  25.9518089  61.5482864  22.8414154  25.5814247  61.5660706  21.9589596
  26.1328926  60.6229897  23.0065613  85.3811874  48.7405319  40.2543335
  86.1188812  48.1872063  39.9976730  85.6527176  49.6271095  40.0166702
   3.2473133  51.2763824   3.3129022   3.7672899  50.6111488   2.8619943
   3.5324571  52.1049728   2.9277253   1.0985830  23.5228462  68.6496124
   1.6353071  24.2518940  68.9604950   1.6530950  22.7511368  68.7645493
  24.7896271  38.3534508  32.2293854  25.6035976  37.9717674  32.5580215
  24.1247826  38.0807076  32.8617058  58.2233963  70.4887695  78.7909088
  58.5955849  69.7480392  78.3123398  58.4939041  70.3479919  79.6982346
  25.8665810  65.6173172   2.6216044  25.1183262  65.7465897   2.0388227
  26.5750351  66.1173706   2.2163067   3.8735583  62.7284393  21.9390965
   4.4509692  63.2891960  22.4571533   4.3684278  62.5485115  21.1397457
  43.9755173  16.7855740  18.0937729  44.2337646  16.6417465  17.1833572
  44.2208519  17.6935215  18.2717457  85.0896530  26.9175167  77.1941071
  84.7178268  27.6716690  77.6515274  85.9505081  27.2159367  76.9006729
   1.8814045  41.5341339  59.2631149   2.3916583  42.3167381  59.0547752
   1.2450074  41.4666252  58.5513039  47.0264206  54.9218216  84.8280182
  47.9536285  55.1221657  84.9559860  46.6757545  55.6891785  84.3758850
  44.5862389  69.2599487  26.0323868  44.1126366  69.0821381  26.8449841
  44.9348717  70.1440125  26.1468945  58.1508179  65.5930939  25.8263721
  57.2618828  65.8855667  26.0275669  58.0922966  64.6377258  25.8171291
  62.8539276  19.7866039  32.9980278  63.0221024  19.4347248  32.1238823
  63.6640053  19.6243896  33.4814415  11.0371342  56.9065781  70.8563995
  11.3326883  56.1787338  71.4033203  10.1123695  57.0134392  71.0791626
  81.2704163  66.2437820  61.8816528  80.7515335  67.0247498  61.6890678
  81.8791199  66.5232773  62.5654564   3.3366299  51.5351868   9.7583570
   2.6058316  51.6308327  10.3691092   3.6410787  52.4299965   9.6071482
  32.4185486  15.8929939  11.6464758  32.9688835  15.1543970  11.3860188
  31.6754074  15.4910259  12.0963573  37.8617706  44.2611046  39.8552971
  38.5126114  44.0638809  39.1816940  37.7357941  43.4319611  40.3166924
   3.9199362  17.7653351  73.2111053   4.3757510  16.9342270  73.0779724
   4.3300128  18.1413155  73.9900208  42.4752655  40.4019279  67.6252213
  42.7625999  39.8449020  66.9017639  43.2106819  40.3971329  68.2378922
  24.8785992  42.4732895  39.5544434  24.9130287  42.1974068  40.4703789
  25.7290497  42.8828163  39.3955231  84.8645859  46.9721947  85.3638153
  85.7277222  46.6708031  85.6473465  84.2514725  46.5279808  85.9494781
  67.2771301  32.7595100  10.2889128  67.7817307  32.7551880   9.4755278
  66.3664169  32.8397255  10.0053701  51.0517273  58.0750732  54.2315483
  50.6550102  57.2579117  54.5333748  50.3906975  58.7433357  54.4123726
   1.2031024  43.1979866  55.5506401   0.8534070  44.0810928  55.6692619
   2.1530032  43.3156662  55.5421524  75.3388290  60.3311119  73.8479538
  75.2872009  61.2422676  74.1366806  76.2770920  60.1474724  73.8012238
  85.9722672  12.6249609  14.6382990  86.0824890  13.5577459  14.8226757
  86.8612823  12.3040352  14.4870119  86.8861847  29.9788513  56.5481567
  86.7647781  30.8982296  56.3110161  86.1822662  29.7971420  57.1708298
   3.7056515  50.1616707  49.9254112   4.1436410  49.9008446  50.7355766
   3.3817828  51.0449600  50.1018867  18.3320103   5.0754228  87.0132446
  17.6234379   4.4458947  87.1468582  18.2563152   5.3295946  86.0935211
  40.6995163  26.7711983  43.8239098  41.5430069  27.2200794  43.8809853
  40.7846794  26.0249767  44.4173164  74.6839752  14.7311506  55.6640282
  74.0843887  14.2086363  55.1313858  75.1564407  15.2724628  55.0315819
  75.5234222   2.9577270  77.6616745  74.6307678   2.8403058  77.9866409
  75.4124680   3.2486739  76.7565384  50.5083008  71.2661209  32.9194679
  51.2610359  71.4714279  32.3649712  50.8732872  70.7472992  33.6362991
  69.3820496  71.3935928   0.4441514  69.9815063  71.7470016   1.1014106
  69.8948822  71.3778458  -0.3639245  45.7417908  34.5343857  44.8620682
  46.1731911  34.0270042  44.1745415  44.8095894  34.3504105  44.7463722
  47.1394386   1.3536074   5.6124349  47.6549339   0.8627186   6.2523766
  46.7922707   2.0976038   6.1045470   8.6247787  27.7638264  64.6096344
   8.1874771  28.6069889  64.4909897   7.9423051  27.1860046  64.9510803
  57.5955238   2.8242295  70.9613571  58.0652618   2.3026161  71.6121216
  56.6897087   2.5203075  71.0192947  43.3529701  60.4844208  79.5900726
  43.1770668  60.7633591  80.4886780  44.1732559  59.9944687  79.6476059
  12.0124683  30.7381325  73.8905945  11.4894171  31.3321362  73.3522568
  12.4408569  30.1585255  73.2606964  46.0445099  70.8762665   0.8019441
  46.1295662  70.3880463  -0.0169798  46.0662003  70.2052383   1.4842031
  54.4511108  26.1823330  81.5615540  54.1092339  26.9405460  82.0353317
  55.2293510  25.9227276  82.0546875  54.2730331  70.8766403  63.2368088
  54.4850693  70.7835083  64.1655731  54.4788132  70.0223160  62.8573151
  56.5562630  66.5582199  75.1607056  56.3703842  65.9380264  75.8657150
  57.1375122  67.2062225  75.5588074   9.1697369  60.3640594  14.3466730
   8.6949635  59.6288338  14.7343121   8.4856987  60.9241676  13.9797916
  44.8754883  52.4554596  51.7330322  44.6288948  51.9229431  50.9768219
  45.5731735  51.9576492  52.1592407  35.1343193  29.7211933  66.9928818
  34.2160339  29.9670944  67.1047440  35.2126541  28.8782177  67.4395218
  32.2948723  71.5599747  69.4764481  32.7146034  70.7135010  69.6298828
  32.5825272  72.1060715  70.2080688  41.5360641  69.8734131  17.5470066
  42.1380272  69.5453262  16.8789997  41.9787712  70.6390610  17.9131012
  26.8600178  69.7683792  17.6092415  27.6533661  69.2474060  17.4850903
  27.1771374  70.6644287  17.7221966   7.8930764  45.0693932  64.9743042
   7.9788442  44.9354897  64.0304031   8.4659519  45.8124428  65.1638336
  58.1949425  45.7475319  77.3020325  58.5421066  45.0163040  77.8129272
  57.4846077  45.3642998  76.7874603  25.7623672  33.5455742   5.4645638
  25.1616058  34.2896690   5.4241333  25.9696960  33.3551483   4.5496950
  18.5242748  39.1955261  18.0766983  17.9246616  39.3689423  17.3510094
  19.2863731  39.7452202  17.8942814  85.9113312   2.3897309   5.2017274
  85.3059464   2.1838593   4.4894347  86.6577225   1.8081142   5.0573287
  48.5181389  65.2595673  74.0610123  47.8172302  65.3595047  73.4168320
  48.5876350  66.1199188  74.4747696  75.1405716  56.9949875   7.9396915
  74.5512466  57.7185287   7.7265878  74.7672577  56.6071892   8.7311983
  60.4963531  20.9859943  26.4101734  59.7889404  21.4922695  26.8095264
  60.4509583  21.2040501  25.4792461  26.5258808  33.8866348  13.8414412
  26.3465748  33.1390991  14.4117689  27.3749084  34.2152328  14.1370869
   4.3560820  66.0651169  30.1727180   4.1708131  66.9996567  30.2651176
   5.3012242  66.0215073  30.0276814  68.5604858  42.0660782  12.4840565
  69.3069611  41.4668999  12.4849443  68.1664352  41.9565048  11.6186371
  85.1711426  43.0005455  13.8236160  85.9218597  42.8148575  13.2595491
  84.6147385  42.2256851  13.7446156  61.4284248  64.1783447  87.4594040
  60.9451828  64.7602692  88.0459747  60.8546333  63.4203568  87.3478317
  53.9742393  22.5428467  83.6850433  53.9234734  23.3585854  84.1832657
  53.0632057  22.3261929  83.4867859  12.2078848  39.0752258  18.4268360
  12.8073406  39.5997849  17.8960590  11.4059372  39.5962105  18.4679337
  48.3486519  55.9896088  66.8944550  48.8392563  56.6950607  67.3162079
  48.8557777  55.1997681  67.0820923  51.8012657  27.5547886  18.7092838
  51.4477463  27.3408184  17.8458767  51.3504601  26.9585094  19.3071651
   9.1488647  61.3811111  67.1133194   9.6298580  61.7006760  66.3499374
   8.7850590  60.5413322  66.8328705  56.1042557  39.8005791  62.7158318
  56.3836212  39.0816803  62.1489334  55.3805122  40.2112579  62.2427902
  66.8242416  65.3975525  45.2847900  66.8196030  65.8243790  46.1415482
  67.1394424  64.5110016  45.4605713  58.7466354   9.6489925   4.9893832
  58.2294579   8.8476696   4.9079027  59.0007782   9.8623648   4.0915437
   2.6066270  36.3840294  83.3209763   1.8789573  36.7610130  82.8264008
   3.2556531  36.1556244  82.6555252  76.8996048  46.5058289  54.5514374
  76.2130814  45.8440933  54.4675941  77.7080841  46.0018044  54.6438942
  85.7879868  71.5741653  84.1545029  85.6523285  70.7523575  83.6828537
  86.5895309  71.9371185  83.7776337  74.4064560   7.3915882  23.0294647
  75.3597107   7.4516559  23.0920792  74.2497177   6.9073110  22.2188244
  43.8553352  46.7962914   9.9351416  43.9930649  47.7371254  10.0451136
  44.4684830  46.3911629  10.5484581   8.6768188   4.3809066  25.4475021
   8.2177210   3.5477564  25.5539055   9.3161335   4.3947568  26.1597652
   0.4563218  50.1184540  88.6039734   0.7333635  49.4955559  89.2758942
   0.9224470  49.8425293  87.8147888   8.8792295   8.3996906  72.5838776
   9.4395103   7.8007226  72.0903702   9.4301338   9.1659384  72.7438812
   5.5182486  50.2138672  43.5854683   6.4526806  50.1199722  43.7705421
   5.3318148  51.1370506  43.7563820  52.4609299   3.6548712  39.5525360
  53.1414185   3.0478930  39.2614250  52.6951637   3.8611910  40.4574127
  69.0741119  42.0661354  43.9666748  68.2800980  41.7668457  44.4096069
  69.5854721  41.2690811  43.8271828  31.7822037  68.3474426  50.2334099
  31.5025940  69.2547455  50.3553085  31.6676846  67.9438782  51.0937881
  19.3560848  61.7981377  76.1517029  19.2850227  61.4593391  77.0441132
  20.2900543  61.7449188  75.9489670  58.2199097  21.6885681  76.2524414
  59.0535126  21.6261024  75.7861404  57.7682953  20.8701439  76.0463867
  68.7826004  19.0799980  55.8399811  68.1561356  19.5639668  56.3780746
  69.2156296  19.7520485  55.3136139  79.4009323  62.4605713  67.7812271
  78.7541656  62.9819450  67.3057404  79.8332825  61.9398651  67.1043472
  36.9030075  30.0134983  15.2078552  36.0724068  30.4262753  14.9713230
  37.5339088  30.7332897  15.2177782  77.2329102  50.7438927  73.5357590
  78.1819153  50.6358948  73.4729156  77.0673447  50.8680687  74.4703217
   6.7486167  68.0739365  33.0473976   6.0430117  68.2205887  33.6773529
   7.2611771  68.8820343  33.0694542  33.6000557  67.1396408  56.3181648
  32.7326851  66.8999252  56.6444092  33.5830765  66.8973770  55.3922844
  47.3158684  51.5427055  16.1667175  47.3007431  51.4487038  15.2142649
  47.9953461  50.9340591  16.4567032   8.5620975  15.8892202   1.6172860
   9.2787886  15.5963316   1.0544342   8.7336197  16.8202763   1.7585181
  20.8158455  60.3130493  60.8169289  20.6610889  60.8409271  60.0335846
  21.4602585  59.6605835  60.5426064  66.5491562   3.2256472  15.0141239
  67.2946320   2.7625253  15.3962431  65.8298950   2.5952861  15.0533705
   2.3165698  43.8366470  19.7230396   2.8357131  44.6345825  19.8231678
   2.6780877  43.2327194  20.3717365  81.8279419  31.1894703  34.4319344
  81.6804886  30.6870403  35.2332191  82.2463074  31.9973831  34.7293930
  39.3047791  45.3560333  10.8202791  39.6463585  45.2256927  11.7049065
  40.0059395  45.0495720  10.2452259  33.5780411  70.8019867  32.0723572
  33.2683334  70.8785934  31.1698895  32.9085236  71.2448502  32.5937500
  69.2877731   0.0118353  46.6041107  69.3250885  -0.2167654  47.5328636
  68.3689194   0.2298211  46.4478416   8.2861185  70.5198288  63.0626526
   9.0585632  70.4797745  63.6265297   7.6671748  71.0697327  63.5430145
  45.4147186  24.6276493  15.8209314  44.9247017  23.8644600  16.1269646
  45.3567314  25.2544403  16.5420437  59.5531693  47.4518471  27.2178574
  59.0784454  46.6909447  27.5523682  60.2667961  47.0800247  26.6994762
  77.8786469  41.3998909  61.7839775  77.1802063  42.0379524  61.6380730
  78.6269989  41.7490578  61.2999420  28.1791840  33.5329895  19.2033253
  28.0215073  34.3381119  18.7102203  28.9544334  33.1491280  18.7936058
  61.0515022  34.2852058  59.4576340  61.4422340  35.1576271  59.4082565
  60.2339516  34.4157639  59.9380493  28.4880409  58.6362305  61.5517273
  28.0632687  57.8082924  61.7760429  28.0848484  58.8955231  60.7232132
  42.6510277  27.9660969  62.5935097  43.5003090  27.9544029  63.0348892
  42.7460327  27.3411541  61.8747253  55.2972527  20.0548840  50.2037086
  55.1900635  20.4471531  49.3371849  55.8786049  20.6565552  50.6687431
   0.1660480  16.4955578  46.8179893   1.1061503  16.5122223  46.9973259
  -0.0754083  17.4165802  46.7197571  24.9628963  18.5090847   6.8002701
  25.8298187  18.1907120   7.0518937  24.8841839  18.2824841   5.8736153
   7.8378830   1.5870351  57.2539330   7.3099599   0.7990977  57.3830986
   8.6852160   1.2606332  56.9510803  80.8289948  37.7262993   7.9312043
  81.3318329  38.4726562   8.2572918  81.2149429  36.9677315   8.3692083
  48.2492561  69.6468430  25.2448616  48.9701958  70.2521057  25.4184704
  47.7148361  70.0930481  24.5879555  22.8813419  52.7715034  40.0891151
  22.0937881  52.4367867  39.6602135  23.0346775  52.1661148  40.8145294
  71.8220673  21.0460033  58.4880142  71.3074570  20.3771210  58.9396896
  72.1462250  20.6079636  57.7010765  48.5900116   4.1206641  62.8369980
  48.9901352   3.6922390  63.5936890  49.3101501   4.2321692  62.2163544
  63.5515442  32.3837242  69.4933701  63.6275597  31.9787407  70.3573380
  63.9657516  33.2408524  69.5933456   6.8368950  66.5232468  44.7045059
   6.2853699  66.4992218  45.4864769   7.6944013  66.2241669  45.0069389
  43.9470749  69.8510666  84.2017746  43.8124619  70.3435898  83.3921280
  44.6609192  70.3094559  84.6451035  78.3686752  26.3148060  60.6314888
  79.1455841  25.8595562  60.9561195  78.7050400  26.9232903  59.9735870
  60.6210251  48.0410690   0.9687917  61.2964134  47.5953598   1.4800891
  61.0316238  48.2033501   0.1194942  86.3081970  59.7992897  26.4095383
  86.0045624  60.5278053  26.9511127  87.2615280  59.8198738  26.4930058
  40.9064064  28.4820995  64.8864670  41.3212242  28.5336761  64.0253677
  41.2286644  27.6612701  65.2587891  70.6500854  29.3585987  39.8849983
  70.1177368  28.7374191  40.3819542  71.3228989  29.6451664  40.5026016
  21.2933502  12.4826336  47.0040474  21.5535984  12.9687433  47.7864761
  21.5398788  11.5769634  47.1917114  82.2296753  12.2490530  73.1607513
  81.3749619  11.8779449  72.9417191  82.0678482  13.1885014  73.2472382
  23.8514042  70.2980499   4.4607420  23.3533154  70.5736542   5.2302747
  23.8183956  69.3416977   4.4839706  17.2518978  16.0261898  79.9989853
  17.0373821  15.6448050  79.1476593  17.7710342  15.3530655  80.4390259
  73.1355209  39.2358475  46.7905922  72.4359741  39.8379669  46.5369835
  73.0498352  39.1556625  47.7405701  14.1887054  14.7970057  75.4717941
  14.5205450  14.3975773  74.6676941  13.3098269  14.4322205  75.5754089
   1.8620311  64.8881454  64.7385330   2.3904121  65.6242676  65.0470428
   1.8200052  65.0046616  63.7893791  54.4685326  16.8374653  45.8588829
  55.1005974  16.8419647  45.1400642  53.7786140  17.4371414  45.5749245
  56.0727005  24.5480366  51.0703011  56.1344566  24.5090637  50.1158943
  56.8537941  25.0303764  51.3413582  83.6132965  15.3259764  49.0984688
  84.1868057  16.0453224  49.3627739  83.1911469  15.0454845  49.9104691
  81.0102005  21.9785271  74.7958145  81.9062653  22.0818787  74.4754715
  81.1117859  21.6643009  75.6942444  82.7481689   8.6704884  48.3264122
  83.2324448   8.3634005  49.0928383  82.3148499   7.8872614  47.9872589
   8.6617708  71.5933990  67.3218002   9.2930822  72.1782913  67.7408218
   8.9732227  70.7134399  67.5337219  68.2116013  24.3112087  10.5342684
  68.0885086  23.7113934   9.7985373  68.5146027  25.1250553  10.1316814
  23.1200085  69.3932877  25.3539505  23.8073483  69.7216187  25.9336033
  22.3680801  69.2531357  25.9294434   4.7311187   9.8979120   1.5345732
   3.8937304   9.4346409   1.5147581   4.5227256  10.7534122   1.9099699
  64.0340118  36.9500809  29.7244434  63.4239349  37.3730316  29.1201649
  64.8326492  37.4743042  29.6644573  63.1929512   1.9250349  65.0936508
  62.8071747   1.0524856  65.0157700  63.8655281   1.8302222  65.7681046
  77.8898315  70.6852798  44.6377983  78.3120880  70.1545563  43.9623222
  77.4423981  71.3786392  44.1527290  38.7083511  55.0617485  60.2675247
  39.3871040  55.2445793  59.6178322  38.2930183  54.2561302  59.9597816
  63.1410179   5.4435740  57.6237259  63.5524979   6.2773800  57.8510666
  63.1108322   4.9586506  58.4484520  50.6273422  13.7742472  62.0623779
  51.3604774  13.3893890  62.5426178  50.1786308  13.0253725  61.6698532
  26.9185772  48.5783920  21.8216133  27.1732254  47.7534866  21.4081917
  26.4136772  48.3148842  22.5909443  56.2359200  16.4662819  33.3266983
  55.5881195  17.1214008  33.0670776  56.8766251  16.9547119  33.8435783
  47.1160278  35.4447708  34.0717049  46.6296043  35.1945038  33.2862167
  46.4498711  35.5071335  34.7562332  18.1714382  62.2266273  45.4199791
  18.5589619  61.3616676  45.2861900  17.3172245  62.1753044  44.9911270
  39.9449501  43.5719376  46.5629959  40.5625534  44.3011017  46.6188202
  40.0682411  43.0904655  47.3810539  40.0605812  40.5459595  44.2558365
  40.3781128  39.7332420  44.6493988  39.2136192  40.6998405  44.6744118
  39.7352905  44.6080513  82.0880280  40.3102036  43.8431740  82.1140213
  39.1142693  44.4171066  81.3851013  66.7242966  29.0840683  55.9964905
  66.8284607  29.8853207  56.5096931  66.8123169  28.3770638  56.6357307
   1.9233568  47.0374527  53.7548370   2.2495630  46.6741295  52.9315376
   1.8061085  47.9703026  53.5751762  62.2615700  65.6135025  37.2913971
  62.2693024  66.5655975  37.3898735  62.6885490  65.4563446  36.4492416
  32.9007683  26.0656147  85.1139679  32.9407234  25.2288475  84.6508713
  33.7346840  26.4905014  84.9132538  65.2180786  65.0498657  58.8492813
  64.3357620  65.3587875  58.6435699  65.7250137  65.8494720  58.9902611
  74.1392899  21.4980755   5.1872506  74.5793762  20.9346180   5.8237019
  73.4066162  21.8792515   5.6711149  67.5338058  53.5252762  55.7758751
  67.4374084  52.6444702  56.1379776  68.3720932  53.8348427  56.1189117
  49.7436409   9.5431938  61.9796867  48.9983940   9.1837988  62.4610062
  50.4977837   9.3732595  62.5441513  21.0196915  10.6322699   6.1519051
  20.6776791   9.8924608   6.6538444  20.7724838  11.4030628   6.6627846
  51.9248505  32.0390358  86.9532471  51.1401253  31.9400253  86.4141388
  51.6713791  31.6965179  87.8103714  49.6172714   9.5534821  38.6279869
  50.0753670   9.6289625  37.7909164  49.1152725   8.7418480  38.5539589
  56.8858147  61.7459259  60.0916748  57.6116943  61.7650414  59.4680061
  56.9239616  62.5961494  60.5297356  49.6055870  70.3260422  10.9516573
  50.0711098  70.3743515  11.7866354  49.5577888  71.2336197  10.6512308
  23.1550388   5.6208687  13.1052780  22.4765110   6.1841054  13.4775658
  23.3263130   5.9922056  12.2398272  27.3385582  45.6862373  21.4315968
  26.5203514  45.3007965  21.7449741  27.5163612  45.2333832  20.6072540
   9.3937454  67.5024643  24.9397507   8.8456459  67.9156189  24.2725754
   8.8778925  67.5617447  25.7438736   0.5808671   0.5803109  62.4887581
   1.0673972   0.2475757  63.2429504   1.0717641   0.2660896  61.7294693
  83.7229767  61.8270035  20.3110733  83.5546417  62.7636681  20.4138031
  83.0865097  61.5396500  19.6564217   1.8297360  10.1644745  21.0166531
   2.3866448  10.8907690  20.7363300   1.2051069  10.0512600  20.3002357
  83.5279007  31.7847137  54.3738861  84.0539322  32.5559311  54.1623459
  83.9023666  31.0851765  53.8384819  83.3374939  49.3766098  18.6837769
  82.8401794  48.5630493  18.7676582  83.6057434  49.5866623  19.5782890
  70.5620880  31.2444344   9.6697865  70.4452209  32.1935730   9.6284494
  71.3164825  31.0712509   9.1066465  16.2702026  65.5127029  87.3870392
  15.8822918  66.3647385  87.5865021  17.1689987  65.7138443  87.1263885
  13.2331305  17.3800793  11.0301247  14.0721664  17.7484360  11.3068247
  12.5774422  17.9163246  11.4759340  36.0368233  23.6660366   6.1643658
  35.6870728  23.1765518   6.9088860  36.1182785  24.5641861   6.4851875
  49.2965355  69.4487000  43.3842201  48.7336655  68.6793900  43.4712524
  48.7017517  70.1926346  43.4791985  28.4193287  11.9009638  74.2630539
  29.0661049  11.2136507  74.4227829  28.5841312  12.1803226  73.3624802
  48.2621269  12.6925268  39.5864830  47.3203735  12.5911283  39.4484406
  48.6545868  11.9645290  39.1045837  24.5857983  36.7657280  29.4259624
  23.7645645  37.1152763  29.7718258  24.9188366  36.2016792  30.1239376
  51.4279900   8.5255165  70.6822739  51.1014633   7.6264172  70.6471786
  50.6577225   9.0518866  70.8964157  61.9667206  59.3268204  56.0653114
  61.1811142  59.4301491  56.6023140  61.9751625  58.3992310  55.8292198
  82.2826309  61.9849892  18.2203846  82.6768951  61.7573318  17.3783894
  81.3761139  62.2072449  18.0080910  86.2586060  45.4083710  22.0458221
  85.8604813  44.7525978  21.4733829  85.7345886  45.3774071  22.8462448
   2.8431840   6.2004819  47.2992096   1.9711891   5.8134007  47.2215881
   2.6839871   7.1435370  47.3383827  47.0229607  59.2477264  54.8603783
  47.5612335  59.7940178  55.4331436  46.6091766  58.6174583  55.4501038
  62.9328995  28.0019073  33.0763321  62.2154045  27.4727383  33.4247780
  62.9708023  27.7723694  32.1478348  26.1843834   3.8201811  41.0050125
  25.7149086   3.9178421  41.8334389  25.5987453   3.2965779  40.4581108
  76.2255783  65.6194077  77.5070419  76.0333939  64.9560852  78.1698380
  75.7820892  66.4073792  77.8211365  47.5524216  47.2013474  76.9790497
  47.1578903  47.2664757  77.8487320  48.1860237  46.4880333  77.0562897
  44.5166206  57.7256546  72.2570267  44.2033081  57.4614372  71.3920135
  43.7396774  57.6883240  72.8148804  56.7466698  10.7402897  10.4648962
  56.4072571  10.3666983  11.2781992  57.6904259  10.5857849  10.5058880
   2.6512194   7.1233301   3.1467776   2.6549904   6.3994651   2.5204895
   3.4215162   6.9705415   3.6940715  37.2649956  24.3151627  67.0172272
  36.7255363  24.1769753  66.2386932  38.1492043  24.4478722  66.6754684
  50.1051598  68.0123825   5.9427080  49.7391701  67.4551926   6.6296005
  49.3582306  68.5164795   5.6198807  27.1026268  41.8509941  69.5251160
  26.2924519  41.3513680  69.4240112  26.8140144  42.7240562  69.7910080
  68.7212372   2.6229711  27.5215397  69.5896988   2.4660122  27.1509132
  68.3751602   3.3593335  27.0173244  60.0610619  47.9095879  77.0077438
  60.0615349  48.3028717  77.8804169  59.4752769  47.1564903  77.0847397
  68.2840805  37.7122345  39.7839851  68.7514267  37.1169434  40.3700294
  67.5010681  37.9644394  40.2733879  31.9948692   6.7115684  51.1343155
  32.6161842   6.7320375  51.8621750  31.3695660   6.0270514  51.3723564
  70.6838150  40.0993767  16.9007359  71.2760544  39.5530548  17.4174747
  71.0796661  40.1241531  16.0295753  58.7395515  60.8768845  43.6738358
  59.0045204  60.7608757  42.7613869  58.0730896  61.5633125  43.6442871
  35.1579437  71.3384933  52.2044601  34.6438217  71.7013474  51.4831772
  34.5408134  70.7861099  52.6843071  84.8259277  41.0967140  22.5590687
  84.5620499  41.2918167  23.4582558  85.6170959  40.5659027  22.6514530
   5.2682343  64.2769241  53.0518265   6.1721549  64.3207626  53.3636551
   5.2794213  64.7470245  52.2180901  58.0990181  65.1656189  17.7971420
  57.2533913  65.4958649  17.4937000  57.9917755  64.2146454  17.8165627
   5.6410546  34.4020119  84.2481766   6.4919281  33.9705315  84.1702728
   5.4596000  34.7342415  83.3690109   8.3362837  60.2370110  75.2879333
   8.7257471  60.5103340  76.1184998   7.4007516  60.1609421  75.4756165
  83.2274094  53.6313744  55.2752571  83.4159164  53.9792671  56.1468468
  84.0852127  53.4000549  54.9190254  61.3540154  63.4732132  59.8806305
  61.6971931  64.2075577  59.3715172  60.7762756  63.8790817  60.5269394
  27.8925171  29.4604321  63.4030724  28.8065701  29.5301895  63.1276245
  27.9049377  28.8200912  64.1144409  85.1761322  54.1361504  19.7735443
  85.5615997  53.6560287  19.0406532  85.3300247  55.0573273  19.5638332
  27.8929329  50.7122650  53.7556877  27.1009808  50.7887115  54.2878532
  28.5926285  50.5526428  54.3890762   5.3821826  67.4422760  10.3587170
   6.2737646  67.7905426  10.3537817   4.9814839  67.7985611   9.5657892
  58.2041626  17.5311546  34.7218246  58.9820900  17.2039719  34.2701492
  58.4605522  18.3947430  35.0454178   7.0274029  21.7651463  12.7471228
   7.8050056  22.0156612  13.2459297   6.2996860  22.1712799  13.2179890
  81.3123550  46.0249367  59.1605835  81.5790787  46.5057945  59.9440804
  81.5867767  45.1233139  59.3279076  22.8369808  40.1812477  39.6269531
  23.7924042  40.1327209  39.5946960  22.5451393  39.6540642  38.8832207
  17.6370583  46.6362648  55.9912262  17.0150433  45.9088707  56.0062141
  18.1256676  46.5168419  55.1768379  27.9181480  57.4708366  65.2092972
  28.7759819  57.8638802  65.0484619  27.7213230  56.9885139  64.4062653
  65.8834229  49.3143044  65.6305008  66.8220215  49.4996185  65.5999756
  65.5480804  49.8890038  66.3186111  25.3403950  22.2027035  72.6094513
  25.2886028  21.3772774  72.1275558  26.1021080  22.0996284  73.1798859
  61.4823418  28.3507652  87.5408173  62.3481407  27.9549065  87.6404266
  60.9203186  27.8493176  88.1315079  83.2392960  13.8453760  87.0286179
  82.6135788  14.5388956  87.2377472  84.0227814  14.0703936  87.5303650
  55.5066261   5.0263057  58.2721252  55.6479530   4.1520972  58.6354637
  54.7065277   4.9435534  57.7532539  27.5545368  66.8147507  33.5662346
  27.4144421  67.2379761  34.4132805  26.6736546  66.6129379  33.2507248
  43.3598366  66.5238419  44.9326172  43.8684311  67.2296143  45.3319206
  42.4490891  66.7456207  45.1264915   9.0725679   6.3900118  17.2125187
   9.3141365   5.5556846  17.6147308   8.2434311   6.6254387  17.6288567
  36.4329414  20.1113129  61.3580704  37.0548019  20.4295902  62.0124588
  35.5861626  20.1285000  61.8040581  48.4998245  50.3880959  50.5292320
  48.4625511  50.3759918  51.4856300  48.5662613  51.3160095  50.3038521
  34.7632790  54.7784348  46.0017242  34.9844360  53.8739777  45.7797394
  35.3309059  54.9887238  46.7432175   5.5317464  46.8435135   3.2241898
   5.7933154  47.5653343   2.6525381   5.9984679  47.0059853   4.0439491
  23.0051193  53.4517059  54.8230553  22.7201996  52.7189293  55.3690300
  22.7757416  53.1894875  53.9315033  61.9947128   4.9361153  25.3363667
  61.8789177   5.8080497  25.7139301  62.5296707   5.0820756  24.5561428
  72.1178894  57.7298622   8.0007858  71.8045120  57.6425476   8.9010086
  71.6278458  57.0690918   7.5114331  72.5230865  51.5162468  10.8116064
  72.6782684  52.4249725  10.5539894  73.3982925  51.1364594  10.8890772
  14.6532841  48.3293800  67.0635986  15.1513844  49.0488281  67.4515686
  15.2494059  47.5811195  67.0948944  12.0909958  50.1667290  31.7953548
  12.6006203  50.7435646  32.3643684  12.2173080  49.2929230  32.1651382
  24.1510448  38.0885353  21.8620205  24.3255253  37.2528419  22.2949238
  23.2493896  38.0128479  21.5497360  11.4458542  61.8440704  72.4272614
  11.5535831  62.4865570  73.1285706  11.0549345  61.0834503  72.8572311
  55.0796471  40.8413467  18.6149273  55.2080116  41.0925255  19.5296211
  54.8680801  39.9084816  18.6501446  72.1531754  70.0893097  68.1043320
  71.3499985  70.4052811  68.5182037  72.1200562  70.4435120  67.2156982
  50.7796745  65.4511871  12.8475332  51.0620346  65.9381027  12.0733128
  50.5349998  64.5887527  12.5120220  69.7654114  64.8493652  80.9340515
  69.3851471  65.0819702  81.7811203  69.9797897  63.9199829  81.0148468
  80.2067871  67.9934998  15.0601034  79.9043732  67.8897247  14.1578789
  79.6166229  67.4434814  15.5752897   6.3139162  65.8184891   5.5364146
   6.2360606  65.5111771   4.6332369   5.4126153  65.9890289   5.8099203
  13.1938572  61.7777901  45.5292015  13.1733332  61.1848221  46.2803307
  12.5911179  62.4832153  45.7643967  62.9218788  19.5851288  14.1973429
  62.5417252  20.4266949  14.4492941  62.6022453  18.9705544  14.8579216
   7.2876544   1.1807024   0.2769422   8.1034851   1.6573371   0.4301440
   6.7988567   1.7325885  -0.3335743  72.9450455  64.2701721  64.0829773
  72.1077423  64.6827774  63.8710327  73.1566544  63.7468643  63.3099289
  30.9755535  62.7746277  44.2136955  30.0659065  63.0688553  44.2606621
  31.4661465  63.4337921  44.7046623  22.1697311  71.0073166  75.6962738
  22.9820423  70.7950821  76.1559906  22.1408577  70.3913116  74.9642029
  22.5853214  62.4716187  50.5924339  22.1648426  63.1989937  51.0510750
  22.7892017  61.8396111  51.2818031  20.0670223  53.0668526  74.0822983
  20.6324139  53.8376961  74.0336609  20.2283592  52.5993919  73.2627335
  63.2501030  11.6694746  71.5942993  63.2159042  10.8903074  72.1492462
  62.3903389  11.7027187  71.1748657  46.9006424  38.7294846  30.3934231
  47.4672241  39.4735909  30.5971928  47.4885674  37.9741211  30.3919525
  85.3143997  35.8640442  63.7354507  85.0116119  36.6151848  63.2252159
  84.5921249  35.2374916  63.6910210  34.9471931  62.6721611  43.2971153
  35.1710434  62.0990639  42.5638504  35.7680016  63.1136360  43.5153122
  46.1638832   1.3436471  11.6204414  46.2426338   2.0047681  10.9327278
  47.0561447   1.0203003  11.7451363  76.7025681  34.8046646  17.6889038
  77.5802231  34.4302139  17.7646999  76.8102646  35.7209625  17.9439201
  32.6510201  69.8723526  14.6573286  33.5197563  69.4705887  14.6680136
  32.8219337  70.8134995  14.6930351  41.0151253   1.1539394  87.4703903
  40.7792320   0.3524885  87.0032043  41.9707718   1.1848543  87.4255524
  71.0269089   7.7210517  75.0212250  71.6856461   7.0342808  75.1244049
  71.1192703   8.0069275  74.1123962  53.1304207  12.7150192  14.7374744
  52.1791878  12.6661644  14.6425924  53.4197502  13.2330513  13.9863663
  70.5698090  11.3115311  73.1267319  70.2391586  11.1841240  72.2375412
  70.0065689  11.9913874  73.4965897  42.4145966  61.2729263  63.4676399
  42.6135330  62.1835251  63.6855087  42.9391251  61.0932503  62.6873703
  57.4981689  58.1758194  31.8539600  58.0079002  58.3946648  31.0738888
  56.9298744  57.4578362  31.5750809   9.2837982   9.1717014  23.7292576
   9.4811296   8.4844389  24.3656235  10.0928259   9.6794004  23.6664238
  76.1352081   9.5580931  75.8069839  75.8501892   9.0988226  75.0170059
  77.0389862   9.2712450  75.9378815  53.0230942  51.9851875  83.4094849
  52.8972359  52.5278091  84.1879196  52.7275047  51.1141510  83.6743546
  26.9509258   0.5846573  21.5657749  27.3105087  -0.3019835  21.5940666
  26.0062408   0.4573272  21.4786625  18.1261082  20.1031227  14.7763290
  17.2713032  20.3797646  15.1064978  18.1397991  19.1555882  14.9113226
  38.2908669  32.5918503  27.1955891  38.7870255  31.8559704  26.8370628
  38.5155716  32.6016006  28.1259899  18.6230488  39.3699608   2.2045763
  19.5276051  39.1339798   2.4102957  18.5086803  39.1069717   1.2913463
  38.5764427  33.0663834  52.6468277  38.6156311  32.2854805  53.1989899
  39.2971001  33.6150475  52.9564323   4.4830709  35.0173607  63.8084297
   3.9009106  35.6434517  64.2389297   3.8988013  34.4651413  63.2888947
   5.8132429  50.5735207  87.1450577   5.7833409  49.6267509  87.0073318
   6.1155338  50.9277763  86.3087845  42.7507591  70.8814926  75.1865845
  42.6382980  71.1019821  74.2619400  42.1749687  70.1295166  75.3252411
  40.9106140   7.6202888  46.5346642  40.5929375   6.8393254  46.9878845
  40.7470932   7.4428163  45.6083832  52.0527229  66.2339706  39.1979332
  52.6934128  66.9382858  39.2963867  51.2061768  66.6595306  39.3339195
  52.8548622  47.3724251  76.4934616  53.4763603  46.7345619  76.8443222
  52.2227554  47.5045967  77.2000046  40.2617569  68.3136444   2.3893039
  39.6889915  67.7365570   2.8944201  39.6631317  68.8992462   1.9256760
  24.5814533  60.9314232  43.1259880  25.4774513  60.5967903  43.1639442
  24.6608486  61.8558197  43.3614082  58.4596329  17.3276176  44.9353600
  58.5641136  17.8908272  45.7022438  59.3404465  16.9968510  44.7593231
  53.3153191  47.1487083  24.1362324  52.9518700  47.9753494  23.8187447
  52.8806953  47.0030098  24.9765339  69.3997269  69.6526184  56.0190163
  69.5447235  69.7896652  55.0828400  70.2775497  69.5381393  56.3831062
  19.4675770  37.3674850  78.8063583  19.1542816  37.8039551  79.5985565
  20.0830307  37.9891739  78.4178314   5.5015163  62.9459457  24.7360210
   6.0593071  62.6821175  25.4677963   4.6331506  63.0545807  25.1237984
  55.3025284  33.0581741  68.7758484  55.7514534  32.6486244  69.5154190
  54.4049988  32.7297401  68.8287964  62.4087601   4.8160572  66.2050858
  62.7194633   4.1040506  65.6458511  62.3544464   4.4283037  67.0785446
  27.3425159  65.9455795   8.4671783  26.4650574  66.3027496   8.3303204
  27.2282829  64.9975510   8.4005899  11.5046883  62.1534042   6.3432889
  11.5846024  62.7077217   5.5670276  10.7333126  62.4897881   6.7994223
  19.9043045  47.5153809  57.4962883  19.0319920  47.1523628  57.3429298
  20.0340614  48.1375084  56.7805023  80.4841461  18.7100544  80.3213959
  80.2564850  18.7871666  81.2479248  81.3609467  19.0887661  80.2578812
  30.4998569   0.3209931  17.3296413  29.9867039   0.1807936  18.1254101
  29.8600464   0.6132788  16.6804543  73.9442978  40.1678085  54.6056328
  74.7717056  40.6391640  54.7028542  74.0453796  39.6715202  53.7934074
  12.6318340  33.0692978  63.1104813  12.8342733  32.9138794  64.0330276
  12.0682917  32.3364944  62.8621864  36.9158287  30.8289490  83.4792099
  36.3502426  31.4787445  83.0619431  36.5981483  30.7785339  84.3807449
  17.2082901  14.4389324  10.7242174  17.0823727  13.4900751  10.7174559
  17.6398849  14.6292114   9.8912992  83.3202667  46.7920570  14.8843117
  83.1526642  46.7272568  15.8244934  83.8472443  47.5854416  14.7890921
  61.0850143  20.7467766   4.8435016  60.6739349  20.0331154   4.3557186
  60.6865005  20.7034664   5.7127209  45.6751556  56.5649529  67.9193115
  46.6274223  56.6600418  67.8999023  45.5292854  55.6863556  68.2700577
  35.4284286  43.6089554  10.3983459  35.4859238  43.9754066   9.5159416
  36.1535225  42.9859543  10.4466829  67.6042252  24.1317883  39.5285416
  67.9538651  23.6913242  38.7539597  67.3728943  25.0084305  39.2215996
  43.7820358   3.1767123  78.2035522  43.9739723   2.9767127  77.2873688
  44.5420265   2.8491139  78.6845093  70.4467545  63.6238594   5.0853086
  71.2968521  63.3368416   4.7518582  69.9319305  62.8197021   5.1525269
  46.3102760  25.1516781  36.8006172  45.3959579  24.8959026  36.6788406
  46.7688713  24.3285236  36.9689560  68.1382523  59.6828499  10.2742252
  67.3830032  59.1103592  10.4087095  67.9169006  60.1921921   9.4946060
  70.0694046  28.2213478  45.4440689  70.4533539  28.8138523  44.7977333
  69.5039520  27.6427593  44.9324760  51.5272713   4.5043454  22.0244942
  50.7012520   4.6274786  22.4922142  51.7075195   5.3568244  21.6282349
  35.5842476   4.5817914  66.8919525  35.6145401   4.4510212  67.8396912
  36.3011971   4.0456624  66.5531616  29.0746994   6.5403590  32.6950264
  29.8976498   6.0904751  32.8863106  28.6105194   6.5567203  33.5319862
  67.2849045   2.0241184  -0.2751652  67.9629211   1.3709587  -0.1022161
  66.6780624   1.9399222   0.4602817  73.5453644  66.3558197   6.4609218
  74.4313965  66.1727066   6.7734132  72.9961319  66.2822037   7.2414060
  27.6057701   8.9346895  32.1066971  28.0917015   9.6675825  32.4848137
  28.0705223   8.1558485  32.4127121  65.5679855  46.3818092  21.3782997
  64.8751068  45.8387527  21.0024853  65.1485672  47.2267799  21.5406170
  50.0486603  21.8757229  86.4061203  50.7476158  21.4506092  86.9030838
  50.4944038  22.5527325  85.8970032   8.4832306  55.5089493  34.3206711
   8.2642918  56.0914078  33.5933189   7.6964350  55.5002670  34.8657494
  64.4435577  52.8148766  85.8828278  64.4045258  53.7385826  86.1307831
  63.5411263  52.5064964  85.9649811  66.1603394   0.5303129  62.7478294
  65.5166092   1.2102402  62.5489731  66.6766663   0.4474857  61.9460945
   0.1811977  13.4039459  73.0086746  -0.0056579  12.4769249  72.8605270
   0.8026906  13.4096413  73.7366486   3.9705386  65.0285263  47.1394234
   3.8049619  65.1233139  46.2014275   4.3380551  64.1493607  47.2301254
   4.5155535  41.3292999   6.0370054   4.7751012  41.4597816   5.1249518
   4.4894762  40.3785629   6.1449380  50.3334198  18.8077087  70.3853302
  50.3713264  19.2470818  71.2348938  50.4225998  17.8774815  70.5925903
  49.7773399  67.1348877  41.0126839  50.0400200  66.8645859  41.8925514
  49.0193558  66.5866165  40.8099785  82.9287872  23.6336117   7.0567322
  82.7666626  23.8512211   6.1388035  83.8188248  23.9441853   7.2229190
  62.7116623   3.8605711  88.7504654  62.4908485   4.7770505  88.5845184
  63.4167213   3.6683538  88.1322632  19.9357128  13.5150576  85.6713181
  19.6775970  13.2603893  84.7854538  19.5453758  12.8477173  86.2356949
  85.9448776  51.6452637  55.3647079  86.5761566  52.3551941  55.2476120
  85.4853592  51.5927162  54.5266609  67.1782761  35.2708397  13.7964325
  66.5226059  34.5815392  13.6906281  67.0521774  35.8399315  13.0371790
  29.5933971  44.9596558  30.6156216  29.1723747  44.7518692  29.7814751
  29.7909184  44.1069946  31.0031662  68.6014633  45.1967430   4.6023912
  68.7084122  45.2220573   5.5532608  69.3006287  45.7583275   4.2676945
  18.4058285  33.2944069  75.9423752  17.8236694  32.6476173  76.3411026
  18.8495216  32.8172417  75.2411728  66.4254379  25.8546333  41.5812378
  65.7644501  26.0745621  40.9247627  67.0099792  25.2409668  41.1363182
  80.5025940  71.0870514  30.8038368  80.7338562  71.7280807  31.4760284
  79.5965042  70.8496170  31.0009308  13.6590891  56.4163818  22.7050190
  13.8188248  55.9546776  21.8818855  12.7781954  56.7785034  22.6094780
  67.5768356  70.4703903  38.2243423  66.8459167  69.9988174  37.8248444
  67.3423843  70.5357056  39.1500854  64.1315231  17.8559227  79.0053101
  63.2808800  17.9578609  79.4322128  64.5871658  17.1999264  79.5328369
  18.3605099  13.1745949  83.2639389  18.0542297  13.5574541  82.4418411
  17.6568279  12.5823860  83.5291748  52.6616859  39.4377518  28.3927479
  53.2654457  38.8849831  27.8966064  52.5125656  38.9582138  29.2076359
  16.8283596  33.2453384  73.5596619  17.2339096  33.2788086  74.4260559
  16.6929970  34.1628799  73.3229599  38.8246651  36.0318298   8.1988354
  39.4701385  36.4280205   8.7841825  39.1120644  36.2821846   7.3207951
  55.9630394  28.6668434  29.6613884  55.3862839  28.9366550  30.3760815
  56.1457939  29.4754314  29.1828308  58.6048737  18.1228123  13.8184023
  58.8055229  18.6732712  14.5753479  59.3011055  17.4660015  13.8086119
  18.8887081  44.6921234  61.2832603  17.9694729  44.5681725  61.0468826
  19.3695316  44.1243744  60.6810150   0.4786672  26.8760014  35.8653450
   0.5096059  26.0391178  35.4017715  -0.0962553  27.4243908  35.3315277
  41.3422203   9.0388260  75.2721329  40.9741554   8.5006084  74.5713577
  41.5906029   8.4112253  75.9508514  36.3178673  48.8039665  33.8112183
  36.9985580  49.4277267  34.0638390  35.5467262  49.3457565  33.6437798
  54.3604431  22.2259045  25.9526520  53.5534096  22.3721027  25.4591408
  55.0452309  22.1845551  25.2851257  11.4822168  23.0484962  18.3692894
  10.9533396  23.8301678  18.5290127  12.0078039  22.9486237  19.1630230
  34.2241249  70.5141754  66.9750290  34.6103935  70.5724182  66.1011658
  33.4233589  70.0050125  66.8494873  62.9568405  69.9072571  35.1084595
  62.5221176  70.7599564  35.0963211  62.5665131  69.4289780  34.3769341
  58.4914207  40.0286522  23.8198109  59.0565948  40.0083351  23.0475426
  58.3908691  40.9595680  24.0185966   6.3168941  60.4832306  55.7754135
   6.8127031  61.1728973  56.2167320   5.4956737  60.4284706  56.2641182
  14.1023502  64.3543930  12.1997128  14.6243792  64.1854172  11.4153891
  13.2172060  64.5086823  11.8696442  13.5531731  39.1999855  56.0677719
  13.3247938  38.2986870  55.8403244  12.7469053  39.5672073  56.4301414
  41.1117668  32.4064865  45.2708702  40.1794586  32.2495308  45.4205284
  41.5162697  31.5428658  45.3531456  60.9750023  43.2059097  60.3577805
  60.9421844  43.5692558  59.4728317  60.3157883  42.5118866  60.3563423
  33.5157585  69.3463440  72.1031876  34.3035851  68.8029785  72.1209183
  33.3697739  69.5262909  71.1744537  76.3291168  59.0973663  44.1280174
  75.8075943  59.1091614  43.3254547  77.2094421  58.8581886  43.8381042
  28.7096786  29.7830200   8.5871983  28.7925110  29.4488277   7.6940660
  28.4253101  29.0267811   9.1004887  85.0965042   6.0740991  37.3801117
  85.6509933   5.2991080  37.2897568  85.6219330   6.7879758  37.0188103
   0.9251494  23.1597366  27.3498459   1.1651660  23.7020607  28.1011829
   0.7091860  22.3076611  27.7287388  46.6978951  46.6209221  22.4962330
  45.9095573  46.6889267  23.0348721  47.2614708  46.0111275  22.9724274
  61.4345436  69.9635773  87.7386246  62.0584679  70.6567841  87.9540558
  61.9796829  69.2328415  87.4469376  62.3307610  13.6402588  84.2449799
  62.6324883  14.4658489  84.6239243  63.1344604  13.1784506  84.0061722
  27.8833351  64.0382538  53.8156090  27.0653172  63.6880112  54.1683311
  28.5223160  63.9056473  54.5158577   7.0952630  59.7538567  53.1349945
   7.9062076  60.2404213  52.9871559   6.9047222  59.8825645  54.0641670
  21.7597580   6.7300296  84.0344925  22.6468773   7.0539556  84.1904526
  21.8445435   6.1569505  83.2725067  31.9073925   2.2563412  24.8221474
  32.0983200   3.1942818  24.8154392  31.0252056   2.1888793  24.4568710
  27.2673969  54.2504997  70.4703827  27.5269680  53.5258408  71.0393524
  28.0180244  54.3807373  69.8908768  10.9583111  62.0823784  15.8429689
  11.8590879  62.2139130  15.5471115  10.5702820  61.5093307  15.1816978
  46.3006248  20.5715179  10.0873737  45.7363739  21.3407516  10.0090475
  46.5968857  20.5834656  10.9974937  56.6369057  24.4801941  48.3906975
  56.3698845  23.6836071  47.9320259  56.6218681  25.1606026  47.7176056
  20.7288036  68.8308334  56.1958885  21.3884754  68.1658173  55.9988556
  21.2087364  69.5121460  56.6667480  57.0301666  48.7935295  26.1952763
  56.3007851  48.1758575  26.2473907  57.7779312  48.3114967  26.5484314
  67.3452148  15.0160017  30.9216137  68.1655197  15.1829529  31.3857880
  67.1674728  15.8293495  30.4492741  65.0882111  19.0934868   1.0276080
  64.2681808  18.9882011   0.5452243  65.0126343  18.4864693   1.7638482
  78.8746796  31.2668896  32.2914772  79.7409363  31.3931808  32.6786156
  78.3958588  30.7499218  32.9393234  73.9109879  63.2825279  47.6022606
  73.3625107  63.3272476  46.8190613  73.4663239  62.6535301  48.1704712
  34.3002930   4.0103779  32.2419357  33.5340767   3.8898695  31.6810207
  34.6050301   4.8959517  32.0441284  52.5790939  69.1295776   7.4330482
  52.9316063  68.8126755   8.2646360  51.8320732  68.5578384   7.2561378
  54.5991364  60.6519623  44.3966599  54.8435059  61.1943855  45.1465187
  54.5992393  61.2558937  43.6540260  37.9474945   3.9127555  65.6937637
  38.0447159   4.0529485  64.7518921  38.3864288   3.0781841  65.8582611
  63.8721657  25.1804981  71.6624298  63.6794052  24.8838177  70.7730179
  64.7817535  24.9211903  71.8095627  52.5405846  21.2238865  55.2991562
  51.9655876  21.8517170  54.8616180  52.0408745  20.9325695  56.0618210
  30.0947399  60.6908798  27.7359848  31.0171680  60.8396492  27.9438915
  29.8326874  61.4668999  27.2406540   5.9195218  65.7451859  64.0512161
   5.0874348  66.0114746  63.6601219   6.3797159  66.5676956  64.2183456
  60.1557732  69.3302460   2.8984544  59.3934097  69.3174438   3.4771357
  60.7069550  68.6134720   3.2125626  57.1581268  24.2368660  13.4013071
  57.3215714  24.8181610  12.6586008  57.2720566  24.7941074  14.1711998
  10.4037170   1.7881337  85.0304031  10.9101868   2.5706217  85.2481995
  11.0528631   1.1667670  84.7006378  44.7239876  57.0965195  15.2105999
  45.3519936  57.0404243  15.9308043  44.8508263  56.2853661  14.7184896
   5.2146916  26.1475964  27.6149883   5.7261748  26.8331184  27.1852474
   4.5253181  25.9334602  26.9863853  48.9184914  49.2266197  35.3086205
  49.1001320  49.4259605  34.3901978  48.0205460  49.5283051  35.4461365
  66.0025253   9.7207918  27.3696976  65.3423157  10.3627653  27.1084843
  66.0510025   9.1132212  26.6316319  81.1793289  33.2767410  45.0046883
  81.0526657  32.7047920  44.2476807  82.1190414  33.4587059  45.0128250
  81.4484863  14.2648296  37.3512001  81.1367416  14.6724482  36.5431824
  81.3321075  13.3258677  37.2061577   0.8538337  20.8317909  66.1579742
   1.0413378  19.9040718  66.3008347   1.4720721  21.2913628  66.7261353
  17.1348324  27.3543262  10.6576052  16.7599373  26.5217953  10.9449720
  16.9455776  27.9617729  11.3727427  47.3724670  42.0527000  27.7934189
  47.0132637  42.9188652  27.9856701  48.2985458  42.2124405  27.6115074
  22.6945343  38.1610489  57.2221718  21.9684715  38.6946068  56.8990898
  22.6669579  37.3689003  56.6855431  74.1608124  29.4822330  44.6806259
  74.3536301  29.2941303  45.5991440  73.5433960  28.7985439  44.4206276
  66.5956650   8.6507683  20.5896702  65.7169800   8.4630785  20.2596512
  67.1474380   8.6641893  19.8076210  65.2929993  37.2176514  22.9887638
  65.9174881  37.1823387  22.2641983  65.5545654  36.4999580  23.5655937
  61.7373466  27.8662224  62.0708466  62.3456383  28.4661827  61.6392670
  61.9995117  27.8804340  62.9913330   5.7102776  32.2529907  26.0920620
   5.7720914  32.0730553  25.1539612   6.4244466  31.7476578  26.4804344
  15.2173729  34.8318443  42.4402161  14.5060396  35.1647072  42.9874229
  15.9376574  34.6775131  43.0514488  83.9135818  18.5282764  11.6531200
  83.2403793  18.8073807  11.0325384  84.0290756  17.5944786  11.4772911
  40.4281578  35.0853348   0.9145849  39.9736633  35.3824158   0.1262892
  40.2034683  35.7356491   1.5800443  56.7323532  13.6471024  15.7944031
  56.2711029  14.3591194  16.2376995  57.2381134  14.0806856  15.1070595
   8.9672565   8.6394958  13.6380281   9.2404776   7.7439842  13.8371296
   8.5361366   8.9417048  14.4374266  49.8183975  46.7878342  36.2092972
  49.1609268  47.4450188  35.9810905  49.3331299  46.1233253  36.6983528
  59.9221420  25.4182720  22.5901909  59.5630760  26.1203442  22.0476055
  60.0364647  24.6839581  21.9869118  59.2994232  64.3085632  64.5426178
  58.6368637  64.6671982  65.1330719  60.0367508  64.0919495  65.1132889
  13.7874746  68.6105347  28.3543320  13.4835577  69.0885391  29.1259384
  13.0819540  67.9929123  28.1619377  38.6558228  62.1920090  10.8650942
  38.1060944  61.8419266  10.1640415  38.4793930  61.6232338  11.6144924
  54.5842857  49.6347771  14.0441227  55.4436760  50.0551643  14.0749731
  54.1799049  49.8545036  14.8834248  68.0579605  15.0301619  13.5873060
  68.7907410  15.1637459  12.9861259  67.4283905  14.5118275  13.0860996
  81.8022003  17.9757652  54.5849190  81.1726685  18.6415558  54.8617668
  82.2021637  18.3382950  53.7944565  29.5379562  63.2201309  84.2291794
  29.3556080  62.4098358  83.7533569  30.3632107  63.5342941  83.8597336
  76.4246140  50.5586166  48.6097946  77.1136627  51.1432571  48.9254646
  75.9734344  50.2698975  49.4030838   1.4384984  34.4706192  19.6414547
   1.0967103  34.4434586  18.7477684   1.9294422  35.2911568  19.6852894
  45.5761986  25.9792366  21.5878677  45.5046768  26.7719288  21.0561199
  46.1631546  26.2230892  22.3035831  30.6512852  39.1446495  41.9113083
  30.1404285  39.4640770  41.1675186  31.5226669  39.5190315  41.7818336
  75.0606918  19.9410801  84.2091599  75.2917786  19.0644207  84.5162430
  74.4046783  19.7912197  83.5284119   6.0050426  56.8366394  89.0871277
   6.7613926  57.3800926  88.8661575   6.1612105  56.0110168  88.6286621
  10.1266441  65.6308212  56.0009842  10.8538914  65.9558868  55.4702530
  10.2896318  64.6909714  56.0806465  13.6379118  25.6878834  72.1387100
  13.2864437  25.0842609  71.4842300  13.1865797  26.5147209  71.9687881
  52.4124908  37.4940033  30.5969467  51.8218918  36.7792053  30.3592644
  53.2751770  37.1988182  30.3056335  52.5752792  48.5008812  51.4111023
  52.9422836  48.8170204  50.5855179  51.6682014  48.2791595  51.2006683
  44.1788139  49.6278610  18.5796814  43.9427147  49.5456734  19.5036583
  45.0586548  50.0046959  18.5899010  81.3243790   6.4596295  47.3196602
  81.0894623   5.5812922  47.6189384  80.5228348   6.7994800  46.9218445
  68.8172379  17.6411037  30.4503269  68.3846359  18.3578911  29.9863205
  69.5249634  17.3699207  29.8656712  80.8587494  15.9548788  32.2289963
  79.9957352  15.5429363  32.2707787  81.4050751  15.3198862  31.7658100
  35.0763817  51.9295883  82.0270081  35.2445221  50.9966583  81.8943176
  34.1225548  51.9972839  82.0701675  64.5616302  31.5141983   1.0517533
  64.6471939  30.5707684   1.1890628  65.4632568  31.8319054   1.0031655
  48.3068123  23.9881458  21.3633747  47.6204033  23.9958382  20.6962814
  48.8680840  23.2516155  21.1210289  19.5899067  49.9156036  87.0695343
  19.7104073  49.6204758  87.9720917  20.1500416  50.6880493  86.9933243
   8.8287716  48.0396843  22.0629845   8.9238319  48.2422256  22.9936676
   9.6566925  48.3180962  21.6714935  41.9024544  67.9668808  42.3270073
  42.6247482  67.3424606  42.2590218  41.4688187  67.7427826  43.1503983
  49.8395691  31.6405735  24.6664028  50.7015266  31.3044243  24.4209137
  50.0223618  32.3093109  25.3264103  -0.2533892  34.7180290  44.4640923
   0.5757263  34.2572975  44.5926399  -0.2359705  34.9910507  43.5468216
  69.1693726  42.7756958  87.8727875  69.6066971  43.1750221  88.6247940
  68.2373505  42.8201408  88.0863342  31.2358170   5.5728869  39.0978851
  30.3923626   5.2402501  39.4047546  31.0374737   6.4408894  38.7465134
  31.5503216  16.0943050  70.3772736  30.8254490  16.2410641  69.7696152
  31.8184052  15.1896267  70.2162704  58.8627930  52.2461739  66.9687347
  59.4157333  52.6597404  67.6316452  58.8568268  51.3189507  67.2063370
   1.3052654   3.0636544  52.4173546   1.3380913   2.9496140  51.4675369
   0.3983756   3.3111827  52.5976677   2.9190011  32.6778488  27.0367851
   3.8105512  32.4678154  26.7588329   2.8375440  33.6199684  26.8884239
  76.7530441  41.1031456  50.7284164  75.9255524  41.5842781  50.7321091
  76.6604385  40.4728584  50.0139999  31.9762115   7.8852282  14.0943861
  31.2527390   7.2612710  14.0352411  32.6979332   7.3803105  14.4690962
  29.1617279  61.4000359  38.4073563  29.3809738  60.4885445  38.2141075
  29.8859806  61.7105598  38.9507370  10.1490526  25.3274136  73.0784683
   9.6856890  24.4948940  72.9866180  10.1802778  25.4812431  74.0227051
   9.0732632  35.4614334  63.1091461   9.4265547  34.9543800  62.3781776
   8.8011093  34.8027649  63.7481461  77.0111465  46.0987358  31.9658566
  76.7176666  46.0454407  31.0563183  77.3651505  45.2296638  32.1546173
  19.0686913  21.8089581  62.8500214  19.8749199  21.5174675  62.4242744
  19.2821159  21.8230553  63.7830162  22.3598557  24.8211269   8.5239878
  23.2178879  24.9308453   8.9338379  21.7450047  25.2052822   9.1489782
  66.3311386  40.6977768  26.2087402  66.8080673  41.4810104  25.9343090
  65.5610580  41.0344887  26.6668167  68.0096664   9.3336020  22.9382706
  67.4608154   9.9925718  23.3634148  67.5122910   9.0711565  22.1636944
  40.9891624  33.8005409  61.6691895  40.8273506  34.5012970  61.0375328
  40.5754852  33.0289841  61.2821465  22.3858547  65.1421509  64.2155914
  21.6657658  65.2886734  63.6022110  22.4029884  64.1935806  64.3426437
  34.5052528  18.1049843  10.1593208  33.7897797  18.5646915  10.5986395
  34.2205124  17.1916046  10.1295023  77.8222046  66.8008652  61.0984344
  77.5937119  67.2703705  61.9006767  78.0738525  67.4884720  60.4819145
  79.8615570  62.3877144  16.8272686  79.8273697  61.6279221  16.2460785
  78.9440384  62.6116676  16.9829292   1.0226095  51.5867615  79.1405182
   0.1323372  51.3006134  78.9361420   1.3868186  51.8568878  78.2975388
  22.3022060  40.2023735  70.3576050  22.9268131  40.0920410  71.0744858
  22.1955128  39.3227997  69.9953918  48.8388824  37.3722115  59.3558426
  48.5955048  37.9873161  58.6639977  49.7959023  37.3884087  59.3649597
   4.3852143  71.1028671  11.6328859   5.0001230  70.8497009  10.9443913
   4.5959325  70.5252228  12.3664780  82.8445282  34.7126732  11.7020025
  83.7317352  34.3642921  11.6140537  82.2769394  33.9465027  11.6180000
  72.1397629  43.0933456  45.7258224  71.5371552  43.7880745  45.9912376
  72.7701416  43.0358238  46.4438362  85.7039185  60.0131302  18.4894085
  84.9985428  60.3552132  19.0386410  86.5059433  60.2449989  18.9576168
  34.0986290  68.0661621  77.5167236  35.0252800  67.8683548  77.3809967
  33.6562500  67.6667252  76.7677383   3.4360056   8.7175722  77.8048782
   2.7706528   9.2161961  77.3306274   2.9432795   8.2235546  78.4601593
  82.8356018   3.4972408  25.6465778  82.9391861   4.4371414  25.7952003
  83.3251343   3.0866663  26.3593311   3.5537117  48.4983749  30.7105122
   3.0595305  49.3126564  30.6158600   4.4641356  48.7516441  30.5581493
  10.1753807   5.5884023  85.4116592   9.7172432   5.0484056  84.7676544
  11.0686836   5.2446499  85.4204025  70.7238617  36.9916954  41.8848000
  71.5192337  37.1982765  41.3939400  70.7617416  36.0440712  42.0144234
  32.6630859  23.1515656  75.3391266  33.4679260  22.6340408  75.3139725
  32.9555702  24.0394077  75.5450974  55.6350365  47.8743706  22.5938969
  55.1809769  48.1574669  21.8002224  54.9361305  47.7351303  23.2329350
  49.9835014   4.0274010   0.3078662  50.6869545   3.3882179   0.4211375
  49.1812973   3.5053337   0.3198424  30.1602516  25.2168732  12.1044998
  29.5386467  24.5185070  12.3097486  29.8162899  25.6165199  11.3056231
  13.9536409  12.1111507   3.0233786  13.2246618  11.8098040   2.4811504
  14.7366343  11.8501863   2.5385578  37.8576508   1.7305527  37.1217461
  38.3502693   1.1953597  37.7439423  37.7547264   2.5747893  37.5609512
  34.4372635  46.5761185  21.4907303  33.9942970  47.4189606  21.5888748
  35.3440819  46.8044930  21.2863998  82.7747650  46.9020157  61.2681465
  83.4497528  46.2484474  61.4511032  82.4956970  47.2063332  62.1317139
  54.4624863  46.6445160  62.8397446  54.6241684  47.5318260  63.1603279
  55.3245354  46.2284584  62.8414192  60.6753120  28.8270397  26.5730343
  61.2824669  28.1015987  26.7190990  60.5164986  28.8200970  25.6291256
  21.8400612  45.1117172  38.0040283  22.5691147  45.3960114  37.4527626
  21.5270214  44.3069992  37.5909119  69.5995102  45.4848747  85.8518982
  69.7035675  46.2682304  85.3117523  68.6936188  45.5240021  86.1585693
   0.2159177  29.5205517  53.6373024   0.9482667  29.0318222  53.2617493
   0.2774379  29.3584576  54.5786705  45.0206985  51.0735130  84.2536621
  45.3805008  51.6583939  83.5868149  44.3095512  50.6121445  83.8090973
  17.3418388  11.8055124  61.5284576  16.9726505  11.5465822  60.6841316
  16.6486759  11.6166811  62.1609879   6.0376024  10.3443375  13.9677048
   6.1847110  10.0009756  13.0864029   6.2483053   9.6128445  14.5480099
  56.8332672  33.8151779  75.8284378  56.5276146  33.7874985  76.7350998
  57.7340393  34.1332741  75.8889465  82.7621384  34.2090492  33.7183075
  82.6283035  35.1556129  33.6699867  83.5813446  34.0585938  33.2466240
  71.0324631  14.8646441  47.5038528  71.8166580  14.3663101  47.7339172
  71.3026962  15.4082890  46.7638130  47.7527275  40.5327187  16.7490807
  47.9427948  41.2632675  17.3376408  48.4428902  40.5727119  16.0870304
  40.4125137  56.5502625  70.7889252  40.8804054  56.9979782  71.4938049
  40.6545105  57.0312614  69.9975281  73.2697449  46.8226318  52.0814743
  73.4927902  46.6219864  51.1725044  73.0546265  45.9738960  52.4682617
  39.4811974  52.0623741  69.0918808  38.9465294  51.3817749  68.6830521
  39.4254189  52.8045807  68.4900055  43.7950172  28.2003765  80.9295044
  44.6049080  28.2040043  80.4193115  44.0847702  28.1201801  81.8382645
  46.6655769   3.5539222  57.5166779  46.6108246   3.6762707  58.4644470
  46.1019859   2.8008056  57.3394432  74.9899521  68.7757645  44.4548416
  75.1806183  68.2776337  45.2496643  74.9641495  68.1177216  43.7601814
  47.3027802  18.2850571  71.6741638  46.9891167  18.7927799  70.9257889
  46.6182060  18.3855267  72.3356018  72.4650803  47.1147804  12.3276691
  71.8447495  46.6807518  11.7419739  71.9268646  47.4359970  13.0511131
  46.5135956  50.1429405  25.7006702  46.8830872  51.0173759  25.8234291
  45.7298470  50.1347961  26.2501297  55.7668724  56.1156807  21.1555977
  55.8437691  55.2057610  21.4425964  56.4312019  56.5834084  21.6616936
  56.7816200  14.5855455   9.3107328  57.7325096  14.4905119   9.2558565
  56.5206680  13.9841528  10.0082006  21.5935307   9.2262316  66.5416412
  22.2432289   8.8927670  67.1604462  21.3511906  10.0849056  66.8883133
  14.8041658   0.7618037   4.5914645  15.6543379   0.9867040   4.9694304
  14.5686750   1.5233111   4.0614810  86.2366257  19.0149307  46.1947594
  86.9482117  19.1294880  45.5648727  85.4715118  18.8103962  45.6571770
  48.9183731   2.1301465  85.5185623  48.8740921   3.0436049  85.8011627
  48.4900360   2.1232238  84.6625748  52.8656464  41.2002983  25.6620789
  52.3171959  40.4173660  25.6125717  52.3362923  41.8893280  25.2605076
  75.8941574  71.2410889  40.7682457  76.3231201  70.4415894  40.4632568
  76.2471466  71.9313812  40.2068825  17.5374756  41.7156754  60.2287521
  16.8618679  42.3896675  60.1544456  18.2822037  42.0683365  59.7416801
  35.0869637  63.5616264  80.9293060  34.7798462  64.4084320  80.6055374
  35.9713554  63.4755554  80.5733871  75.7928467  39.9415436  11.8336315
  75.3650055  39.1339912  12.1183195  75.1254730  40.6185150  11.9456940
  40.9732895  69.8176270  58.4913406  40.0537567  70.0800171  58.4484558
  41.4361115  70.6102219  58.7630463  43.3250465  54.4733887  53.0613899
  42.3899002  54.3119316  52.9362297  43.7422142  54.0652542  52.3026886
  74.5973892  15.2984514  79.8247910  74.3912125  15.6425095  80.6939011
  75.5100021  15.0169373  79.8889389  63.4836540   7.0312557  86.4598923
  62.9071198   6.9330297  87.2176437  63.4001694   7.9523501  86.2132187
   5.7545290  30.3228645  76.0236893   5.0070267  29.7468109  75.8635864
   5.7070394  30.9764061  75.3259354  68.5251999   2.5610387  63.4996681
  68.4420700   3.3288972  62.9342384  67.6360550   2.2120993  63.5620003
  41.7230148  58.0468521  73.3351746  42.2730408  58.1127319  74.1157913
  40.9553413  57.5534286  73.6240311  14.7141933  46.2125511  76.9468460
  14.5486555  46.9074860  77.5839462  13.8504572  45.8407135  76.7681656
  59.3071632  21.0786095  35.3355751  58.4456863  21.4411507  35.1290398
  59.8855743  21.4372044  34.6624603  61.1383095  24.5772781   7.0834303
  60.7347298  24.3568554   6.2439260  62.0712128  24.6608410   6.8860974
  80.1816788  37.2217560  48.1560593  80.4281769  36.3700790  47.7953415
  80.5773163  37.8578377  47.5601540  16.3634930  51.4013405  47.5798607
  16.3355465  51.7985229  48.4503212  17.1842556  50.9089699  47.5674973
  14.0261211   3.6701319  87.9744568  14.5123281   3.3593559  88.7381668
  13.6030931   2.8860314  87.6245041  47.1386528  11.9826012  68.5198593
  46.2137032  12.1752644  68.6734085  47.4222755  12.6512041  67.8963470
  30.9380836   5.3720355  14.5791101  31.2248230   4.8231196  15.3089752
  30.7416821   4.7525978  13.8762903  74.7684021  55.1594048  19.5087833
  75.3249283  54.5513496  19.9953804  74.5791626  55.8614349  20.1313381
  43.5847206  15.6839018  68.3510590  42.9614563  15.5988808  69.0725479
  44.3745422  15.2426147  68.6635895  10.6096087  22.6012249  54.0897293
  10.0249510  22.4469643  53.3476982  10.6396618  23.5539703  54.1769447
  74.6446457   3.1967304   5.1010194  74.4924850   2.3631861   5.5463095
  75.0639954   2.9541962   4.2754564  58.4876518  43.0935860  83.1801376
  58.5051804  43.3206520  84.1098480  58.9623947  42.2641029  83.1271744
  75.8021011  10.1864777  23.3895016  75.1656036  10.1344728  24.1025200
  76.3722458   9.4290504  23.5216808  26.5050449  50.4289131  57.7418442
  27.4413605  50.3367653  57.9180641  26.0884953  50.3189545  58.5966110
  73.6037827  65.5776901  10.7741375  72.9608688  65.1179123  10.2342272
  73.1194305  66.3132095  11.1491594  48.8578911  48.5051117  80.9550705
  48.5818214  49.2862129  80.4755936  48.0725708  48.2212639  81.4229736
  28.2893410  55.4609871  26.4460812  29.0897675  55.3389091  25.9355469
  27.8262444  54.6268654  26.3685436  15.6544609  47.5124626  24.8758068
  15.6233482  47.7158508  23.9409828  15.3652182  46.6017723  24.9325390
  71.3082275  34.4193649  80.5548019  71.1707916  34.6649780  81.4696884
  70.8997726  35.1250572  80.0534058  16.7653351  67.5769196  13.2986050
  16.2883778  68.3317947  13.6434383  16.2759953  67.3212128  12.5166883
   6.4313154  21.9376678  88.2855377   5.5205054  21.8409252  88.0075150
   6.9282808  21.3995895  87.6693192  46.9791641  47.4573708  33.0225868
  46.4441185  46.8887177  32.4688835  46.4904060  48.2793007  33.0648079
  39.4611092  50.5216255  62.8107529  38.7612915  51.1717148  62.7485771
  39.3165398  50.0940704  63.6548691  26.6511230   2.5714929  66.8583527
  26.0435715   1.9837357  66.4092865  26.9309120   3.1887808  66.1824036
  70.9012833  16.3329067  72.0541306  71.3617401  15.7636309  71.4375763
  71.5501328  16.5282326  72.7302017  42.3476868  65.9910278  57.5750809
  42.7787323  65.4597931  56.9055901  42.7651443  66.8495483  57.5050735
  59.8753052  42.4716148  49.1452751  58.9939079  42.5666313  48.7842484
  60.4144020  43.0627365  48.6197433  44.6818237  37.8737373  15.0940428
  43.8808784  37.9480515  14.5752039  44.4030418  37.4494362  15.9055090
  53.5277519  19.0674629  23.8271465  52.7428398  18.5251751  23.7492123
  53.4238091  19.5204105  24.6639671  57.3418846  37.9975815  30.3201313
  58.1274147  38.0333862  30.8659286  57.3887177  38.7870483  29.7808895
  80.2929459  28.4812050  45.4497795  79.5635834  29.1010742  45.4547615
  81.0415878  28.9897175  45.7615280  83.2134552  40.9983749  60.4255524
  83.9258804  40.8250923  59.8101997  82.5763779  40.3043976  60.2559662
  52.4825211  37.9873428  64.3912811  52.1733894  38.2480202  65.2588730
  51.6910439  37.9583092  63.8537369  37.4712410  53.2639732  -0.0451558
  38.1800919  53.1649284   0.5904155  36.6830215  53.3634834   0.4887357
  20.0551853  30.9843750  82.5981522  19.1018734  31.0280018  82.6724854
  20.3306828  31.8969688  82.5115204   3.2601078  24.1266327  73.3758621
   2.9974840  24.9498100  72.9639893   3.3227766  24.3345585  74.3080978
  42.1465340  19.9391270  68.6964035  41.6234169  19.2215252  68.3391571
  42.8761482  20.0317249  68.0837708   6.6757679  48.3188934  13.1098347
   6.3575268  47.4337273  12.9325390   7.3445916  48.4711609  12.4422102
  82.5431519  13.1977930  84.2407990  82.8532333  13.1419220  85.1446609
  81.5975037  13.0633507  84.3032608  29.9335728  46.9925079  16.1301785
  29.9380054  46.0490608  16.2917938  29.0084553  47.2363625  16.1605358
  56.4531403  13.5253744  11.8267212  56.8280792  14.2081480  12.3830252
  56.8866196  12.7204628  12.1103535  43.9889603   8.9178085  58.2105827
  44.3346634   8.1419220  58.6518555  44.4062691   9.6538143  58.6582184
  20.4919434  50.2882271  82.8446579  21.1520405  50.5649986  83.4801865
  20.9237499  50.3802261  81.9953537   5.4573741  35.6643066  78.9156723
   6.3202720  35.3824539  79.2193146   5.6363878  36.4132729  78.3471375
   7.0650792  54.0067368  82.1359863   7.8297029  53.4521141  82.2908249
   7.2612729  54.8202896  82.6006165  15.7275162  53.1072578  76.0850296
  15.7118320  52.1691856  75.8952713  15.0712395  53.2236519  76.7720413
  36.8220177  25.4662075  73.9721909  36.3981628  25.9601955  74.6740112
  37.4411469  24.8923244  74.4233856  42.8862152  43.9043617  26.2165222
  42.4233742  44.1200943  27.0261326  43.6545410  43.4111481  26.5040112
  74.4515762   6.8828855  42.8108826  73.6905365   7.4621286  42.8499069
  74.1948090   6.1153116  43.3218956  23.2590027  66.2299423  34.0913353
  22.3370857  65.9840164  34.1676254  23.3751678  66.9269867  34.7369919
  65.4658585  25.7763519   6.8902631  65.0048828  25.2581997   7.5499973
  66.0099487  25.1414680   6.4242949  57.7901421  48.5154762  38.5000076
  57.8477974  47.8117371  37.8537445  56.8538895  48.5981331  38.6812172
   4.2980361  60.7961082  13.4618082   3.4724758  61.0437317  13.8781805
   4.4708819  61.4992447  12.8357420  11.0799484  11.9789381  25.1180172
  10.3307114  12.5062838  24.8409233  11.2431078  12.2506018  26.0212383
  78.3954773   8.7628059  61.4432335  79.1611481   8.3900213  61.8802872
  77.6927261   8.6917887  62.0892410  72.7940216   8.4766808  15.4173470
  71.9360428   8.8667603  15.5845098  72.7680740   7.6360297  15.8743639
  67.9260330  47.7439461  36.1630325  67.0353165  47.6844902  36.5084648
  68.4868164  47.6976318  36.9373779  38.1598892  64.7512589  54.7552643
  37.7126465  65.1496658  55.5019112  37.7867584  65.1898804  53.9906616
  45.3359566   5.2959461  25.4800644  45.2807770   6.2353859  25.3050232
  45.4425545   4.8972449  24.6164055  25.8367710   1.2768739  69.4322815
  25.9853630   0.3641669  69.1850586  26.2277489   1.7843579  68.7210617
   3.1370628  34.8677025  85.5122604   4.0007515  34.5095901  85.3072510
   2.9462507  35.4627762  84.7872009  68.2078476  18.9567375  46.3385086
  68.6968079  18.9094105  45.5169792  67.9013901  18.0621128  46.4867172
  59.6301193  52.7426605  57.4766197  59.4678154  52.2955055  56.6459923
  59.5608673  52.0534096  58.1372032  17.5721436  54.7703590  24.6281662
  18.1075439  54.5614166  25.3936214  16.9155579  54.0745049  24.5979633
  35.5349998  52.6329422  30.8207912  34.6137848  52.7423935  30.5849628
  35.7011604  53.3222694  31.4637890  56.1146317   0.6911065   4.6856494
  56.3576164   1.5397974   5.0556669  55.2896385   0.4689982   5.1172581
  35.4533501   3.8511355  44.2887535  35.1151314   3.2275751  43.6460953
  34.8951416   4.6225243  44.1908035  20.6031055  49.1617508  31.9675903
  21.0687447  48.9153175  32.7667656  20.0394382  49.8883629  32.2331963
  83.8247070  10.3188543  22.1166897  83.6408768  11.2581310  22.1026115
  84.7604446  10.2608004  22.3097267  81.6512756  56.1938438   5.1182685
  81.7930603  55.9070969   6.0204358  80.7098083  56.3580475   5.0642996
  36.1087341  45.4659119  69.2961960  36.9542427  45.9097824  69.2304153
  36.0301208  45.2363777  70.2221375  69.3735199  51.7375107  22.0961037
  69.3409729  52.5554733  21.6000080  69.2426147  52.0039368  23.0061092
   6.6151285  36.2932625  65.7079849   5.7423377  36.1923294  65.3281403
   7.1141276  35.5535316  65.3615265   5.9972167  19.0311699  60.3746414
   6.0518026  18.7587147  59.4586601   6.0866761  19.9837761  60.3469124
  77.2410126  59.1025581  77.7433090  76.3205566  59.1299553  77.4820557
  77.6251068  58.4177818  77.1957855  49.0891304  29.6813602  33.6988716
  48.8292427  30.4315262  34.2336044  48.3119888  29.1230125  33.6757278
  60.4778595  12.8729897  52.2298660  61.3568573  13.0119705  51.8773384
  60.3097992  11.9405680  52.0935631  43.4524574  71.2453308  82.1078949
  43.0104866  72.0812149  81.9589462  43.2672691  70.7329025  81.3209000
  69.0319290  46.7831459  40.6860123  68.5463181  46.7316780  41.5092773
  68.9196014  45.9202042  40.2873306  21.8250084  62.8087540  44.4638863
  21.8445530  62.7781792  45.4203987  22.2627678  62.0029564  44.1894989
  40.7183113  70.5491486  24.0240173  41.2095451  69.8032837  24.3684063
  40.0378571  70.1560287  23.4775066  73.6205978  49.1324844  82.8921814
  74.2799149  49.7837067  82.6525116  72.7999496  49.4843483  82.5472717
  84.3703766   8.5076027  12.7876825  84.1378860   7.9968977  13.5631571
  84.1552429   9.4103775  13.0220861  50.0525398  28.5519981  62.0327415
  49.7529106  29.3175049  61.5423813  50.9771423  28.7268009  62.2081947
  34.9279671   7.7374091  72.4191132  35.4287338   8.5332832  72.5981369
  34.3794556   7.9634442  71.6679306  29.4585590  71.4691238  69.2978745
  29.2427120  71.8658981  68.4539413  30.4097271  71.3639297  69.2768021
  35.7022018  66.1308212  20.2987080  36.2778587  65.4102402  20.5548534
  35.3264236  65.8519592  19.4636879  60.7559967  66.6367111  67.3495560
  60.5539894  65.7456131  67.6348190  61.4232864  66.5259094  66.6722946
  53.9289436  61.4903107  56.1181068  54.1984367  60.8011818  56.7253189
  53.5601349  61.0199738  55.3704453  76.1383286  62.1235161  36.4313126
  76.5843353  62.5136490  35.6795769  76.5537567  62.5282288  37.1927986
  68.2528687  60.1858482  73.6137924  67.8918915  60.1838913  74.5003204
  69.1111526  59.7717476  73.7037582  76.5621490  20.3788300  73.7090454
  77.1784286  20.8467121  74.2725296  75.8313522  20.9867363  73.5966873
  74.9388733  24.3892803  -0.0678939  74.7590332  23.4587631  -0.2021741
  74.4337692  24.6208019   0.7115286  49.2024384  16.7664280   5.9951825
  49.1453743  17.7123470   6.1301336  49.8746147  16.6606522   5.3219662
  43.3130836   0.7312278  28.3724308  42.6291847   0.0853371  28.1954021
  43.5806694   0.5555952  29.2745285  69.8878326  46.3900871  68.9252167
  70.2444611  45.7107658  68.3528824  70.5090942  46.4417648  69.6515732
  21.3321590  60.7736626  58.2806015  21.3366337  61.4584312  57.6117973
  22.1432419  60.2877655  58.1313286  51.9157028  14.8085938  21.0503788
  52.7607193  14.3635635  21.1146126  51.3154106  14.2562046  21.5511303
  42.9599266  55.1515160  74.3778152  42.7504311  56.0194397  74.7228546
  43.8233757  54.9519653  74.7395706   2.1167183  59.6844521  25.3733006
   2.1181276  60.2057076  24.5704784   2.1423922  58.7770233  25.0697441
  36.5505905   7.2370267   4.5476241  35.8389359   6.5969296   4.5550723
  37.0910950   7.0030432   5.3021693  32.3977432  40.3600464  68.5717697
  33.0612869  39.7296867  68.8521042  31.5752792  40.0104942  68.9146957
   8.0015745  10.6000729  21.5696068   7.9899025  10.0657768  22.3637238
   7.0923982  10.8758554  21.4530964  50.0612869  11.7812271  64.4883347
  49.3167114  11.4761019  65.0067291  50.1757088  11.1101484  63.8154335
  18.7117424  45.9957314  85.1847687  18.0621758  46.5731316  85.5858917
  19.0927639  46.5178070  84.4787292  10.0600624  39.8177834  83.6723862
  11.0077295  39.6856689  83.6989365   9.7234011  39.2826309  84.3910675
  40.7017250  38.3467979   8.5435047  41.5642357  37.9320259   8.5269470
  40.8575554  39.2362518   8.2259827  68.5176773  57.0471649  82.7539062
  67.7219849  56.7580872  82.3072052  68.3811874  56.8018456  83.6690140
  71.9568024  50.4205704  43.6776962  72.4158325  50.8971024  42.9860039
  71.4077148  49.7906876  43.2108040  30.6203709  37.6392403  53.5558929
  31.5523186  37.4418030  53.6492920  30.5360203  38.5442467  53.8560219
  59.4356689   7.8374143  30.3930836  59.2444992   7.1747990  29.7292862
  59.9055595   7.3616915  31.0780106  40.9219666  32.4317284  29.5313034
  40.7391663  33.2776108  29.1222782  41.6240082  32.0556564  29.0003223
  74.6515961  48.2182732  66.9647369  74.0521011  48.2723885  67.7089920
  74.6558914  49.1015625  66.5959396  18.9364967  50.3824768  68.3205490
  18.5437870  50.8307457  67.5715027  19.7530270  50.8553429  68.4815216
   3.7343872   4.8447204  83.4480438   3.5857487   4.2708931  84.1996155
   4.6430683   4.6795115  83.1965790  72.0209198  61.4068413  84.7633972
  72.3706512  61.9245262  84.0381927  71.2832489  60.9297981  84.3832550
  65.0681763  63.9677048  24.4914074  64.7789841  64.7797623  24.0752811
  65.2957535  63.3922234  23.7611599  56.9437943  41.4887505  32.4582291
  56.3113670  42.0044365  31.9578953  57.0908241  41.9978790  33.2553482
  10.9197206  54.6616135  49.9173126  10.2344904  54.0668945  49.6123543
  10.4775867  55.2359238  50.5425491  41.2571526   2.3925822  42.5414543
  40.5964966   2.5631292  43.2127800  40.7578201   2.3134289  41.7286606
  46.6885567  43.5995445   0.5093710  47.0105324  42.8220749   0.9655613
  45.8092041  43.3590508   0.2175919  64.1850967  54.6808319  66.3892975
  63.8538780  53.7834167  66.4235001  63.4026909  55.2277489  66.4596710
  32.6965256  61.1846123  28.1136646  32.8899727  62.0291367  28.5205936
  32.9973221  60.5370598  28.7511806  68.6465988  19.2729473  41.6951942
  69.0158234  19.7198181  40.9334831  68.3012466  18.4510841  41.3466148
  13.0460138  45.7442169   2.9608278  12.7410555  45.1792984   2.2508285
  13.8170176  46.1840591   2.6026039   9.5065174   8.2186413  84.4871368
   9.3023930   8.7022810  85.2875519   9.8015127   7.3612881  84.7939835
  53.0031471  38.0435486  53.3219223  53.4689636  38.7397728  53.7850800
  52.4294434  37.6577148  53.9839096  14.8436270  53.9286118  78.4568558
  15.0250206  53.3096428  79.1641083  15.6676702  54.3998070  78.3337250
  15.4281168  38.9844322  42.6342773  15.0372114  39.8481636  42.5024033
  15.0644207  38.6814194  43.4662285   9.9520054  69.7111053  19.0090847
   9.8278646  69.5579224  18.0724125   9.0855913  69.5719299  19.3914337
  18.5755196  69.0844727  27.3447323  18.4217377  69.4820633  26.4877014
  17.7374077  68.6847687  27.5771961  24.9171104  54.9993973  12.0135937
  25.5903816  54.3423805  11.8367748  24.7077045  54.8843040  12.9404888
  77.7426529  16.2797527  56.2876015  78.3627014  16.6560497  56.9122429
  77.2103653  15.6799841  56.8102646  79.9510193  26.2882919   9.9029264
  80.6564789  25.7831345  10.3071194  79.1600952  25.7788982  10.0795298
  43.1241875  68.0788727  30.6834679  43.9695778  67.9990540  31.1252556
  42.5096817  68.3057480  31.3814220  56.5163193  60.4431152  69.4738007
  55.8773689  61.1557426  69.4622269  56.0763321  59.7196541  69.0274277
  85.9319305   3.2452309   9.7393074  85.5715103   2.8353827  10.5256624
  85.2883377   3.0589705   9.0556946  34.0920601  68.0814285  35.7165222
  33.6624908  68.8098526  36.1649628  34.5744743  68.4927063  34.9993324
  66.8016052  42.1397858  56.1055107  66.9936981  41.2559814  56.4189186
  67.1908875  42.1739388  55.2317123  79.9189453  48.5224152  85.2923965
  80.2324829  48.2593155  86.1576691  80.5655823  48.1643219  84.6842422
  43.1833344  57.7716446  50.4019089  43.3788414  58.4567986  49.7627106
  42.4232445  57.3161926  50.0398941  78.0948639   1.7166865  17.5137672
  78.4756165   2.3814499  18.0876579  78.8433380   1.3483310  17.0443802
  48.8420181  31.1846733  69.7813492  48.3010788  31.9730415  69.7356415
  49.3278008  31.1793728  68.9565964  63.0763168  49.1651192  30.6612644
  63.3983574  50.0502625  30.8316841  63.1292801  48.7236404  31.5089207
  28.4593048  47.9634438  42.1599503  27.7122307  47.3822289  42.3024445
  28.8982716  48.0019913  43.0096893  76.2542725  20.9079323  27.8286743
  75.9757690  21.4099445  27.0627422  75.6449509  20.1706772  27.8663349
  14.0304422  40.2177887  21.0092697  14.9399853  39.9808350  20.8281193
  14.0691471  40.7044373  21.8326225   2.0501935  65.6804810  19.5140991
   1.6478803  65.4578400  20.3536263   1.3438991  65.5800247  18.8759079
  82.6577301  58.4108505  81.4959183  83.5744858  58.2073517  81.3105240
  82.6855621  58.9316101  82.2985764  21.9223785  67.6926651   2.2577217
  22.7478390  67.3420181   2.5922229  21.8149052  67.2772522   1.4020857
  14.5680895  41.5876770  66.1424255  14.6697588  41.9689407  65.2703400
  15.3024845  41.9401894  66.6450500  71.8854904  19.4840431  83.7828064
  72.1287994  19.6830120  84.6869354  71.2684097  18.7559261  83.8555374
  23.9544945  19.8372402   1.8399519  24.6404171  20.4838371   2.0062556
  23.1748028  20.2021446   2.2584732  78.2681808  12.9195881  65.4314499
  77.4229126  12.6559649  65.7951202  78.2499695  12.6021376  64.5286102
  83.4772797  52.6117935  59.3949242  83.4544907  53.3821716  58.8272705
  82.6874847  52.6856003  59.9306641  55.2520447  46.8150024  26.5802479
  54.3098602  46.6922951  26.4642029  55.6481590  46.0712280  26.1262379
  84.1492386  36.2640686  45.4756241  85.0796967  36.1977539  45.2609749
  83.7027588  35.8533936  44.7351952  20.8555489  12.4798355  52.4872971
  21.4107685  11.9479904  53.0574799  20.0944729  11.9268837  52.3105469
  68.6642609  21.9035130  34.8063126  67.8917236  21.7649269  34.2584000
  69.3551178  21.3975143  34.3786316  19.0819778  58.7277870  85.0122223
  19.2214794  57.8009529  84.8179398  18.2274265  58.7563248  85.4425201
  78.6786041   4.5501885  84.5187759  79.2743378   3.9337506  84.0929337
  79.2002029   4.9424758  85.2189713  59.8064270  53.7752457  22.8046379
  60.3788223  54.4372864  23.1923237  59.4186172  53.3248672  23.5549660
  60.3217316  26.7623749  18.0977764  59.6688805  26.1255054  17.8072395
  61.1571388  26.3017464  18.0193806  80.6101761  14.2413330  65.8533554
  81.1803894  14.0186224  65.1175003  79.8162231  13.7276144  65.7051544
  33.9386330  47.1814995  69.0418396  33.2728043  46.4941177  69.0620651
  34.7605438  46.7241135  69.2192917  59.7706261  67.3792419  18.3951187
  59.6162338  67.4220963  19.3388119  59.4264946  66.5248566  18.1346779
  32.3043938  23.6748428   4.0757785  32.4368134  22.7291756   4.0093846
  33.1711540  24.0496330   3.9192667  13.7488041  64.6299515  48.6547585
  13.1323481  64.2588043  48.0235214  13.2733564  64.6244354  49.4855118
  12.6044741  60.8619156  25.7279682  12.9922838  60.0704269  25.3546295
  13.1794186  61.5701065  25.4379005  77.2768326  69.9084320  80.8198471
  77.2565079  69.6150665  81.7307587  77.0039215  70.8251343  80.8573074
  86.4412460  15.5647726  59.0107880  86.4001923  15.8210726  58.0894547
  85.7177658  14.9476461  59.1201859  40.0381470  64.3237305  69.0422974
  40.2784386  63.8679161  69.8489685  39.3700829  63.7669106  68.6424561
   0.9167586  37.1840324  48.7219353   0.4714570  38.0125961  48.5446930
   1.8358264  37.4257698  48.8364334  40.8283195  53.0894318  48.3773422
  40.4276047  52.2217178  48.4296112  40.7519875  53.3333282  47.4548912
  85.4483948  63.3525009  32.6124115  85.1206512  62.7984009  31.9040394
  85.1727295  62.9059219  33.4129181  80.5774231  52.3876953   2.0697424
  80.8845596  52.7295265   2.9094167  79.6942902  52.7443924   1.9745302
   0.6305895   3.6726384  13.4305801   1.0427883   3.7160776  12.5677719
   1.2119297   4.1772990  13.9994326  11.9631786  67.8199615  60.5132408
  11.4766626  67.4504929  59.7763405  12.6604424  67.1862030  60.6817703
  46.8972282  26.3808327  39.8451157  47.5977058  27.0214939  39.9680595
  46.6679268  26.4515171  38.9184799  71.9855652  42.7987480  56.7401199
  72.7386932  43.3166237  57.0244293  71.7477264  42.2800293  57.5086212
  35.4606857  34.6097946   0.2951843  35.7280312  34.9952621  -0.5391862
  35.8285484  33.7262421   0.2796335  36.8900146   9.3641844   7.4672375
  36.2542496   9.9847965   7.8234339  36.8798637   9.5258293   6.5238400
   9.3546753  31.5174332  15.8588715   9.7770033  30.6641026  15.9573421
   9.7924614  31.9159718  15.1067133  61.8151550  15.5832758  66.2777100
  62.1650772  15.1715994  65.4875793  62.4523697  16.2634830  66.4956589
  65.5703201  51.9498215  77.7395172  64.7887344  52.3197517  78.1500092
  66.0389481  51.5237885  78.4572372  30.6414833  67.3445511  64.9262238
  31.1623821  67.7461014  64.2307739  30.0525398  66.7447205  64.4684219
  11.7022820  37.8800240  35.5980263  12.0685663  38.7575989  35.4888000
  11.7073088  37.7344284  36.5440750  11.5183172  56.6183395  80.0765152
  12.1571627  57.2218056  80.4559021  11.5547476  55.8455276  80.6401291
  58.3080521  64.9300079  49.6662674  59.0755043  65.4971695  49.7409401
  58.0900078  64.7018509  50.5699463  33.0712204  11.2703362   5.7754970
  32.8407173  12.1895790   5.9100108  33.0647278  10.8907280   6.6541820
  84.9242859  51.0925179  84.9880142  84.4435425  50.8942986  85.7916489
  84.3825150  50.7272072  84.2885361  17.7882843  14.9627972  17.8860645
  17.6893806  15.8708267  18.1723061  18.3457413  14.5609808  18.5524120
  81.5778503  17.2649250  45.1481400  81.4269028  16.3366566  44.9699135
  81.3614273  17.7049313  44.3260803  35.4677238  66.3009262  43.9255791
  36.3349457  66.3227386  43.5210075  35.5777626  65.7467651  44.6982574
  32.4079361  57.3478203  15.8049679  31.5103683  57.0360146  15.9206629
  32.7369385  57.4666176  16.6959648  81.3747940  17.3802223  70.8678207
  81.9013367  16.5824909  70.8167038  82.0056992  18.0912457  70.7554321
  15.6582270  61.9660912  44.6420670  14.7444153  62.0778046  44.9041710
  15.6596699  61.1689529  44.1121635  30.0885067  44.4141884  44.2013092
  31.0047951  44.6676064  44.0898285  29.8348598  44.0529861  43.3519402
  14.0770626  12.6298475  12.6348562  14.6694632  11.8799334  12.5807924
  13.5656424  12.5898256  11.8267231  44.6672440  68.6861725  17.5269413
  44.9195786  69.2298126  18.2732773  45.2045898  67.8985901  17.6117725
  85.8776703  63.4593010  77.6208954  86.1411819  62.5802422  77.3487854
  85.4125671  63.3250656  78.4466629  58.5564156  44.3791542  42.0123100
  58.8588829  43.4789505  42.1322365  57.6093712  44.3330994  42.1435204
  80.9005661  28.8471546  69.3255768  81.8024063  29.1549816  69.2352676
  80.9561615  27.9007492  69.1934433   6.7059917  66.3474808  17.0610352
   6.8879771  66.2383118  16.1276569   6.0465794  67.0403824  17.0970459
  15.8325930  70.2048950  52.8116264  16.3439369  70.2069244  52.0024567
  16.3462238  70.7352142  53.4208679  50.7566185  41.1925278  52.3099518
  51.5602150  41.2962608  51.8003426  50.4144440  40.3383141  52.0463829
  64.1182785  20.6438885  66.4322205  64.8639679  21.2347851  66.3272171
  64.1603165  20.3654175  67.3470535  61.2358513  36.8539581  16.5860119
  61.4653320  36.4255714  15.7613573  62.0765495  37.0143623  17.0146427
  34.3750191  65.2138977  17.7315845  33.7972298  64.5726013  18.1452675
  34.1663742  65.1578445  16.7990837  48.3225517  22.9836445  69.8506775
  49.2003174  23.3555012  69.7641830  48.4456940  22.0444260  69.7130737
  84.9340820  69.8586731  55.6706238  84.4864807  70.3464355  56.3619804
  84.3011169  69.8244095  54.9533920  37.9576721  33.4436760  49.8869553
  37.0312004  33.6530380  50.0054893  38.2554779  33.1744995  50.7559166
  25.6969986  43.0659828  28.9282875  26.1815834  42.4664001  28.3609161
  24.7780952  42.8360252  28.7905521  84.5492630  71.3129425   3.9760008
  85.1610413  71.4603119   3.2547221  83.6846771  71.3405914   3.5661755
   2.5728827  19.0663090  35.0110207   2.3830359  19.0603466  34.0728531
   2.7877929  18.1567287  35.2176819  40.3923798  39.5248528  26.1236877
  40.3410721  40.1728287  26.8263435  40.0792274  39.9884644  25.3470097
  66.2722092  65.9301147  31.2426033  65.6076584  66.5329285  31.5761089
  67.0422668  66.4795532  31.0964890  72.3085632  54.8503952  73.0187378
  72.0583038  55.2158623  72.1701889  71.9241257  53.9738083  73.0247498
  15.6907053  42.1786842   7.7925029  15.1412144  41.3954964   7.7624030
  15.0703783  42.9037247   7.8682919  52.0294685  17.8150997  44.6894112
  51.2992249  18.4319439  44.7392464  51.6177750  16.9710121  44.5043221
  55.7024422  35.1091156  72.9140930  56.6582375  35.1505280  72.8828964
  55.5128326  34.2798729  73.3529968   4.3814602  41.9370689  64.1496506
   3.9323797  41.7141724  63.3342514   3.8617041  41.5135727  64.8328323
   4.1536288  68.0768738  88.3191299   4.5508194  67.9011230  89.1721115
   3.7048244  68.9147720  88.4319763  65.8407669   6.4923439  81.5060043
  66.3850098   6.9963360  80.9010086  66.4534302   5.9014010  81.9438019
  72.2933121  69.7306442  88.6854935  71.6668396  70.1237183  88.0778351
  71.8539734  68.9430389  89.0062485  23.9112377  17.4202728   9.0321627
  23.9707546  17.9689312   8.2500744  22.9716511  17.3341122   9.1933565
  30.0443172  48.3406372  55.0608406  29.7408295  47.6641769  55.6662598
  30.3978882  49.0271416  55.6264648  72.2181396  36.6208305  75.5425568
  71.4194336  36.9046593  75.0978699  72.6149139  35.9894142  74.9424591
   0.1059230  38.6416931   1.8260127   0.4648265  37.7561111   1.8822827
   0.0569202  38.8210526   0.8870448  18.3044205  51.6183014  82.5069885
  18.0957165  51.6051941  83.4410706  19.1255512  51.1312294  82.4381790
   1.0132574  47.4178467  20.8344212   1.0737401  48.1674995  21.4265327
   0.4220547  46.8094940  21.2778358  46.1705971  58.5701790  58.5807991
  45.2584152  58.8521614  58.6489334  46.6427307  59.3530083  58.2970772
  81.7199326  11.5718927  37.6151047  81.0642548  11.5949631  38.3120842
  82.4751968  11.1371336  38.0110741  78.4878693  12.2192354  62.6865997
  79.2805405  12.7477474  62.5939865  78.2258301  12.0209227  61.7875786
   4.3624892   8.5354128  68.3343964   4.2061639   9.4784241  68.3846436
   4.5799408   8.2805672  69.2310562  47.5757179  25.5959702  23.5239563
  48.0104790  24.9087257  23.0190697  48.2778168  26.2043648  23.7544842
  57.9954796  41.3019791  78.3281326  57.5194016  40.9215202  77.5900040
  58.1700668  40.5608101  78.9081497   3.9039860  22.9823608  31.0234184
   4.2006884  22.0778160  31.1234112   4.6323223  23.4267540  30.5895157
  18.2021217  52.4008980  66.4233627  18.0872803  53.1606102  66.9942245
  18.6949997  52.7363319  65.6745071  80.1692963  41.5602798  34.3878555
  79.7859344  41.7915497  33.5418205  79.5496292  41.9012337  35.0328331
  13.4899254  43.6337624  48.3206215  13.4741507  44.4689484  47.8532410
  12.8739281  43.0794945  47.8414841  10.3252659  26.9088364  78.8981323
  10.9724979  27.6133823  78.9287949  10.8296919  26.1127548  79.0655899
  68.6068268  17.9582996  12.2663078  68.3616333  18.8764954  12.3804464
  69.4604263  17.8835258  12.6929350  65.9447861  36.9278603  86.7505798
  65.8878937  37.3912926  85.9149780  65.0853348  37.0531158  87.1529312
  72.9679489  23.8405228  25.5779076  72.7912140  24.1991825  24.7082176
  72.2307510  23.2546501  25.7497196  68.0314713  15.6039009  20.7826481
  67.8684464  14.6968632  20.5239277  68.9846039  15.6681213  20.8430367
  79.0804367  52.9151726  66.3413849  78.6914520  52.6756439  67.1825409
  80.0175858  52.9868813  66.5226212   5.7209344  38.9189262  72.3403015
   5.8583035  38.8035202  71.4000626   5.1986117  38.1603241  72.6009293
   6.7100692  52.6178818  77.3907471   6.8696251  53.5059776  77.0712814
   6.1228695  52.7339287  78.1377106  66.6953888   3.5826583  35.7543297
  66.8305740   2.7008178  36.1011925  66.0429611   3.4706650  35.0629311
  45.0930099  63.6466827  71.2821045  44.1606560  63.5640450  71.0818100
  45.1892166  64.5408173  71.6099777   4.3108907  47.3546104  54.9972153
   3.5281897  47.2931976  55.5447884   3.9760520  47.5481224  54.1216164
  76.2391663  25.6942978  16.2910728  75.7605820  25.3247738  17.0331211
  75.9424744  26.6031036  16.2433300  31.1548214  40.8085632  23.5105190
  31.2470398  41.4018860  22.7650681  32.0391350  40.7358627  23.8695965
  18.3075218  48.4837341   9.9109268  17.9180641  47.6532478  10.1845036
  19.2413387  48.3826103  10.0952902  52.4980583  25.9392433  69.1462936
  52.4196930  26.6926308  68.5610580  53.4179344  25.9362164  69.4109650
  31.9096928   4.6393433  46.3452911  32.6017570   4.7411036  45.6918945
  31.9734344   5.4264388  46.8862610  51.9900894  62.6408730  84.9266663
  51.0697441  62.8947525  84.8577728  52.1040993  62.4006805  85.8461990
  20.7863846  18.5836048  68.9640884  20.3214474  18.7632504  69.7812729
  20.2633743  19.0182095  68.2904282  65.3840332  38.1288795  40.5390968
  64.7612915  38.6156311  39.9991875  65.6609039  38.7545853  41.2084732
  19.4106503  39.0801315  11.0993090  19.3000832  39.7855721  11.7367764
  18.8446407  38.3775253  11.4190140  23.8644676  13.9743576  46.2998352
  23.1203346  13.4513693  46.0015335  24.2016697  13.4996195  47.0595398
  66.1799088  42.4845390  47.9156151  66.8061752  42.1488419  47.2742577
  65.7921677  41.7006645  48.3047485  57.3524780  53.3780899  21.0478325
  57.6101570  53.3887863  20.1260300  58.1805382  53.3706627  21.5279312
  60.4538155  47.6783714  84.1251221  59.5546074  47.6471252  84.4517441
  60.6167526  46.7976265  83.7875290  55.6064301  67.4779663  55.3893585
  55.6312752  66.9369659  56.1786194  56.5221138  67.5513153  55.1203308
  39.5148468  63.3676071   0.6478235  38.7083817  63.8309975   0.4217277
  39.6967964  63.6298256   1.5502468  43.7658386  12.4478598  55.8505363
  43.4951134  12.3870535  56.7666397  42.9519386  12.5983229  55.3697472
  45.0391998  59.0560951  31.1992550  45.0939255  59.9519920  31.5318279
  45.1950951  58.5057602  31.9667587   2.0070603  33.8991890  54.8147240
   2.8676379  33.7067146  55.1870041   1.9151230  33.2794876  54.0910225
  69.1989822  28.1863174  77.5884628  70.0173111  28.5547962  77.9213181
  68.7296448  28.9363632  77.2232361  47.7475014  44.0428314  63.4295731
  48.4278831  44.0714264  62.7568932  48.2197189  43.8513870  64.2398758
  77.2952347   7.4026899  51.8965645  77.2033844   8.1380882  52.5023575
  77.9556808   6.8401957  52.3010941   3.9011705  41.3040466  12.0954943
   3.3279922  40.5532646  12.2505035   4.1961083  41.1975174  11.1911182
   8.7914782  30.8215561  82.2187653   8.6407976  31.5651836  82.8023300
   8.0744286  30.2172489  82.4108124   7.1458244  55.0826836  43.8299370
   6.6796560  54.4308243  44.3533859   6.8831263  54.8981361  42.9281807
  20.5082207  54.8111229  48.9465523  20.0134182  54.9587097  48.1405640
  20.2606602  55.5393448  49.5163231  56.3197136  22.1487865  82.2532425
  56.0762024  22.3519917  81.3501129  55.5153694  22.2836514  82.7543106
   4.6676431  58.9352722  64.3511810   5.1864285  58.5105705  65.0343475
   3.9411292  58.3325577  64.1926117  74.7828903  62.8390083  39.4746437
  75.3153076  63.5497475  39.1174126  75.4130173  62.2598686  39.9033203
  31.8264256   3.4237595  16.4831600  30.9489479   3.3346384  16.8550797
  32.3225136   2.6988463  16.8634605  13.1891375   8.6709833  71.2819519
  13.0063534   9.5669699  71.5648499  12.4383326   8.1642456  71.5913696
  22.9141483  48.8019257  66.0017319  23.3495617  48.1589661  65.4420471
  21.9912281  48.5486488  65.9843216  55.2776527  58.1689186  26.4677773
  54.7614098  57.5384407  26.9699936  56.1862144  57.9065933  26.6158924
  55.8192215  45.9484787  67.1656494  55.6923332  46.7868576  66.7215118
  54.9385910  45.5805855  67.2389755   2.5755723  10.7981405  16.7670975
   2.8273158   9.9593563  16.3807068   2.1768553  11.2842789  16.0453453
  55.6310043  49.5781975  86.3253479  56.5480347  49.8024521  86.4834518
  55.6145325  48.6211433  86.3283081  11.4772282  52.8678322  17.6667995
  11.1201448  52.6525917  18.5284214  10.8519030  52.4913940  17.0475273
  68.1114960  39.6594620  62.7849121  68.8400421  40.0158958  62.2765846
  68.5098495  39.3752670  63.6075783  76.7508316  30.9585438  14.4870262
  76.0983353  30.3177929  14.2043381  76.2744980  31.5398922  15.0797939
  60.9362183  48.0202637  66.6671295  61.1722374  47.5362129  67.4584732
  61.7316933  48.4981728  66.4324951  76.2256393   2.6263592  86.5745850
  76.9499893   2.6164520  87.2002411  76.5862045   2.2241709  85.7843475
  19.7427349  68.3430862  74.8930435  19.0890045  68.3158722  74.1943817
  19.5121956  67.6113129  75.4654007  63.9644051   2.3052750  62.4476433
  63.7808876   2.2009590  63.3812752  63.2185783   1.8952184  62.0096626
  82.9437943  50.1170959  58.5177422  82.0783081  50.0264664  58.9164276
  83.2655792  50.9615822  58.8332253   6.6580515  68.4722900  40.2941170
   6.5572810  69.1371002  39.6128654   7.5619793  68.5708923  40.5931587
  22.0566502  65.8150787  86.1166458  22.8003101  65.4408951  85.6442184
  21.8174267  66.5914459  85.6104279  85.0260010  57.4678078  42.9087677
  84.9089508  57.5914955  43.8506966  84.8640518  56.5350075  42.7677345
  23.1394253  23.7141781  11.7261038  22.7646446  23.1328163  12.3877611
  23.3789349  23.1327667  11.0044203  82.9971466  60.0794563   0.4071599
  83.7965317  60.5890732   0.5394902  82.7802658  60.2095070  -0.5160306
  71.9527817  56.4437065  87.2815399  71.6613388  55.9395294  86.5218735
  71.8155518  57.3569717  87.0298615  40.0407715  57.1149254  43.5681114
  40.5168991  56.8880577  42.7693214  40.6145172  57.7323952  44.0217438
   4.5203109  15.0532436  50.8516006   5.2821717  15.3648405  50.3630257
   3.8981185  14.7810650  50.1770439  45.8455048   3.1085875   7.5216169
  46.1609726   3.9824207   7.7521143  45.3705368   2.8128357   8.2982559
  16.0128517  57.8058052  31.0323601  16.5411720  57.2190208  30.4912567
  15.4930582  58.3075523  30.4044304  19.9140625   9.4278173   8.3443718
  19.8988285  10.1478367   8.9749041  20.2349949   8.6777649   8.8450289
  23.7300167  32.9480553  12.9240837  24.6067238  33.2827339  13.1127872
  23.8646374  32.0208359  12.7282028  51.5838280  39.5463219  42.2237930
  51.2766151  39.6440659  43.1250687  51.7690201  38.6115150  42.1339264
  19.0213203  52.8942909  15.4212694  18.6735249  52.5990143  16.2627449
  18.3986187  52.5618324  14.7747841  62.4090919  24.9904881  18.3915462
  63.3176308  25.0690689  18.6824284  61.9398346  24.6610909  19.1580486
  62.0435905   0.0249608  24.0976009  61.9142303   0.8404408  24.5818424
  62.9337654  -0.2473273  24.3205032  15.6172276  32.7631149  19.0235023
  15.5606861  33.5818672  19.5161324  16.5400658  32.5146446  19.0770016
  44.8450241  10.7769175   0.0532479  44.5947723  11.1025543   0.9178680
  45.6311684  11.2744827  -0.1717683  60.2197456   0.9996485  63.3062820
  59.7302437   1.4292853  64.0077362  59.8388138   0.1232943  63.2503815
  13.9868908   3.0353291   3.0959945  13.0333662   3.0688844   3.0192082
  14.1912146   3.6405222   3.8088934  80.6584854  13.6882095  61.9761505
  81.4258423  14.0504875  62.4190369  80.5446396  14.2413492  61.2032928
  56.7892036   2.1103575   9.1207867  56.1257324   2.4544110   9.7188377
  56.5658112   2.4902375   8.2710695   7.7942610  65.8137436   9.6659422
   7.2744865  65.0635910   9.3772697   7.6068125  66.4969406   9.0222559
  62.3328094  10.9003582  13.3578529  62.0195160  11.6120110  13.9160900
  63.1617508  10.6321640  13.7542858  34.9684486   6.9948592  83.7348633
  34.7595901   7.2992849  82.8517227  35.9037247   7.1725082  83.8345032
  33.9964943  67.6878357  74.6231308  33.6967697  67.4513931  73.7453537
  33.9416924  66.8730621  75.1225052   1.1370883  10.0970163  49.4432793
   0.5201170   9.6663256  50.0349579   1.3221486  10.9381275  49.8610306
  62.2522850  13.6182604   1.9254924  62.3643570  14.5439701   2.1416698
  61.3200150  13.4511328   2.0639563  73.2516098  14.4856701  62.6351051
  72.4925919  13.9250107  62.7956924  72.8851242  15.3655548  62.5472183
  85.6383133  53.0458488  66.5006561  86.3681412  52.9938889  65.8834991
  84.9227371  53.4293938  65.9936371  70.7255630  10.7849407  41.3532448
  71.5600052  10.4992266  40.9813576  70.2512360  11.1647329  40.6136475
  69.2528305  54.1568756  46.8241539  69.5027390  53.2716484  46.5592995
  69.5595016  54.2320786  47.7277718   0.9313933  48.5422897  59.1632347
   1.7068965  49.1021080  59.2010651   1.2522006  47.6723022  59.4007950
  16.2283955   9.2406569  63.9252434  16.2537766  10.1850185  64.0794144
  16.6250153   8.8593578  64.7085266   8.1982527  53.4789581   7.8737907
   7.2757006  53.7190285   7.9603729   8.5663376  53.6241341   8.7453814
  53.3546371  34.5045013  31.1940346  53.2539520  34.9843178  32.0161476
  54.2163734  34.0931778  31.2607670  32.2836990  63.4149323  42.1064301
  33.1414223  63.2432671  42.4951172  31.6622181  63.2514877  42.8158531
  74.5541458  35.3787193  14.7139778  74.8691406  35.4852257  13.8163891
  73.7018890  35.8144226  14.7220106  10.1848860   2.9592497  80.9460526
  10.8875551   2.9586914  81.5960464  10.3262148   3.7601399  80.4412460
  50.0440331  43.7288704  53.3799019  50.6119995  43.9879036  54.1055374
  50.2232666  42.7967453  53.2564163  27.0674915  41.8914719  23.9274101
  26.3447456  41.4729309  24.3950577  26.7359734  42.7609291  23.7029667
  49.2106056  17.0467224  73.5222244  48.6185684  17.1881866  72.7835007
  48.7634659  17.4474888  74.2676620  50.7564507  50.7429237  71.0529480
  50.7919235  49.7868004  71.0247040  50.1947060  50.9397202  71.8025742
  22.1790409  23.0531464   5.7993088  22.1418476  22.1417809   5.5090318
  22.5985928  23.0138378   6.6587639  63.2300339  20.5468750  46.2645798
  62.8376312  19.9637909  45.6147575  63.6216087  21.2516022  45.7485733
  37.7804375  60.3527794  15.8568888  38.4149818  60.7546539  15.2635241
  37.5558052  59.5210609  15.4397326  15.3830900  39.8694916  79.6242905
  15.7084360  40.7695389  79.6414871  14.5937452  39.9104195  79.0843887
  68.9517899  37.2645607  31.6364346  67.9993744  37.3492889  31.5922832
  69.2805328  37.9524269  31.0576363  71.8657379   3.2579134  66.7182999
  71.7929611   2.3775020  66.3497772  71.0346756   3.6789792  66.4985962
  54.0409050  67.7526779   1.7060059  53.6532173  68.1219177   0.9125367
  54.6828804  68.4055328   1.9850794  47.9134598  44.3211517  43.6035576
  46.9770584  44.1314240  43.6617699  48.1039848  44.3014145  42.6657181
  60.9910889  69.4036636  52.3612671  60.6788750  68.5046997  52.2581711
  61.3850060  69.6188354  51.5158310  53.1750908  34.4208794  86.6381760
  52.6160469  33.6527100  86.7548370  52.6258011  35.0475616  86.1672363
  66.5167313  42.1514587  19.1031094  66.3906784  41.3161774  18.6529408
  67.4571075  42.3183708  19.0393639   4.9765930  54.1463051  84.0669403
   5.4621682  53.3218803  84.0391083   5.5482769  54.7759361  83.6276550
  75.4066544   5.9661188  26.2226353  75.4245758   6.2257872  27.1437664
  74.5028534   6.1205378  25.9478035  37.0551910  36.5446548  31.6435947
  36.2969246  35.9620552  31.6006317  37.7168961  36.0419159  32.1185989
  65.6118469  16.5123634  68.2334824  64.8646851  16.6240311  67.6456757
  65.4658127  15.6618023  68.6475449  45.0843964  39.5918922  11.8474026
  45.9252777  40.0044479  11.6500416  44.4986916  40.3233719  12.0426321
  40.0854492  56.3317642  18.5967960  39.8115540  57.2342415  18.7603512
  40.8091087  56.4100151  17.9751625  69.4669189  25.8842068  22.9611130
  68.6176376  26.1722546  23.2957649  70.0853958  26.1014290  23.6586304
  62.4523010  55.7185860  70.5167236  62.5236206  55.9462318  71.4437180
  63.2049141  56.1449318  70.1068039  32.9361458  42.8663101  30.4225597
  32.3106766  42.3930054  29.8739243  33.7854805  42.7042656  30.0119495
  14.2105742  61.5035210  81.4280472  15.0131922  61.9955597  81.6010590
  13.5947371  61.8077240  82.0947113  19.8699284  18.2686195  30.0117035
  19.0544014  18.0899429  29.5434933  20.1447201  19.1288891  29.6944389
  61.9182663   1.8631517  73.6224442  62.5758133   1.3554472  73.1469421
  62.1228638   2.7747440  73.4141846  73.9863358  32.1097145  76.3890686
  73.6258087  32.7940941  76.9528732  73.3380051  32.0071297  75.6923752
  58.9895058   8.5449247  12.2196178  59.5969238   8.5102196  12.9585857
  58.5255814   9.3749189  12.3296900   8.9431372  38.2831306   9.5592613
   8.3582401  38.1907196   8.8072062   9.1642685  39.2142563   9.5777102
  30.7422581  45.4740067   1.6774565  31.0356998  45.0440750   0.8741608
  30.4924259  44.7541962   2.2568426  50.8228531  28.8458481  57.1008377
  49.9917793  28.7530823  56.6350708  51.3923340  28.1838779  56.7087631
  21.6157055  66.2199554  18.9798584  22.0150948  67.0894089  19.0076084
  21.8699589  65.8130417  19.8081169  72.0759964  52.2153625  21.5094738
  72.4678192  53.0453606  21.7811508  71.1452789  52.3125954  21.7108440
  21.2750511   2.0375557  76.7526245  21.9990063   2.6590595  76.8291397
  21.5574780   1.4230869  76.0752106  73.3354568  47.0788345  85.0530319
  73.1786957  48.0192108  84.9672775  73.3751144  46.7594414  84.1515656
  10.1532831  29.4009571   4.7676954  10.0850792  30.3348198   4.5689960
   9.2461662  29.0985756   4.8117161  36.0555458  41.1223602  75.1898880
  37.0123062  41.0984497  75.1736145  35.7952843  40.2100372  75.3170242
  29.9585495  16.0175991   2.5824342  29.0866604  15.7522583   2.8750696
  30.0413780  15.6425171   1.7056880  45.8141556  46.9925346  63.7850418
  45.5030670  46.1104774  63.5814857  45.1474991  47.5724983  63.4170189
  20.4428062  28.1543961  20.7713680  20.4642620  27.2236671  20.5488472
  20.5872269  28.1778870  21.7173195  26.0175457  44.3303833  70.3684387
  25.4780941  44.5287514  69.6030121  25.4843044  44.6041489  71.1147232
  18.6541557   1.3010743  15.4082575  18.5817738   0.3466417  15.4010935
  18.0269814   1.5838475  16.0737839  61.0998268  45.7446289  25.7962132
  60.7093086  44.9082985  26.0497532  61.3892250  45.6100464  24.8937912
  36.7313728  67.2035675  63.8962555  36.4808350  66.6794586  63.1354790
  36.7577209  68.1028442  63.5694084  56.0053520  27.5561180  23.8280067
  56.1841507  27.2898827  22.9261303  56.7858429  27.2917156  24.3149948
  19.6293812  43.8730736  46.4760475  20.1353359  43.7543983  45.6722107
  20.1909771  44.4095650  47.0355301  58.9338684  11.9239616  15.8313189
  58.5162315  11.0646744  15.7726736  58.2045631  12.5414553  15.8865366
  32.1526375  66.7532654  59.6793060  32.3499985  65.9252243  59.2415504
  31.4720154  67.1538391  59.1384468  29.7964439  61.8186874   9.2201757
  29.4433994  61.2949638   8.5009394  30.6759377  61.4685936   9.3621502
  70.7528152  33.6683006   5.4514613  70.1153870  33.0536423   5.8149390
  71.5942078  33.2203293   5.5387225  76.6261292  34.3634605  46.5200768
  77.3879395  33.8200340  46.7214928  75.9965744  33.7577896  46.1288490
  81.6197739  24.5649872  30.1822376  81.0781860  24.0075893  30.7410030
  81.0841064  25.3433628  30.0292034  27.4485340  70.8449860  75.7823639
  27.1973457  69.9508362  75.5507889  28.3472176  70.7660675  76.1023178
  62.7951164  60.4115715  24.4364643  63.6436615  60.3420753  24.8739281
  62.8402634  59.7743759  23.7236023  54.3682671  48.6697998  20.3140888
  54.4851227  49.4729614  20.8215389  53.4648895  48.7137794  20.0007191
   1.5446157  54.3092346  32.7161217   1.7153494  54.2366562  33.6551704
   2.2449930  53.8022308  32.3054504  57.3782196  16.1565399  18.7979298
  56.5815277  15.7520008  18.4546146  57.6909485  15.5430899  19.4628448
  49.4154701  38.8282661  51.8244171  49.2595711  38.1350555  51.1830215
  48.9202843  38.5556297  52.5968781   1.0761114  29.5075073  32.8123169
   0.2056344  29.6263027  32.4323311   1.4377117  28.7509079  32.3507614
  82.1514053  17.1598301  64.6497192  82.5223389  17.2674656  65.5255356
  82.6638184  17.7510605  64.0982666  31.7503300  49.9409294  50.8247757
  31.4666958  49.0339241  50.7102394  30.9537926  50.4118538  51.0697060
  46.4281082  70.9867096  16.5903378  47.3840523  70.9762497  16.6382217
  46.1927834  70.1030807  16.3073921  25.0471745  40.2589684  82.3315659
  25.0599518  41.1882973  82.5605087  24.9582520  39.8068123  83.1705399
  13.4848709  58.7482452  30.1022148  13.4183073  58.9950523  29.1797810
  13.5990458  59.5785103  30.5646610  38.9802704  58.5477943  36.6228981
  39.6029778  59.2513771  36.8057594  38.5472755  58.8158188  35.8123970
  85.5202942  14.5760260  79.5448151  85.9832535  15.3814983  79.3143387
  85.9585037  13.8939247  79.0359573  68.1679230  70.7355042  58.6064377
  68.8848801  70.4383469  59.1667061  68.4929352  70.6101990  57.7148666
  79.4115067  32.3774300  13.6921921  79.6783676  31.5068932  13.3969212
  78.4974136  32.2712250  13.9556026  80.0130997  33.3886185  66.5987167
  80.3754044  34.0022926  67.2377548  79.2993317  32.9521561  67.0637665
  56.6856613  25.5832672  68.2465591  57.4845581  25.1887550  68.5963516
  56.8115463  26.5246830  68.3654099   0.4326384  26.1659908  57.0052605
   1.3636231  26.1702518  57.2277031   0.3620520  25.5430126  56.2819710
  54.8142395   8.7311869  26.8425999  54.8163109   9.6853991  26.9181347
  54.5466957   8.5630293  25.9390640  77.5666656  62.1306038  14.5700054
  76.6676254  62.3435135  14.8202600  77.4900818  61.3178444  14.0702181
  59.1028671  26.4012260  63.7861938  59.1177483  25.4441910  63.7764969
  59.6437607  26.6567631  63.0389557  65.3480988  70.8142395  88.5457077
  65.8531952  70.1716385  89.0438766  65.8837128  70.9927979  87.7727509
  53.6663132  35.5627365  64.2335892  53.2207985  36.3993568  64.3670502
  54.5147133  35.6719704  64.6631470  75.3091507  59.2509995  63.4186211
  74.5779572  59.3077011  64.0337448  74.9084091  59.3745232  62.5581665
  40.7712669   7.7895250  86.6883621  40.7847824   6.8488569  86.5117493
  41.6943474   8.0342512  86.7536469  23.4695282  30.4965801  11.7092543
  23.1267796  30.3886795  10.8220596  22.7339306  30.2721691  12.2791395
  75.6552811  17.4281216  71.8247833  75.4571838  18.2508850  71.3775101
  76.1944122  16.9406796  71.2019119  78.6007843  15.8074169  44.3516769
  79.0328903  15.0502005  44.7468185  79.0135956  15.8975592  43.4927864
  26.2960320   5.9446597   5.4797554  25.6311512   6.4950509   5.8935595
  25.8299255   5.1426926   5.2434821  51.7663918  48.8686371  10.7088842
  51.1150169  48.4265327  11.2533884  51.6466866  48.4905891   9.8376884
  18.4439392  71.1212692  88.8991241  19.2539883  71.6040497  89.0633774
  18.4630909  70.9335175  87.9607162  37.7323074  18.4755325  83.9194412
  36.9450035  18.9559307  83.6633072  37.9275284  18.7890625  84.8025131
  79.7343597  10.0791206  67.6262741  80.1147461  10.9419260  67.7909012
  80.3864517   9.4624300  67.9589920  44.9519081  71.0085754  46.6398544
  45.7460289  71.3177032  46.2039146  44.9249077  71.4967728  47.4627571
  37.3267517  41.7169456  33.4658470  37.1162567  40.9628258  32.9151840
  37.6428490  41.3348770  34.2845879  64.1895905  22.9899254  54.5268478
  64.1314774  23.5295620  55.3152924  64.5827560  23.5656834  53.8709831
   1.1884553  16.7827072  13.7351427   0.5317990  17.1883640  14.3012495
   2.0245290  16.9850006  14.1550112   8.4292297  68.8895950  50.5126038
   8.1246758  68.4688416  49.7085876   8.8619986  68.1889420  51.0004807
  51.3235931  36.6066856  57.6403160  52.1765022  36.5491104  57.2096596
  50.7239647  36.8847160  56.9479446  30.5363846  27.0052433  80.9140930
  31.0805988  27.0239506  81.7013092  30.9917355  26.4063473  80.3223038
  70.6900558  68.0734787  17.7026443  70.0452194  68.5542908  18.2215309
  70.5261383  68.3498840  16.8009968  81.4925766  52.6234055   8.4763021
  80.9024429  52.0551033   7.9813266  81.0749054  52.7146263   9.3327236
   8.3490219   5.0822797  22.4582500   7.5673447   5.6332040  22.4170895
   8.5957527   5.0853105  23.3830986  67.7757111  44.8655663  70.7382507
  68.5599976  45.3622971  70.9714584  67.0706177  45.5128593  70.7476883
  73.0349503  39.2626190  64.2298660  73.9843826  39.1536369  64.2840195
  72.6812210  38.4091911  64.4804001  77.9559784  50.7552376  43.7372704
  78.0300217  51.7090683  43.7063560  77.4279404  50.5811234  44.5164337
   2.4179103   4.8099036  22.2254982   3.3174233   5.1005778  22.0751114
   2.2173932   4.2526388  21.4735146  37.9377022  61.6528740  50.0555496
  38.7314339  61.3253708  50.4785957  38.0183792  62.6056404  50.0998383
  47.5250626  45.9073219  84.6842422  47.1008682  45.6666641  85.5078812
  46.9339066  46.5477943  84.2885666  42.5442772  11.6505823   4.8347726
  42.8481255  11.7452564   3.9320304  42.1953430  10.7602930   4.8779197
  49.3143158  43.5719986  61.2146111  50.2195663  43.8471298  61.3597221
  49.1744194  43.6942558  60.2756157  53.1465034  66.4403992  50.2283669
  52.6164436  66.4686813  51.0249023  54.0006866  66.1219711  50.5202713
  28.1033764  55.0994415  15.4784107  28.5061607  54.9145393  16.3268261
  27.8427601  54.2409401  15.1448164  12.4178181  50.5476570  73.2751999
  12.4879494  49.7013016  72.8336182  13.2735939  50.9566612  73.1463776
  83.9216232  50.0327263  49.2848816  84.2261200  49.1261711  49.3258286
  84.0671310  50.2934151  48.3754311  40.7287750  12.0858269  36.4521713
  40.4787102  12.9845171  36.6667786  40.2645149  11.5483046  37.0938606
  80.3824997  60.7426720  35.8966980  79.6573639  60.5430756  36.4887924
  80.7268066  61.5780067  36.2127647  66.1734467   4.5906334  77.5584183
  66.5005646   4.4102278  78.4397125  65.3213654   4.1557617  77.5255356
  62.9972191  17.7732067  67.4487228  62.5952759  18.4630718  66.9207458
  62.3074837  17.5029545  68.0549088  56.2519798   0.1609246  49.9752579
  56.9699364  -0.0718862  50.5639572  55.6641006   0.6917598  50.5127029
  71.8367233  58.8147316  14.2573023  71.1466980  58.4226379  13.7221813
  71.9515839  58.2038536  14.9852219  53.1482468  57.9145126  57.8575478
  53.3944511  58.7125168  58.3253098  53.9695320  57.5906830  57.4876022
  61.5904846  43.3642464  72.7951584  60.6724319  43.0962143  72.7555237
  61.5692902  44.2327843  73.1969299  53.7567329  19.0400658  54.1979446
  53.1763802  19.6332932  54.6749153  53.6804314  19.3138561  53.2839165
  20.6300697  46.9035835   8.1535711  21.2203999  46.4830246   7.5283732
  20.2000847  47.5944481   7.6495352  79.0018082  29.9477806  23.7890472
  78.6541138  29.3570480  23.1209335  79.5663071  29.3938255  24.3282146
   5.9559331   5.9107289  85.9890900   5.0713568   6.1007266  85.6765823
   6.4462738   6.7161388  85.8244247  72.3322449   0.5536337  52.9350510
  71.4072495   0.7822126  52.8436050  72.7741394   1.3922008  53.0683441
  73.4933090  18.0269585  51.5256538  73.9962769  18.8412628  51.5383873
  72.7920837  18.1685905  52.1616249  41.3063965  18.3762531  10.9863720
  41.0561943  17.6823540  10.3763418  40.5210266  18.9171734  11.0690193
  20.9676723  52.8033333  18.3990726  21.0831528  52.6157265  17.4675694
  20.7624512  53.7377090  18.4315643   0.3608565   1.4489956  41.1760025
   1.2618692   1.6718297  41.4099960   0.2754253   0.5238317  41.4062309
  36.7021751  22.4056854   3.8552492  36.5785980  22.7848015   4.7254400
  36.0937462  22.8878803   3.2953086   3.4590099  63.2520332  76.6361313
   3.1850467  62.8750343  77.4722290   2.9217014  64.0383987  76.5404434
  24.3308010  44.3583794  67.7724304  24.8601990  45.0411491  67.3603745
  24.4911919  43.5780144  67.2418365  66.0927658  46.4485321  17.5548401
  65.8155060  47.3291130  17.8076916  66.7920761  46.2313499  18.1713104
  21.3379517  41.5383949  41.4065704  20.5462952  41.0080719  41.3156471
  21.9148407  41.2292900  40.7080841  83.3914108  14.2844877  32.2004967
  83.3671646  13.4538755  32.6756058  83.9291000  14.1037884  31.4294796
  29.0745316  70.3208237  83.6128693  28.4394112  69.9213181  84.2072144
  29.6073170  70.8835678  84.1747284  68.7460556  28.1159115  62.0127602
  68.4442673  27.6332359  62.7822914  69.2793732  27.4855289  61.5285912
  41.3699951  50.9618492  44.8821373  40.4261436  50.8033524  44.8660088
  41.7463799  50.1359863  45.1863022  16.7814293   3.3892076  18.9799595
  17.5954952   3.5264874  18.4955177  16.3919601   4.2611070  19.0458107
  25.8675671  48.0106926  64.5331421  26.4238968  47.5422897  63.9107895
  24.9792728  47.7205315  64.3258514  27.4377384  13.5217104   9.8473492
  27.0022850  14.3740559   9.8583088  26.7264271  12.8881254   9.9413567
  16.0663815  51.5406952  55.1899681  15.5376101  51.3783913  54.4087563
  16.6444454  50.7801361  55.2501793  37.3760605  68.4889297  60.2548218
  38.2263603  68.0813980  60.0900955  36.8669624  68.3087158  59.4645195
  26.2236214  32.9301376  30.1261139  25.8544674  33.7440453  30.4689102
  25.4972534  32.5148087  29.6612186   7.4832559   9.8647776   0.2195307
   7.6089225   8.9402571   0.4333108   6.5689135  10.0399342   0.4420835
  78.6682739  65.6699371  10.6449976  78.6812897  65.6171722  11.6006536
  77.8020477  65.3453369  10.3989735  75.7527313  12.6151953  79.7373352
  75.6819458  11.8353033  79.1868896  75.8977661  12.2733240  80.6195602
  65.0149002   6.1172552  52.7287636  64.3724289   6.7611208  53.0269318
  65.0607300   5.4777699  53.4395332  75.1703949  27.5651131  40.6055031
  75.1079254  28.5057793  40.4397469  74.2994537  27.3183842  40.9166641
  28.2470837  29.6697330  12.7257919  29.0746803  30.1481819  12.6767902
  28.2131767  29.3412209  13.6242142  50.1893005  63.2777481  52.7631073
  51.0160294  63.6647530  52.4750481  50.3884964  62.8962059  53.6180801
  39.6341553   3.2492890   4.1330061  38.9272232   2.7889619   3.6807017
  39.3234215   3.3393619   5.0338736  85.5718460  31.1409416  33.7739754
  86.4016190  31.6180916  33.7677803  85.1812973  31.3506489  34.6223412
  35.8717232  69.8308792  46.6306572  35.0623589  70.2667084  46.8975220
  35.6026154  69.2311401  45.9348602  75.3607559  70.8920059  76.1248856
  75.6309280  69.9877853  75.9648132  75.3692551  70.9793549  77.0780563
  68.3581085   4.0902042  40.9522095  68.0803375   3.2784736  40.5277481
  69.1916046   3.8699224  41.3681488  20.7978954  22.1142063  86.1642990
  21.4419460  21.9595661  86.8553238  20.9752464  23.0065937  85.8669357
  77.5616760  70.7816772  47.4471436  77.4704895  70.6246185  46.5073318
  76.9017944  71.4465332  47.6440010  77.1668472  24.6943913  87.4639053
  76.6651535  25.0431042  86.7270660  76.5061493  24.4735394  88.1203690
  63.0557976  59.4184837  44.0670357  62.5163956  59.7554436  43.3516808
  62.7696342  58.5115967  44.1761208  80.5792694  64.4810486  79.6730499
  79.9727325  64.3554916  78.9432755  80.1785812  65.1713028  80.2014771
  47.0258369  16.9083138  81.0737305  47.0609512  15.9832354  80.8303528
  46.8462677  17.3654690  80.2521439  86.3952789   7.0721006  56.3149147
  86.5791092   6.8532815  55.4013710  85.4501190   6.9503832  56.4048386
  67.8616180  50.8586235  81.2935486  68.1677475  51.0420074  82.1817398
  68.2481232  50.0100136  81.0774231  20.2673931  35.3349953  10.8369799
  20.4138660  34.4276276  10.5696545  21.1001968  35.7734718  10.6626081
   0.7208381  65.0507584  27.4655266  -0.0211146  65.6241608  27.2733097
   0.4454501  64.5525589  28.2350674  21.3970108  45.1607666  63.0958748
  21.6000595  44.2265549  63.1432953  20.5172234  45.1958961  62.7204094
  78.3166580  66.0037994  37.0100098  79.0807877  66.4682770  37.3514595
  77.5706406  66.5400009  37.2786865  72.6187057  68.5050964  72.1679916
  73.0199814  67.9144516  71.5305405  72.0999298  67.9317932  72.7322845
  35.6814499  31.2000618  12.6912956  34.9567986  30.8108978  13.1808548
  35.3348160  31.3229103  11.8075619  14.1350622  42.0209923  23.1081867
  14.7079582  42.3151169  23.8163624  13.2663260  41.9729118  23.5072060
  76.9676285  51.0080376  79.0542984  76.1904678  50.4513893  79.1032639
  76.6494217  51.8835258  79.2745132   7.6539092  23.6224442   4.8288846
   7.6544209  22.6929131   4.6004024   7.3063111  23.6497746   5.7203217
   1.7762648  13.1462908   3.1753292   1.0961138  12.4728613   3.1862426
   2.5509994  12.6987486   2.8351474  45.5483093  51.7383041   4.3981905
  45.5478706  51.0817909   5.0947685  46.3282928  51.5379906   3.8807633
  34.1444435  39.4189415   9.7443218  33.3092575  39.8691826   9.8707104
  34.4498901  39.2274323  10.6310349   0.7469250  36.2819633  25.6902084
   0.8552713  35.4574890  25.2161465   0.2104193  36.0531349  26.4491749
  35.9915009   7.4914250  23.9012699  35.5846939   7.9975395  24.6045399
  35.2569923   7.1944852  23.3640957  26.7740822  24.0803299  77.1755905
  25.8264866  24.0135822  77.2932205  26.9346542  25.0156860  77.0508652
  26.1980743  56.8079453  10.0379448  25.4966373  57.4428902   9.8928041
  25.8247051  56.1744881  10.6507730  77.4805832  49.5102692  85.3480606
  77.3733902  50.0143394  84.5414276  78.4086456  49.2763557  85.3627777
  80.6201782  52.7219467  57.3053093  80.5827560  52.0308151  57.9664955
  81.2141418  52.3815041  56.6363220  65.6688690  50.6068230  57.4971199
  65.3897858  50.1581230  56.6989899  64.9121857  51.1346245  57.7522354
  76.7910385   9.7953672  38.8187866  77.3590317   9.7843590  39.5891724
  75.9121246   9.6455336  39.1670609  17.6250095  59.4148483   5.2521143
  16.9134312  59.3789902   5.8913341  17.8828259  60.3364563   5.2321563
   0.3631836  41.9571381  70.6728058   0.7091672  42.7827263  71.0118179
   1.0103753  41.3015137  70.9326706   4.9296932  10.8378983  78.8769302
   4.3796988  10.1830549  78.4469070   4.3169918  11.3676004  79.3870697
  16.4964333  31.0221748  66.2545090  15.5475826  31.0823879  66.1436615
  16.8550377  31.3405972  65.4261169  56.2486191  48.9732437  35.6974640
  56.6296844  49.4383888  36.4422188  56.9647484  48.4359398  35.3587914
  71.7048187   6.2032480  35.7314491  71.1352158   6.3034811  36.4941673
  71.1882477   6.5425267  35.0005035  69.4829941  32.6215134  67.3463898
  68.9759674  32.4533272  68.1406631  69.9566345  33.4323883  67.5317993
  46.2676697   3.8221383  22.9717350  46.1313972   3.5309896  22.0701294
  46.6223106   3.0545101  23.4202976  42.8916206   6.4979553  48.3251915
  42.0892754   6.7846413  47.8889732  43.3444939   7.3102727  48.5516396
   1.3442258  26.3252068   8.4397459   1.1039492  26.8430386   7.6714039
   1.2990973  25.4171810   8.1402693  67.1177444  32.3948669  39.9581184
  66.8027344  32.0013618  39.1443901  67.2553024  33.3168564  39.7407494
  49.7787209  69.5504150  37.4992256  50.6308060  69.9524612  37.6681633
  49.4575882  69.2971268  38.3646469  58.7223167  31.9626904   8.6440601
  58.8775139  31.6854076   7.7411423  59.5438843  32.3737221   8.9129581
  66.6350250  53.7259026  75.7866516  66.8544922  54.2154465  76.5793762
  66.0996933  52.9954796  76.0967255  55.0786018  70.2605972  56.3940735
  54.9061775  69.3602905  56.1184845  55.3217850  70.7154846  55.5877457
  67.1699982  67.6718826  85.7973709  66.5341644  66.9750137  85.9595871
  67.7618713  67.6357498  86.5487823  45.2834091  58.0037880  46.5210838
  44.7521667  58.5656357  47.0852966  44.8420067  58.0308723  45.6721649
  29.7717495  29.2687130  68.5882950  29.4910355  28.4803772  68.1235809
  28.9689903  29.6163368  68.9768372  13.7260866  33.6228828   8.9676123
  14.3773298  32.9663620   8.7204437  13.4838190  33.3939552   9.8649025
  46.6584320  63.1960487  83.7496109  47.4425888  63.6233292  83.4049988
  46.0960693  63.9179726  84.0303345  32.1108475  68.5005188  67.0734253
  32.8529892  68.2279739  66.5338135  31.3402596  68.2140274  66.5831680
  78.8075333  34.8604279  15.2975655  79.1664276  34.2183189  14.6850920
  79.2711182  34.6937637  16.1182632  84.6235733  53.9459801  68.8816528
  85.0835800  53.6523895  68.0952454  83.9105988  54.4929504  68.5519333
  21.8488483  49.2167854  49.4144211  21.5762825  50.1007652  49.1684074
  21.9799137  48.7657356  48.5803909  64.5647049  44.1891327   5.2365808
  65.1295776  44.2588921   4.4669776  63.8452110  43.6240158   4.9551597
  46.2856674  51.1856918  68.7331085  46.0240173  51.0439644  69.6428833
  45.8078117  50.5189514  68.2398148  23.0970097  58.7221565  83.7462845
  23.5802956  58.9061737  82.9408035  23.3920612  59.3936348  84.3613434
  74.5379715  48.9274368  12.3874731  74.5545273  49.4312859  11.5737820
  73.6874161  48.4884338  12.3800850  77.8078842  51.9106560  13.3074951
  77.1727448  51.2905693  13.6657104  78.1071854  52.4119873  14.0659933
   5.0951052  29.8724957  28.5055275   5.3225784  29.6484337  29.4079056
   5.8067636  30.4421444  28.2135124  15.0703754  60.8749352  23.9521770
  14.6873817  61.7520866  23.9645157  15.4922256  60.7857361  24.8067646
  13.4450827  23.0454445  20.4372444  13.4791832  23.9134541  20.8392735
  14.1973066  23.0257797  19.8456345  16.8349476  50.6259804  58.1238976
  16.1037827  51.2345924  58.2298164  17.6159515  51.1732903  58.2058678
  72.6009674  31.5172691  50.5386696  72.9170227  31.0440464  51.3083458
  72.9261932  32.4098396  50.6560364  67.1121979   4.9030647  72.6438065
  67.3236847   4.3981009  73.4289932  67.9244690   5.3609509  72.4275131
  49.5028114  41.0037498  69.3255539  49.8979912  40.1737556  69.5923386
  50.2234688  41.6329842  69.3563309  40.5939827  50.9190674  18.8305531
  40.5296440  51.5119743  18.0818520  40.9528580  51.4598083  19.5341434
  33.8962936  66.4453812  25.7752590  34.8286476  66.4163208  25.9899693
  33.4590111  66.1206894  26.5624008  79.4537048  70.9178085  49.4677429
  78.8716965  71.4670258  49.9929657  79.0508270  70.9036865  48.5995712
  52.3469963  45.7258987  20.4495335  53.1091385  45.3397064  20.0179939
  52.2147713  46.5606804  20.0002079   8.9800663  70.1001282  26.1713886
   9.6272573  70.4576187  26.7793140   9.4999933  69.6514587  25.5046043
  30.3202763  48.4262772   8.5696850  30.5089054  49.1160583   7.9334068
  30.9540691  47.7370987   8.3707590  73.7451782  56.4849205  43.7984505
  73.6746750  56.2074356  42.8850708  74.6868668  56.5165558  43.9671516
  58.0905304  28.9506969  47.8971481  58.1062698  29.5795212  48.6186523
  58.9403801  29.0556431  47.4693909  66.4017868  11.6016226  36.9854317
  66.2349396  11.7092314  37.9218178  67.1667328  11.0278053  36.9428368
  34.0188637   6.2108936  14.6019468  34.9547691   6.1509399  14.7935696
  33.8809013   5.5912991  13.8854961   5.8191853  49.2296715  67.7923126
   4.9069552  48.9620552  67.9038925   6.0015068  49.0781860  66.8649216
  37.5857811  29.1408253  81.6279297  37.2630882  29.8150482  82.2258682
  37.5498314  28.3314743  82.1377258  77.2681274  53.8329887  47.0853729
  76.6466599  53.6170998  46.3900948  76.7439728  54.2936325  47.7405853
  76.8129654  24.7137470  49.8168182  76.0757751  25.2873936  50.0258980
  77.3707504  25.2397671  49.2437439  40.8748016  49.0652580  16.9490852
  41.6005249  49.4363594  16.4472485  40.5808449  49.7822342  17.5110149
  85.2116928  66.4900818  27.6749916  84.6725311  67.2806473  27.6981487
  85.1893234  66.1585312  28.5726604  81.0082092  26.1667404  69.1587830
  80.7832413  25.7709484  70.0007858  81.9651184  26.1896133  69.1529236
  31.4395847  23.3256645   0.3672515  32.0689621  22.6092014   0.4497149
  31.8082218  23.8913937  -0.3111940  37.9771080  39.8843460   1.9456350
  37.2092018  39.4680290   1.5541904  37.6214485  40.6137886   2.4532299
  58.4175186  36.7914085  86.8254318  57.7389793  36.1704559  87.0904465
  59.2262001  36.4331055  87.1913376  80.5013733  13.7778521  26.8198891
  81.2494507  13.9487982  26.2477074  80.7972870  14.0496950  27.6886635
   4.4293318  68.8756256  34.4030571   3.6041048  69.0031204  34.8710060
   4.9316435  69.6704483  34.5824013  77.1001892  60.5349388   1.5777805
  76.1579056  60.5230904   1.7456981  77.4487381  61.1608810   2.2125568
  23.3517113  62.4068642  12.2007017  23.4661121  62.3785248  13.1506176
  24.1652050  62.7902069  11.8728189  80.1302795   1.8497962   2.3708472
  79.4104462   1.2587701   2.5916808  80.0160522   2.5964863   2.9587572
  19.8022919  64.8790665  12.4367886  20.0435658  65.7625122  12.7152681
  20.1456490  64.3089294  13.1247406  42.5639458  60.3187332  12.1386881
  42.9842911  59.9946365  11.3421307  42.1413040  61.1349182  11.8713923
  68.6932983  50.7218628  -0.0343491  68.2152252  50.9106026   0.7731499
  68.0516510  50.8614998  -0.7307842  38.5473289  39.6798630  84.2660446
  39.4905586  39.5319443  84.1976776  38.1567879  38.9834099  83.7381592
  43.5667229  16.0840530  20.8605804  43.9349251  15.2010965  20.8929424
  43.8453445  16.4287987  20.0121975  25.6205826  55.9733963  79.1033249
  25.8004379  55.6212502  78.2316132  25.8225384  55.2521515  79.6993484
  12.7449627  31.0963612   7.4423113  12.2582636  31.9205799   7.4379768
  13.4512491  31.2319450   6.8106403  34.6548309   4.2610955  12.3997717
  33.9589233   4.5623250  11.8156433  35.4505424   4.3111501  11.8700867
  42.7206535  68.0085144  81.9685364  43.5234222  68.3866882  82.3274002
  42.5690041  68.4938049  81.1575317   7.8755207  57.3744812  44.8784904
   7.5860319  56.5144081  44.5740204   8.5018730  57.1831017  45.5765495
  16.4860973  36.1609344  78.0772629  17.4363861  36.0728302  78.1508942
  16.1419983  35.3341446  78.4152679  55.9520035  20.7051678  31.3653965
  55.2147827  21.3135262  31.4167194  55.5454903  19.8403206  31.3104935
  21.3870525  30.8852463   1.7277242  21.7926598  31.6511555   2.1340430
  22.1034584  30.4533348   1.2624830  58.5896683  38.8634682  27.3020267
  57.7606163  39.2861633  27.5261612  59.1869659  39.5890083  27.1202068
  45.1549301  52.5848999  33.0062943  45.6436386  53.4078903  32.9974136
  44.2369652  52.8519478  33.0538597  71.4287262  38.0248451  25.9820156
  70.8401337  38.6211510  25.5191860  70.9530640  37.1947708  26.0128155
  39.4551125  31.0434380  64.0951691  40.3213348  31.1637707  63.7060509
  39.4124146  30.1094913  64.3004761  11.4192858  69.7775345  57.5959358
  11.2922440  69.9054642  56.6558685  11.1560688  70.6098404  57.9886436
  65.7669144  57.2078476  88.1947021  66.5436935  57.6949577  87.9198074
  65.3016968  57.8079643  88.7775116  60.7281609  44.6563454  11.7226248
  60.5955200  43.7183113  11.5857601  59.9978943  44.9225006  12.2812872
  17.2927437  50.6596451  11.3036976  17.8138657  50.0052414  10.8384867
  16.6013317  50.8983154  10.6862679  63.2844429   0.2778251  85.2941971
  63.7840919   0.6949326  85.9960480  62.4109726   0.6637670  85.3600082
   5.7466097  32.1746521  40.7705193   6.0390477  32.0081673  41.6666222
   6.0634699  31.4218426  40.2714119  42.8935165  68.2459717  24.0987339
  43.5682602  68.7423782  24.5619144  43.1269798  67.3294220  24.2459564
  18.1106148  66.3483963  85.2558289  18.7552090  66.6886902  84.6353989
  17.4852867  67.0643158  85.3683319  50.9231148  61.1959686  64.8723831
  50.6679192  62.0667076  65.1772156  50.0984039  60.7149239  64.8039551
  48.0959473  32.2716522  13.0248909  47.5231819  32.8336258  13.5467691
  48.8849831  32.1730537  13.5577402  56.2749023   7.0356851  59.8207359
  55.9207230   6.3133874  59.3020096  57.1491394   7.1834469  59.4600372
  15.5117178  40.3641968  12.6459236  16.0081882  40.2695389  11.8330336
  14.7924910  39.7382317  12.5615807  21.9180279  60.0596428  79.0243225
  21.9685001  60.0686493  78.0684967  22.2372570  59.1921463  79.2728577
  17.5200748  14.7801857  29.7502537  17.4260731  14.1601162  30.4733791
  17.0449505  15.5591974  30.0394402  39.3698959  30.3181343  58.3390808
  40.2612686  30.5925694  58.1237488  39.3714828  29.3706818  58.2028389
  52.2907104  66.3416672  18.0943851  51.7163734  65.7007751  18.5134697
  51.9836159  66.3823547  17.1886959  70.0706329  54.7294350  12.4357491
  70.4383163  53.9791603  12.9027929  70.6913757  54.8979225  11.7268591
  25.9994869   2.4442661  50.2125893  26.9055805   2.1820354  50.3752518
  25.7610149   1.9924284  49.4031410  75.9623413  40.3073044  25.3528233
  76.2423630  39.9945488  24.4925880  75.2863159  39.6866684  25.6249180
  50.3761253  52.0219917  48.2973022  50.9328575  52.7763672  48.4901810
  49.5614624  52.4030724  47.9696770  43.7639503  25.8507652  23.9237156
  43.7526550  25.6558342  22.9866428  43.0641747  26.4928398  24.0432415
   4.6664910  62.4528542  11.4929752   4.3670750  63.3505363  11.6370058
   3.9533410  62.0373802  11.0081749  20.8390312  33.4956512  82.8454437
  20.0802860  33.9026909  82.4272842  21.5931168  33.9399490  82.4579010
  77.9568710  54.1909370  18.0117931  77.5576630  53.9003181  18.8317966
  78.0985718  55.1296844  18.1338940  20.3113708  48.2876549  18.5481319
  21.0748100  48.1873093  17.9795170  19.5689678  48.3366356  17.9459095
  75.9792709  45.6680946  50.6804161  76.6553116  45.9297867  51.3054886
  76.4655304  45.3116188  49.9369736   5.5190296  57.5823975  74.4973526
   5.7184505  58.1989479  73.7928467   4.6121984  57.3210640  74.3373718
   6.7386813  48.5050316  15.8488426   7.6561055  48.4981117  16.1218185
   6.7727666  48.4602509  14.8932981  86.3730164  25.4678173  31.1758995
  85.6211929  25.3990211  30.5874615  86.1818619  24.8503838  31.8819218
  80.1246338   6.8921890  41.7679710  80.7398758   7.3031993  42.3752403
  80.5067596   6.0340481  41.5841064  68.7567368  53.2630577  27.7978249
  67.9412003  53.6971054  28.0482979  69.3193665  53.3478012  28.5675659
   6.4968867  55.4873581  76.1913986   6.0838003  55.8935318  75.4294128
   5.9586487  55.7656441  76.9324036   0.3612796  22.4338665  81.1104507
   1.2654072  22.6819439  81.3034363  -0.0056295  22.1866226  81.9592667
  48.0146751  69.9178314  32.4378777  47.9309082  69.5350418  33.3111992
  48.8045273  70.4562836  32.4871368   1.3148257  41.3032303  53.6331749
   1.2242094  42.0758247  54.1909523   1.7073474  40.6414490  54.2025642
   9.8834620  26.0251427  67.5285645  10.8021870  26.1021137  67.2711716
   9.6056890  25.1800804  67.1750946  32.4579811   2.8019731  64.6827774
  32.9255829   2.7505949  63.8491440  32.9894028   2.2844756  65.2877731
  58.3546257  19.9194050  57.9760704  57.7277451  20.5002556  57.5449448
  57.8288002  19.4223003  58.6026688  29.3316097  48.2237091  64.7913971
  28.7013702  48.5505257  65.4334412  28.8123646  47.6741638  64.2043533
  52.5565720  50.2331314  42.4280243  52.8206787  49.3967743  42.0446396
  51.6479111  50.3478470  42.1497955  40.2317505  10.4620647  66.2810593
  40.9967995  11.0272350  66.1737518  39.5653992  11.0314693  66.6657562
  30.3139477  37.9871979  82.1569824  30.5866127  37.5451851  82.9610367
  30.6499157  38.8788605  82.2480927  54.4071579  64.8799133   5.9286904
  53.6208992  64.3613586   5.7580142  54.9159431  64.8166275   5.1203804
  73.4941788  12.3638239  57.6261368  73.4755402  12.7774019  56.7630959
  74.1665726  11.6865301  57.5526886  17.6452656  46.4179268  52.5662193
  18.4254341  46.5564346  53.1032372  17.7878990  45.5670929  52.1515312
  76.2333221  64.7271805  56.3757019  76.1416092  65.1374664  55.5157700
  76.5262451  65.4355164  56.9490204  38.6542816  31.2255764  45.8825531
  38.2821236  30.6391315  45.2239113  37.9407120  31.8255081  46.0996552
  86.3406448   0.1709145  12.5196733  86.3381577  -0.0344141  13.4545889
  87.2140961   0.5260477  12.3547726  60.2346802  40.6498146  53.0299263
  60.5901794  41.5310440  52.9146614  59.3004074  40.7421379  52.8432770
  76.9602661  68.6882019  83.5420761  76.2184982  68.2385101  83.9467926
  77.2725906  69.2905197  84.2172852   7.4122686  55.4968147  21.0989552
   7.0344467  54.8327866  21.6756287   7.3404574  55.1209602  20.2215672
  50.6071281  57.3813324  34.5450859  51.0885353  56.5865211  34.3153954
  50.2543907  57.2041321  35.4170990  60.3161316  29.9931660  12.1130400
  60.9463768  30.5037365  12.6213083  60.3299332  29.1253242  12.5166359
  69.6534195   4.9521942  55.5282936  69.4013367   5.2756324  56.3932037
  68.8307953   4.9047985  55.0411873  78.1073914  71.1107788  85.1506195
  78.8722000  70.7141724  85.5677719  78.4728928  71.7455521  84.5344238
  40.3948402  40.9017258  57.4393959  39.6182404  41.2504921  57.8769875
  40.8345833  41.6728516  57.0813065  66.8149185  60.2417946  17.1620426
  67.2162094  60.2368622  18.0310516  65.9190063  60.5427666  17.3136387
   5.9022312   2.6228693  50.7130203   5.9493742   1.8360511  50.1699486
   6.8147430   2.8853390  50.8341179  62.8126183  36.2763748  84.0911713
  61.8661003  36.1508484  84.0235062  62.9703140  36.4099197  85.0257950
  55.2169342  48.2763596  32.0520973  54.7976265  48.2472153  32.9120750
  54.6298790  48.8108521  31.5173874  21.4723167  67.6543427  88.0805130
  21.6898308  66.9547806  87.4644547  22.1374359  68.3251038  87.9258194
  76.8369293  11.6362238  84.0138931  77.2732697  11.4019127  83.1947861
  77.1870346  12.4996605  84.2332916  83.7629395  69.9872055  24.8199100
  84.3820190  69.3632507  25.1989269  84.2172699  70.3409271  24.0552540
  46.9141273  40.8892517  35.1757851  46.7761803  40.0835953  35.6739006
  46.3758659  41.5424080  35.6228790  56.8809319  38.5918579  42.9726105
  56.5103569  39.2531204  42.3881111  56.6821823  37.7577438  42.5471916
  46.6973305  54.6396027  53.1566467  45.8889580  55.1009216  52.9331551
  46.4094162  53.8916817  53.6800461  66.8744049  10.8067074   2.6192007
  65.9988480  10.8958292   2.9956160  67.1991043   9.9742727   2.9624979
  66.2238617  55.5926018  54.2982941  66.7527084  55.1890221  54.9865341
  65.5344009  54.9530182  54.1199226  52.2179451   7.7337842  85.0017624
  52.6472054   8.3582458  85.5865860  52.3161392   6.8885713  85.4401779
  27.5895844  45.6235390  12.7168045  27.3949795  46.1078911  11.9144564
  26.9825954  44.8835335  12.7030449  59.4310341   5.4278321  88.0275269
  58.8330727   4.8573375  87.5446091  58.8612328   6.0746045  88.4437485
  54.1783791  37.3908768  68.3515015  54.5050812  38.2903481  68.3727646
  54.9292831  36.8571129  68.6112518  10.3234692  51.5492592  87.0245972
   9.5107489  51.5439949  87.5302582  10.6937876  50.6766319  87.1573181
  85.0455322  56.0726852  32.7947693  84.5751953  55.8205872  32.0001259
  84.3886032  56.5161781  33.3314133  22.1807747  60.9219437  76.0136719
  22.5080643  60.5793762  75.1819458  22.8589973  61.5312271  76.3052521
  62.6464081  62.4243431  68.4158325  63.5797005  62.2399406  68.3100433
  62.3655319  61.8413963  69.1211777  72.3238525  60.1647034   6.5180612
  72.2666855  59.4487724   7.1508369  71.6976318  60.8153915   6.8353767
  84.6232758  62.9253845  26.4758682  83.9707108  63.6256104  26.4668179
  84.1109924  62.1196861  26.4076958  69.6442108  52.6132126  51.5499611
  69.8927231  52.1611938  52.3562813  68.8408966  53.0820465  51.7760468
  86.2250977  13.8145571  82.3756561  86.6518021  14.5910263  82.7379379
  86.1157837  14.0132618  81.4457092   8.2584400   0.6264167  70.2750702
   8.9166889   0.0457414  69.8932953   8.0522041   0.2306859  71.1218872
  63.3930130  14.0059519  81.1262970  64.1694870  13.7309256  81.6138306
  63.5625305  13.7244530  80.2272644  65.7125244  44.5419617  82.4619522
  66.2877274  43.7816277  82.3767242  64.9432983  44.3203850  81.9371414
  54.1639519   9.5628672  42.7662697  54.6051483   9.4439106  41.9251823
  54.4555435   8.8213358  43.2966805  74.0191574  33.2793121  64.1549759
  73.2709885  33.1791725  64.7435760  74.1660690  32.4014435  63.8028526
  45.6417885  59.9123611  22.8691082  46.4174995  60.3146515  22.4783821
  45.9500313  59.0682030  23.1986732  85.7591553  31.3190327  44.2597198
  86.3465958  31.4836769  44.9973106  86.2609711  30.7497883  43.6763039
   1.6743928  21.8120499  73.7992020   1.8824921  21.9608841  74.7215805
   2.1208818  22.5205326  73.3355942  68.0524292  36.8431511  59.2235489
  68.8017960  36.2544022  59.1337700  67.7612381  36.9989204  58.3251228
  75.6155548   8.9626617   2.0228860  75.3488998   9.8555040   2.2418814
  76.5235977   9.0483170   1.7324562  29.5025425  34.6823196  83.9265671
  29.0834198  34.3197594  83.1461029  30.3256454  34.1996498  84.0025101
  38.1722679  21.0138283  13.9150238  37.8305817  20.2309475  14.3469753
  39.0282707  21.1560173  14.3190937  57.1583481  63.3015976   4.5220447
  57.5795326  64.1147232   4.8007197  57.8279533  62.8483849   4.0097370
  21.3163433  13.2267485  24.5015545  21.4684868  12.2819014  24.4829178
  22.0723114  13.6000614  24.0483646  65.4911652  47.4882736  81.6946106
  65.6666031  47.0775833  80.8479767  66.3239059  47.4353447  82.1636353
  16.9505882   6.5523787   2.5840023  17.6982613   5.9937062   2.3716283
  17.0728951   6.7756619   3.5067253  34.8597794  40.8547897  83.4527969
  35.3463783  41.6519241  83.2429504  34.1130981  41.1588211  83.9688034
  12.4328403  36.2380447   2.7814000  13.2177906  35.7221565   2.9656346
  12.5058098  36.4621582   1.8536712  58.1711159   0.6305658  25.6313591
  57.6165276   1.4102781  25.6046677  57.6519394  -0.0163929  26.1089897
   2.1664805  45.1337585  75.5010681   1.3278260  45.2418060  75.9496384
   2.1693566  45.8170738  74.8307648  58.2803497  33.3698845  28.1876926
  58.8320503  32.5911064  28.2609425  58.2018433  33.6930771  29.0852547
   6.8396101  16.9642410  74.1837692   7.0598168  17.3986511  73.3597412
   7.1221399  17.5785160  74.8613205  22.7964706  46.0103035  43.1038895
  22.5958652  45.6128616  42.2565231  22.1347542  46.6936646  43.2105827
  62.0889320  37.2772636  72.9818726  62.9897957  37.1930809  73.2942657
  62.1165848  36.9543190  72.0812149  82.4214935   3.3150558  20.4804268
  82.8136215   3.4344282  21.3454189  82.0803070   4.1793966  20.2507725
  43.6388893  47.5748711  30.3838139  43.8811188  46.8449554  30.9537106
  42.7375412  47.3860321  30.1227779  73.2890244  32.8857803  83.3090820
  73.4642563  33.7056961  83.7708893  73.7867126  32.9585075  82.4946747
  86.6783600  51.9853058  30.5571461  86.3734436  52.8261909  30.8979874
  86.8335495  52.1461983  29.6264153  29.4819279  67.1753006   7.2023287
  28.7978992  66.7558899   7.7242770  30.0978546  67.5212250   7.8482437
  49.4672432   6.4463124  14.1545868  50.3602409   6.3313775  14.4795113
  49.1875420   7.2876625  14.5153217   8.9920864  24.3735981  87.4417953
   8.3771963  24.8236485  88.0211105   8.8504343  23.4435272  87.6182480
  83.9704590  65.8890381  36.5259247  84.0021973  66.6077652  35.8945351
  84.8656616  65.5509567  36.5491714  58.4146118  37.0490952  17.1994781
  58.3693047  37.8141060  16.6259460  58.2568550  37.3978195  18.0768242
  85.9658661  14.8271828  87.1890945  85.9480972  14.2154112  86.4531250
  86.4044571  14.3454971  87.8904114  41.5329857  53.6221771  64.0560608
  40.6987648  54.0550690  63.8746452  42.1159973  53.9241943  63.3595581
  27.6662235   4.6013770  13.8943539  27.6006241   5.2679253  14.5781975
  27.9291592   5.0860372  13.1119213  21.0718575  25.5020370  10.8468771
  20.4441299  24.7801266  10.8146696  21.8643608  25.1139545  11.2177677
  18.8185043  25.6048527   8.1761017  18.7078037  24.9488640   7.4878740
  18.2747536  25.2889767   8.8977594  29.3893871  68.1818848  35.8483734
  30.1739044  67.6334991  35.8429909  29.6519337  68.9800415  35.3898468
  71.7176208  16.8250084  41.9610939  71.2670364  16.1925430  41.4014626
  71.5709991  17.6693153  41.5346184  10.1514492  53.8614082   3.5251148
   9.6905518  53.3188057   4.1649494   9.7173805  53.6717987   2.6933308
  12.9032335  27.9223232  78.0348587  13.0894966  27.9839954  77.0979843
  13.3773270  28.6581135  78.4222565  83.5484390  69.3022690  31.1710415
  83.3684235  68.3655701  31.0909119  82.8609467  69.6295242  31.7511158
  30.5621929  36.7191200  66.0363770  30.4453106  36.1072998  65.3095703
  30.8693123  36.1743279  66.7610168  65.6814194  53.5399132  43.0034485
  65.4809647  53.8526573  43.8856277  65.3764648  52.6326218  42.9959183
  82.3781738  25.2846508  88.9188690  82.4136505  25.9552040  89.6010208
  82.5527802  25.7599010  88.1065369  68.6808853  68.4057007  14.8179293
  68.0241318  69.0793228  14.6414719  68.1754608  67.5991669  14.9193697
  68.6388702  57.0819588  71.1426239  67.8313065  56.6762695  70.8272095
  68.5109863  57.1670876  72.0874176  82.0696182  18.2883053  32.9522476
  82.1310654  19.1575089  32.5560875  81.4972153  17.7966042  32.3633423
  23.7345791  40.0758629  72.6365128  23.6916256  40.6333427  73.4134293
  24.5258789  39.5518951  72.7611465  37.2582741  53.6344910  14.2782755
  37.3656006  53.7609787  15.2209911  36.5382195  53.0085602  14.2010422
  16.1803951  40.4607010  72.2391663  16.1567516  39.6819534  71.6830826
  15.4327679  40.9840317  71.9503555   0.0589034  20.0194283  27.0277729
   0.7658200  19.4883251  26.6611233   0.0243978  19.7680092  27.9507179
   6.7782254  42.0612984  82.5271225   6.2693415  41.4043541  83.0021973
   6.9067702  42.7681274  83.1596603  56.0980263  43.9707756  27.7998199
  56.3122330  44.1181870  26.8786163  55.4562607  43.2607269  27.7858410
  38.9194412   1.3975850  65.6487045  39.7690163   0.9667515  65.7427139
  38.6133003   1.1365165  64.7801743  68.6855469  65.8546295  75.2032089
  69.3537674  65.2069092  74.9792252  68.5470886  65.7405930  76.1434555
  54.2470894  12.1668100   6.1899548  54.9785843  12.1566334   6.8072395
  54.6134338  12.5451689   5.3906627  27.7042847  54.7410698   9.0459776
  27.2938232  55.6054115   9.0717840  28.1629086  54.6686287   9.8830252
  71.0431061  44.4205208  34.0204048  71.1354904  43.5295410  33.6829910
  71.1318359  44.3278160  34.9689636  70.7541199  44.8799744  66.6521301
  71.1723480  45.7161827  66.4470062  71.0259094  44.2961540  65.9439545
  39.3137627  37.0599937   2.3249407  39.3730087  37.4594994   3.1927648
  38.4082413  37.2101707   2.0534482  25.1265507   5.0638671   9.8921280
  25.1501637   4.5229001  10.6814499  26.0470924   5.2071714   9.6723518
  83.3619614   7.6731248  52.6898918  83.8538208   8.2101803  52.0687027
  83.6332169   7.9930229  53.5503082  74.2273254  27.0190926  49.7094612
  73.7632523  26.2294941  49.9876862  74.5952530  27.3777657  50.5170593
  82.8019333  66.5898666  51.1133614  82.7855530  67.5348969  50.9621162
  83.5169907  66.4593430  51.7361679  69.2778473  65.5177307  78.4002686
  69.1035385  66.4585114  78.4281998  69.4350281  65.2760620  79.3130264
  47.0715561  14.1989288  80.5236969  47.1627960  13.8399992  81.4063492
  46.3616371  13.6910887  80.1308289  41.0974045   5.2214880  74.3255920
  41.3104591   5.4791002  75.2225189  40.7996826   6.0299592  73.9085007
  64.0377350  35.9025612  18.1140957  63.2384567  35.9673767  18.6367664
  64.2481995  34.9687881  18.1131077  43.4954109   8.4489279   3.1348300
  43.1629410   8.7391357   2.2854342  42.7098274   8.2502556   3.6443565
  18.7677898  64.1561356  33.5888939  18.0843468  64.1250839  32.9194374
  18.5105457  63.4886627  34.2249298  84.0075150  26.3885250  73.2429352
  83.9096069  25.7212906  73.9222260  83.8119736  27.2133827  73.6874619
  65.3106689  10.7659798  68.8618240  65.3775787   9.8687782  69.1885986
  65.4262161  11.3130827  69.6387177  14.1748037  10.9745131  69.8720016
  14.2472849  10.0291433  70.0033646  13.2999325  11.1944246  70.1921158
  64.9814987  62.0229912  74.0198822  65.0046844  61.2198334  74.5401001
  64.0519485  62.1665154  73.8421936  74.3854141  15.6378527  50.7388496
  75.1245499  15.5005941  51.3313560  74.2634964  16.5871391  50.7239151
  45.7526855  40.7911491  40.7754211  45.7864189  41.7268448  40.5765114
  46.3790894  40.3948097  40.1698074  77.7453995  40.1708336  78.2731094
  77.5723877  39.4916687  78.9250565  77.4243774  40.9773598  78.6764603
  49.5041542  31.9998894  55.8886414  48.9848557  31.4668159  55.2866516
  50.3982544  31.6734982  55.7872200  43.4058762  66.2193756  63.0955009
  42.7600517  66.7929306  62.6829758  42.9360962  65.3991241  63.2462654
  61.8985367  38.2451935   4.7155271  61.3112144  37.5051003   4.5620914
  62.7097969  37.8460159   5.0297694  68.8976364  26.7317657  64.3960495
  68.5606079  25.9459972  63.9656868  68.9589767  26.4909458  65.3204269
  57.4030914   6.2758527  53.6300163  58.1234474   6.0583916  53.0383835
  57.7668533   6.9389648  54.2166939  43.0686836   9.2077866  68.2448196
  43.4461784   9.7461004  68.9404831  42.6950035   9.8388481  67.6297150
  85.1399155  19.5011063  34.9251289  85.1756897  19.2064495  35.8351440
  85.3260422  18.7151833  34.4114037  63.4412498  15.5309315  20.5306034
  63.7774048  14.8915520  19.9025707  63.2194099  15.0128775  21.3043213
  46.1124344  52.1495552  56.6064415  45.6872444  52.9481163  56.2938080
  45.3950081  51.5272675  56.7259712  38.1558456  62.4944267  67.5866013
  37.5266228  61.8227310  67.8495331  38.5320740  62.1639709  66.7708282
   6.6087899  10.7038965  80.9530716   7.4608269  10.3960438  80.6440582
   5.9915271  10.4148054  80.2810287  63.1798668  67.3228531  60.9557228
  63.9713020  66.8086166  61.1151619  62.4910011  66.8547668  61.4275131
  37.2023888  52.9858971  84.0765610  38.1297493  52.9422302  83.8434753
  36.7438774  52.9835396  83.2363281  26.7575741  52.7581215  34.4621086
  27.4091377  52.1614304  34.8304253  25.9264660  52.4657860  34.8363152
  57.8820190  49.8869972  76.8462830  58.6998672  49.3921356  76.7966232
  57.3038406  49.3412514  77.3793030  54.9609261   8.8954134  17.1262226
  54.0040054   8.9128971  17.1414375  55.1839714   7.9650230  17.1554699
  44.4497452  50.4277916  43.0872192  43.5983543  50.0642967  42.8438225
  45.0711517  49.7215767  42.9101753   1.1050935  49.6400414  56.5711060
   1.0248280  49.2246132  57.4297142   0.3408549  50.2131271  56.5099297
  84.5785599   2.9428794   7.5066171  83.8300400   2.4350133   7.1935368
  85.0919037   3.1231904   6.7190886   5.7334747  34.9616356  36.2334633
   6.3385878  35.4130478  35.6449890   5.4355130  35.6413040  36.8380280
  53.3170700  51.2152176   8.8941641  53.9440651  51.0370636   9.5951424
  53.7246742  51.9118423   8.3795700  83.0888519  12.6619730  23.9840107
  83.4585571  11.9176188  24.4588661  83.2700348  13.4170313  24.5437374
  38.4288826  17.8712883  11.9875660  37.7731667  17.2115803  11.7616205
  37.9523354  18.7010517  11.9625101  46.4959030  36.0507851  20.6535454
  45.6571808  36.4948082  20.7785168  46.6493187  36.0899391  19.7095318
  32.5427132  26.5911217   7.5242157  33.3066101  26.1763554   7.1233892
  32.9100113  27.2241364   8.1411562  75.3324203  15.8692312  35.3909950
  75.5562973  14.9553814  35.2149582  76.1116791  16.2294579  35.8143387
   9.9482317  51.3728981  27.4844265  10.5302963  51.0757523  28.1838093
  10.5273333  51.5175972  26.7361393  68.5239639  30.9677010  59.7729988
  68.3628998  31.5749092  59.0507889  68.7895279  30.1530628  59.3462982
  70.0682907  29.9962654  26.3207321  70.5309525  29.4288712  26.9373665
  70.3768692  30.8781338  26.5288620  38.8852844  47.2497749   4.2354126
  39.3284760  46.4556160   4.5339508  38.0574684  47.2571220   4.7159309
  62.1165466  10.4805155  43.8102074  62.6965942  11.1734495  44.1258354
  61.4132080  10.9450359  43.3565903  42.6202698  33.3372231  77.6430054
  43.0434151  34.1166725  77.2829514  42.9658508  32.6138763  77.1199570
  83.8629913  31.9128437  78.3504410  83.6966858  32.3405571  79.1904678
  83.4817810  32.5038567  77.7011261  72.2367096  34.2102242  57.8570900
  73.0299225  34.6858749  57.6105232  71.9829941  33.7397194  57.0630569
   9.9398184  29.2383156  88.6510239   9.8636007  28.7542000  89.4732437
   9.4499664  28.7135849  88.0178299  11.7266207  40.0004120  74.5246964
  11.4408941  39.0868759  74.5176392  12.5749750  39.9826050  74.9676514
  58.9821434   2.5551355  53.9252243  59.5627251   1.8365504  53.6746407
  58.8777237   3.0690551  53.1244659  52.6351814  58.9673615  12.9628229
  53.2415276  59.6938477  12.8186293  53.0265923  58.2316399  12.4919281
  83.0791550  63.9745407  78.4634781  82.2195663  64.1758118  78.8333817
  82.9023972  63.3169594  77.7907410  29.2115116  49.4077759  58.0350685
  30.0632381  49.8235016  58.1691055  29.4158497  48.4835243  57.8928223
  75.8401642   3.3673210  29.5940361  76.4894333   2.8996463  30.1193581
  75.3519745   2.6765394  29.1460133  80.0491791  15.8647003  42.0573235
  80.4999847  16.6912804  42.2298622  80.2075653  15.6947861  41.1287346
  27.4087963  26.2704754  15.3555279  26.4776859  26.1784115  15.1535645
  27.4785137  27.1259117  15.7793236  45.0810661   1.1199639  56.7049828
  45.4883499   0.6407460  55.9833870  44.1411781   0.9904601  56.5782089
  30.4029655  54.6731224  42.6353569  31.0543308  54.6458054  43.3362198
  29.5816536  54.4289436  43.0620346  37.1312561  59.7178307  48.2207718
  37.1637726  60.4095459  48.8816071  37.1401978  60.1844063  47.3850327
  29.6977615  62.4299469   2.9477496  29.7998047  62.7623177   2.0559258
  29.1530266  63.0836525   3.3861160  51.4923325  40.6447182  22.0859756
  51.6666145  41.3363190  21.4475842  51.4808159  39.8390961  21.5691814
  27.5204735  38.3079300  82.4719772  27.1630192  38.9404297  81.8487549
  28.3012218  37.9612236  82.0401611  18.7565155  18.3251038   9.1265945
  18.3915768  18.6598511   9.9457388  17.9937553  18.1758633   8.5678854
  56.1762886  44.9436417  17.3960590  56.2111549  44.9571648  16.4395905
  56.1707001  45.8669090  17.6486034  36.8273849  11.1560001  16.1543159
  36.0702477  11.1604414  15.5686903  37.1226120  10.2454720  16.1571980
  87.1124039  32.0173721   3.7318730  86.3616867  32.5691986   3.5124495
  86.7254486  31.1958904   4.0346432  19.1970711  70.3303909  79.0469971
  19.1354389  70.4655304  78.1013947  19.6192474  69.4763565  79.1398773
  76.9716644  18.7442322  54.0704269  77.2333908  18.4778023  54.9517593
  76.8358536  19.6894512  54.1363678  15.3410997  16.3261795   7.2130084
  14.9450417  16.7168407   6.4340644  15.4944820  17.0661755   7.8004704
  53.0019531  42.6493492  81.2931290  52.9327049  43.5508728  81.6072845
  53.7762222  42.3005981  81.7348328  31.2571278   0.7379060  74.0848007
  30.4057655   1.0574154  73.7859192  31.8340740   0.8511264  73.3294525
  55.8130760   8.4716387  84.0655899  55.5756874   9.0399446  83.3328476
  56.7301369   8.2474871  83.9075165  29.2906723   2.3106878  77.4638901
  29.1389523   3.0735948  76.9060516  28.5162525   2.2662499  78.0247192
  67.0057373  40.6859436  46.0412903  66.1560135  40.7303619  45.6028481
  67.0692062  39.7819862  46.3496056  86.3762665  70.9622803  43.2088852
  87.2853088  71.2125854  43.3738441  86.3731918  70.0080414  43.2839775
  62.9246788  36.3146591  49.3064079  61.9904747  36.4007225  49.4963760
  63.0248604  36.6792526  48.4270515  45.0627060   8.7459030  19.3676472
  45.1743240   9.6166162  18.9860287  44.1416512   8.5341387  19.2158394
   3.5214915  30.4787655  41.0065002   2.8244503  30.6544914  40.3744507
   4.2444286  31.0410748  40.7282867  62.9546318  57.2667122  28.1493587
  63.1686020  56.3666000  27.9039078  63.2263641  57.3364525  29.0645237
   1.1165620  58.4279938   8.5354834   1.5181637  59.2734833   8.3352385
   0.3293205  58.6486664   9.0332651  64.5508270  44.1489677  37.5881386
  64.2589798  43.2774506  37.3207054  65.3829956  44.2733841  37.1318092
  15.1900568  19.4096050  56.7393379  14.6994486  19.9137802  57.3884468
  16.1081028  19.5999966  56.9321404  10.5833740  43.0496902  15.8249741
  10.2157440  42.2047462  16.0841103  11.5069952  42.8664207  15.6530161
  74.0914307  21.6275406  73.0147781  73.3537827  21.0178490  72.9950790
  73.8646240  22.2558250  73.7003784  59.7466850  45.9919128  69.0509567
  59.4494171  45.4425468  68.3256607  58.9661255  46.4761353  69.3201981
  22.3757114   5.2197247  50.8544121  22.0817051   4.6681285  50.1294746
  23.3311901   5.1923714  50.8039665  24.5012321  64.3928909  30.3857212
  25.2807808  63.8774872  30.5928230  24.5846233  64.5888519  29.4525127
  12.7867680  18.3605022  80.2156906  13.7209845  18.4188099  80.4158783
  12.4166536  17.8606510  80.9432907  13.2317352  58.9467354  80.2124863
  13.3812199  59.8355103  79.8900604  13.9158859  58.4226189  79.7959900
  19.1120586  40.3755836  13.4559469  18.2619305  40.5280418  13.8685856
  19.7063770  40.2069283  14.1870909  81.6418610  21.7214031  63.7018013
  81.9086838  21.8433342  64.6129379  80.8712769  21.1557579  63.7515373
  29.3442230  49.0766106  11.5196791  29.3482475  48.3114929  10.9445162
  29.3815136  49.8245811  10.9235420  52.0145073  54.3937645  54.9314232
  51.0861969  54.4886131  54.7181778  52.0615540  54.5555153  55.8736801
  71.4414825  17.0097885  62.6861343  71.3581619  17.8661156  63.1056519
  70.5448608  16.6780624  62.6386986  54.3363113  33.4125099  57.4783669
  53.7022667  32.7004051  57.3939629  54.8157539  33.4057693  56.6499214
  74.8884811  50.8512039   7.2893729  74.9546585  51.7253571   7.6736999
  74.1633453  50.9170189   6.6680217   5.4184518  38.7388458   3.7340140
   5.4053879  37.8237038   4.0143256   5.1043587  38.7169724   2.8300788
  15.7651339   7.7194285  71.2311325  14.9033718   8.1055212  71.3877487
  15.7481556   6.8923783  71.7127228   3.2336590  40.1502419  42.4025230
   2.6349838  39.7239456  43.0157852   3.1529715  41.0836334  42.5987434
  27.3891907  36.1827469   2.7968750  26.5154800  36.5660362   2.7197080
  27.3353615  35.3629951   2.3056099   7.5285897   7.9823117  77.7550354
   7.5296874   8.5838442  77.0104675   6.6756773   7.5499320  77.7123718
  64.6480255  62.5958824  43.6932220  65.2900314  62.5879745  44.4031487
  63.9510345  63.1720543  44.0070114  27.4552402  63.5622711  50.7037811
  26.9453163  63.3325424  49.9269714  28.1477337  64.1354065  50.3748436
  84.5615692  58.7171021  55.4200020  84.1990051  59.4198341  54.8806076
  84.2121506  58.8826828  56.2956276  69.5300827  61.0144691  60.7118835
  69.7777481  60.7436180  61.5959282  70.3592453  61.2364655  60.2882767
  26.9321213  69.7576370   4.1723518  26.0647240  70.1434326   4.2949014
  27.0726757  69.7800751   3.2257931   8.1353903  31.1482430  62.7959328
   7.6053438  30.8100300  63.5176659   7.7949944  30.7033157  62.0197906
  82.8220673  62.5207825  42.9512672  82.0767517  62.2713509  43.4976349
  83.5671616  62.5296173  43.5520935  68.4900742  47.9636803  20.8689499
  68.7610703  47.1050797  21.1939011  69.2971497  48.4779434  20.8491726
  53.4578362  47.0763092  12.8411818  52.5622673  47.0792084  12.5032778
  53.4263306  47.6482430  13.6080770  63.7932510  31.8878155  62.6540794
  63.7868805  30.9565601  62.4328194  62.9290695  32.2028503  62.3891640
  55.2928200  37.7405243  58.5521698  54.9904823  37.2835846  59.3370476
  54.8339157  37.3084793  57.8317719  45.3125420  59.9314690  52.6081085
  44.7513618  59.1576462  52.6581535  46.0737534  59.7104034  53.1446915
   1.0738727  71.2524338  21.8752270   1.3735491  71.0760956  22.7670422
   1.2531334  72.1832047  21.7419548  49.1387215  62.8764610  12.4020576
  48.5073547  62.2045135  12.6591415  49.6317825  62.4796257  11.6839714
  59.4831200  57.2031860  66.5262222  59.2365036  57.1592674  65.6023788
  59.2044067  58.0746880  66.8073502  19.2228184  24.7076969   2.5717900
  19.9441166  25.2226849   2.2101970  18.6486950  24.5416603   1.8240969
   9.9309130  63.3855247  48.0477219   9.1932516  63.3186226  47.4414101
   9.9394455  62.5463333  48.5080605  61.9923096  61.9901733   9.2579622
  62.2198563  62.8978882   9.4592371  62.7419701  61.6593971   8.7631636
  71.1630402  26.4239388  88.2311783  71.9160767  26.9530125  87.9680176
  70.7398376  26.1830635  87.4071045  68.3994904  37.1611481  34.3914642
  67.6498413  37.7536545  34.3349266  68.5609818  36.8922424  33.4871178
  85.6548920   1.2987283  36.8803673  86.5821991   1.1322042  36.7112274
  85.6516724   1.9061614  37.6201286  41.8573761  36.6164474  71.9067383
  41.2687759  36.5680313  71.1534576  41.2861938  36.4951019  72.6651993
  38.0478477  22.1222916   7.5070953  37.5235100  21.5299644   6.9681611
  37.6625366  22.9857922   7.3583183  15.1187763  45.4318314  53.1138725
  15.9630041  45.8147812  52.8754196  14.7779140  45.0741272  52.2940636
  35.9211617  45.8430748  45.2347069  35.8310890  44.9470901  45.5592537
  36.8496437  46.0465279  45.3476601  51.8803558  32.8549652  44.5706825
  52.5611496  33.4913139  44.7893333  51.9204102  32.2093925  45.2762756
   5.2363739  57.1520576  81.0692978   4.5591769  57.3000793  81.7293930
   4.8387179  57.4432182  80.2487335  13.1025553  56.0634041  39.2604294
  13.5375147  55.6293831  38.5264893  12.4103518  55.4561005  39.5217094
  68.1213913  60.7394257   0.7960600  67.9208298  60.3783150   1.6595434
  68.2657623  61.6723595   0.9542420  44.9380226  46.4669456  87.6479187
  44.5037842  46.4783134  88.5008774  44.5135117  47.1681900  87.1536713
  32.1313477  32.8430786   3.2812636  31.3390255  33.3346024   3.0647779
  32.5879364  32.7446709   2.4457560  16.2073536  66.2328644  65.2333374
  16.5399399  66.6042023  64.4161987  16.9339581  66.3218460  65.8500748
  16.8235683  48.3628654  14.9303255  16.9273205  47.5658951  14.4104166
  17.5892448  48.8935890  14.7105417   5.0616117  39.5825500  53.4836578
   5.7425623  39.1832962  54.0250740   5.4380407  40.4161720  53.2015038
  81.0377426  52.8764153  60.3471069  80.2467728  52.3733902  60.5408936
  80.7148361  53.6939621  59.9681892  24.8248138  17.7348499  11.9011955
  25.5535831  18.3176632  12.1143961  24.7569580  17.7752934  10.9472599
  28.8238316  46.8291206  88.6895905  28.9738712  47.7730293  88.7420959
  29.4495087  46.4523659  89.3083115  71.0502853  39.4905701  73.2738647
  71.1755905  38.7026443  72.7449951  70.1370010  39.7358360  73.1255722
  23.7082634  35.0489731  67.4373703  23.1551399  34.6068039  68.0814056
  23.7266407  34.4533806  66.6882629  39.3886948  15.6278515  16.5393620
  39.2640038  16.4478016  17.0172405  40.3269005  15.6003265  16.3516407
  82.8314438  70.5641708  14.5144634  82.6166077  70.5340576  13.5821705
  83.1405640  71.4582748  14.6602592  36.9127197   9.8328438  75.8776855
  36.7125778  10.6865959  75.4939041  36.2409897   9.7082119  76.5481186
  29.7206573  32.2831497  85.6717300  30.5556049  31.9532890  85.3396301
  29.0592690  31.8339329  85.1454239  74.0452423  22.6729603  20.4999275
  73.2224426  22.2930527  20.8079967  74.7021332  22.0007572  20.6812248
  46.7551918  61.4104385  80.6108856  46.2772141  60.8283463  81.2015991
  46.0845718  61.9927902  80.2539978  16.1048775  47.6149178  80.7500458
  15.7917690  48.4118614  81.1779175  17.0160828  47.8050385  80.5269165
  22.7561436   1.4394280  19.1474190  23.5215626   1.0841610  19.5992508
  22.9377155   2.3759549  19.0688000  72.0896835  47.0603409  21.5433769
  71.4267654  46.5192795  21.1144028  71.8926163  47.9522934  21.2573433
  68.0949097  51.8440895   2.5662484  67.2014084  52.0534172   2.8384032
  68.4034729  52.6367378   2.1272404  45.0815620  61.8412247  31.3647594
  45.0145874  62.7718391  31.5785465  45.9222488  61.7587967  30.9145565
  74.2080765   8.9930868  20.2781067  74.5128098   9.8610706  20.0135880
  73.5828476   9.1631775  20.9826603   2.0454190  29.8754864  82.0203323
   1.3994993  29.3426895  82.4841766   2.1354344  30.6633587  82.5564194
  55.8089943  23.5306072  76.4953690  56.5279236  22.9689255  76.2057266
  56.1240501  24.4213028  76.3416443  52.0467339   6.1996746  52.5768318
  52.7465858   6.7267585  52.9623489  52.0982513   5.3609881  53.0352898
  79.8353500  63.2510757   9.7293224  79.5364685  64.1602859   9.7138081
  79.2740250  62.8254585  10.3773947  49.4515533   1.4722077   9.0470333
  49.7097664   2.0966444   8.3690691  49.1364136   0.7092534   8.5624504
  76.0217972  30.8651714  58.3903160  75.5830841  30.9855633  59.2324944
  75.3790970  31.1532650  57.7421074  60.9591026  58.0252762  32.8477516
  60.6839027  58.1798210  33.7514191  60.9362526  57.0733681  32.7498894
  74.7002487  39.4413795  88.3708191  75.3187180  38.8234673  87.9810638
  74.9947052  40.2995529  88.0657501  70.5557556  68.7210846  59.1093483
  70.2504425  67.8160400  59.0468369  71.0898285  68.8483963  58.3252602
  28.8696804  23.8580742  14.9693117  28.2792645  24.5819416  15.1782541
  29.4945221  23.8417511  15.6942530  49.1347427  39.5938950  81.2043533
  49.6694489  39.9551010  80.4973526  49.5319023  39.9375839  82.0045853
  13.5213127  68.7718430  88.9565125  13.8152075  69.0874176  88.1019516
  12.6689119  69.1878586  89.0852661  51.2126274  30.9008293  36.7714767
  51.5182152  31.0933743  37.6579132  50.4751511  31.4962139  36.6377563
  52.0079346  46.4643822   5.0362668  52.7389984  46.4505997   4.4185424
  52.3258362  45.9743385   5.7945714  57.1759529  53.0758629  75.9861832
  56.5470200  52.4461555  75.6338425  58.0318642  52.6950645  75.7896118
   9.4225760  22.4943924  84.1182785  10.1070786  22.9249859  84.6304092
   8.9868412  21.9132156  84.7416534  46.5863571  59.0217094  76.5668869
  46.5710678  59.8273849  77.0834961  47.4974251  58.9341125  76.2866821
  59.6756439   4.8424611  23.8816643  60.5480690   4.9461346  24.2616043
  59.6469002   3.9302244  23.5931683  82.1725845  69.6153183  75.1257401
  82.5045929  68.9091339  75.6800995  81.3124008  69.8223419  75.4910660
   6.1881289  59.8195496   8.3616838   6.0530515  59.0605202   7.7943587
   5.4936976  59.7551384   9.0173120  42.0942841  45.7904243  39.6228523
  41.2968140  45.6834564  39.1043587  41.9862251  45.1847801  40.3561668
  15.7749996  14.8107424  14.0585623  16.4184036  14.2876711  14.5367460
  16.0567360  14.7605562  13.1451416  65.8519897  14.1476736  65.1765366
  65.4210663  13.8238764  64.3855286  65.4473953  13.6531076  65.8892365
  60.0034332  48.1593971  12.3979864  60.7530060  47.6310577  12.1237001
  59.3397751  48.0001945  11.7268353  74.3589859  35.5971947  61.3524475
  73.6199799  35.0984612  61.0040665  74.2103271  36.4915695  61.0454903
  66.4215164  59.6880455  82.8710327  66.0140686  59.0058899  83.4047699
  65.7171173  60.0006599  82.3033066   9.9626389  14.4911547  85.7394333
   9.2446995  13.8652754  85.6441879  10.6421032  14.1680994  85.1476593
  65.9584351  20.0373325  43.8393555  65.4664459  20.8463612  43.6991539
  65.7309799  19.4859028  43.0907440  27.7510853  27.4791203  86.2700882
  28.0459957  28.0565987  86.9742050  26.8373260  27.7248974  86.1256256
  63.2636108  18.9911423  30.4900475  63.9948158  19.5271358  30.1830025
  62.4859390  19.4191589  30.1319141  76.3251801  27.7021694  11.0303555
  76.8070297  27.6764889  11.8570328  76.9646912  28.0138454  10.3899546
   0.4696364  49.8046913  48.9438515  -0.0421450  50.2672424  48.2802544
  -0.0008152  48.9820709  49.0787582  24.0884056  17.5573788   0.4122273
  24.1421719  18.2469788   1.0738856  24.4803963  16.7916203   0.8319773
  53.8961029  56.5292511  28.2341595  53.0344810  56.4821854  28.6484337
  54.5131340  56.3504562  28.9437637  46.8563538  61.6491394  71.8718414
  46.0870819  62.2169685  71.9168549  47.1037788  61.6538925  70.9471893
  18.6999817   8.6324358  23.1733856  18.4441185   7.7247009  23.0097313
  18.9190712   8.6553049  24.1048946   4.1867776  69.1867371  45.2523041
   3.3736100  68.8021317  44.9250908   4.4667087  68.5960541  45.9515686
   9.8744278  37.7181854  65.9903946   9.2380648  38.1011314  65.3865509
   9.9447222  38.3561211  66.7005539  12.1012430  23.0481892  12.0856152
  12.6095228  22.9395428  12.8894053  11.5861206  23.8413219  12.2333364
  84.2816620   6.2713943  74.7317886  84.5719070   6.9333339  75.3593521
  85.0737991   5.7767558  74.5218430  68.6138687  51.5633812  84.0996475
  69.0747833  52.1255302  84.7223663  68.0856323  50.9823418  84.6469955
  57.4092445  16.7354603  84.9971313  57.4029465  15.8827953  84.5622101
  56.7819824  17.2618141  84.5014191  47.8949509  58.6830902  46.8611641
  47.6343880  59.2967606  47.5480003  47.1025352  58.1784973  46.6775970
   6.5945415  36.0548096  54.8163261   7.0026560  35.3622017  55.3359108
   6.1261992  35.5897751  54.1230545  27.3285904  37.5531349  64.8746338
  27.1984921  37.7732391  65.7970581  27.5444908  38.3871841  64.4575272
  41.2585602  26.9796028   5.7184563  42.1627846  26.6881123   5.6016450
  41.0922623  26.8748341   6.6552596  26.4601536  66.7535324  42.2097321
  27.4038448  66.6973724  42.0596542  26.0973282  67.0070496  41.3610153
  40.8305626  29.4478912  14.1276283  40.2835693  29.0855675  13.4306688
  41.4544525  30.0136852  13.6727934  39.0489922   0.9057655  30.0100307
  39.4790192   0.0506991  29.9969883  39.5318031   1.4066706  30.6674671
  82.2073975  33.7263718  73.4852295  81.4271545  33.6821594  72.9325104
  82.9369888  33.5886803  72.8811035   5.1474586  21.9210129  27.9272747
   4.6539459  21.1164589  27.7679939   5.8589001  21.8962536  27.2873764
  77.1267242  24.1437912  43.1723785  77.4067307  24.9338264  42.7101364
  76.1931152  24.2792969  43.3344116  86.7207336  65.4165878  41.5494804
  86.0316772  65.1156158  40.9571533  86.8480148  66.3372726  41.3206482
  79.4215698  20.6525669  36.9859123  80.2437744  20.4109688  37.4123344
  78.9112091  19.8428669  36.9735641   9.5983229  63.4551468  36.7187195
   9.5011187  62.9574203  37.5305405   9.2166529  64.3106995  36.9151535
  64.4161606  23.3064919   1.1313375  63.8820381  22.8974419   1.8122387
  65.1423645  22.6972656   0.9982995  71.4207382  19.9432545  62.9862862
  71.6447067  20.8688278  63.0831604  70.8210678  19.7648430  63.7107162
  65.6697235  21.4420261  39.5716057  65.7015610  21.3724213  38.6174698
  65.4452744  22.3576145  39.7376022  80.3146667  67.8192444  86.5392380
  80.4176712  67.1533432  85.8593826  79.3801651  68.0263519  86.5320129
  75.6937332   4.9323111  85.2146301  75.7620544   4.0500026  85.5794525
  76.5942612   5.2565227  85.2016602  31.7185841  30.7624493  88.5376740
  31.3303947  29.9275799  88.7994690  31.2286701  31.0199566  87.7567062
  58.6327744  28.8173199  37.6755257  58.9745712  28.6753922  36.7927666
  58.8208313  29.7375393  37.8600960  32.2897186   0.5488039  79.9099960
  31.4446564   0.1373482  79.7288666  32.5389938   0.9586585  79.0816727
   3.8579741  33.0641556  68.1511765   4.6073694  32.6274834  67.7462616
   3.3955190  32.3658447  68.6145630  56.0846443  45.3683052  14.6873627
  56.7735443  46.0297585  14.7516203  55.8866425  45.3187714  13.7521753
  58.0573196  14.0722761  34.1374054  57.7355881  14.7508860  33.5439339
  58.0166512  14.4741030  35.0052261  71.0830536  43.5403175  64.1853638
  70.9385147  42.6204033  64.4069443  70.3993378  43.7431755  63.5469170
  61.4098434  40.0327377  14.5378628  61.1061325  40.0773582  15.4445057
  61.6246376  40.9378662  14.3124018  24.5876408  49.4016762  68.1311874
  24.1019421  49.1034851  67.3621521  24.5658684  50.3568382  68.0726929
  48.5021210  17.4296589  67.2610397  47.7825661  17.9832878  67.5643082
  48.0726891  16.7149067  66.7909851  14.5469780  41.9229927  74.5372086
  14.9106874  42.8083611  74.5288162  15.1992712  41.4005127  75.0038528
   0.7139480   8.8503733  40.4441910  -0.0437931   9.1648521  40.9373093
   0.7581875   9.4256086  39.6804008  40.9835205  47.4713478   2.4028604
  40.6436043  47.9463615   3.1611807  41.5830879  48.0881271   1.9829386
  11.9341993  14.2313290  22.4034519  12.1845360  14.4611683  23.2982903
  10.9778633  14.2719860  22.4043465  75.7372971  44.6413612  12.8270578
  75.6074066  45.5884247  12.7777023  75.4077148  44.3991852  13.6924820
  44.3405838  54.3778305  19.5830841  44.2148209  53.9917526  18.7162743
  45.0358810  53.8534012  19.9802780  25.3052654   7.5772576  23.8714218
  24.5820770   7.1191978  23.4431572  25.8970146   6.8797669  24.1535072
  58.9116516  53.9193039  32.0081367  59.2907104  54.4451790  32.7124100
  59.6667023  53.5309334  31.5662136   5.2809391  55.3205910  64.6592484
   6.0475044  55.6771774  64.2104111   5.2814198  55.7520943  65.5136719
   4.1902409   7.0858393  42.2021141   4.5400791   7.7058015  41.5621986
   3.2708402   6.9817891  41.9569435  68.3720322  61.9939842  83.2183151
  69.1988525  61.9985352  82.7360458  67.9888992  61.1375313  83.0287628
  53.8716736   0.5235559  66.4387207  53.0140343   0.9054114  66.6254730
  53.9719048  -0.1703987  67.0903397  67.0103302  41.9295959  10.1311216
  66.1030884  41.9232597  10.4362621  66.9526062  42.1965218   9.2137070
  56.2077293  45.5515175  37.8567238  57.1394348  45.3504562  37.9446602
  56.0892258  45.7350235  36.9247856  80.7155304  70.2566299  22.8697262
  80.8436508  69.9209518  23.7569332  80.6218948  71.2025146  22.9827194
   8.7631617  53.0577736  64.7894897   8.5737362  52.4391670  65.4949493
   9.0363693  53.8574333  65.2390747   2.0239110  21.8039150  12.0398121
   2.7627685  22.3098717  12.3779373   1.3549820  21.8723812  12.7210445
   9.8900499   6.6490021  64.1543274   9.6182642   6.1850824  63.3624001
   9.0770140   6.7928429  64.6385880  47.2339172  69.2575455  56.3254852
  47.2992401  68.3038635  56.3750458  47.6580582  69.5685501  57.1252403
  39.4384460  10.5574827  38.5923882  39.3385315   9.9458132  39.3218460
  38.7478638  10.3112183  37.9770126  59.9107170  28.2053719  65.8230820
  59.4186440  27.7894764  65.1151810  60.8257790  28.1381493  65.5503616
  84.3052979   3.3822870  81.0807343  83.9436035   3.2471120  80.2048721
  84.6759644   4.2643785  81.0532837  61.7653046  24.7103920  12.7481852
  61.0371590  24.3425789  12.2474403  61.6235428  25.6565304  12.7171946
  72.0763474  54.5332489  10.2769308  72.8951569  55.0238495  10.3482714
  72.0651169  54.2159996   9.3739042  24.3344879  70.9662781  21.2088127
  23.8767891  70.4447479  21.8681660  24.5293846  70.3463211  20.5060291
  12.7767763  64.2452621  78.0485992  12.8691006  63.3071404  78.2148590
  12.2018070  64.5569229  78.7475357  40.0616646  64.2053146  28.3823147
  39.3279762  63.8252296  28.8655033  40.5394363  63.4501419  28.0392723
  59.7612648  16.5848999  59.1287880  59.6691322  17.1663837  59.8835220
  58.9819908  16.0298004  59.1575737  85.5885925  25.2670441  40.7917976
  85.0901566  25.0062523  41.5662537  85.7909164  24.4431381  40.3485413
  62.0365028  40.1847572  72.6920395  61.8894005  39.2970657  72.3655319
  61.2464867  40.3900452  73.1920013  20.5392303  40.9275398  27.1615829
  21.0100994  41.6929321  27.4912605  20.1145573  40.5561829  27.9348736
  55.6331215  70.2216644  11.4186563  55.2091522  69.3832092  11.2357092
  56.0750122  70.4500961  10.6008635  24.0925369  65.6106949  78.7099609
  24.0477371  64.6821671  78.4818039  24.5281487  65.6271973  79.5621338
  45.5477676  33.9401436   1.9655519  45.4364243  34.4481659   2.7691348
  45.0675278  33.1280479   2.1271164  70.9867477  40.6093140  46.1571198
  70.4551697  40.4819450  46.9428902  71.0904694  41.5584641  46.0893784
  56.8913345  28.1033897   7.3500996  56.6666794  29.0085831   7.5654726
  57.8254280  28.0349503   7.5476298  29.4891739  53.0409355  89.3323746
  28.5866928  53.1363907  89.0279922  30.0225811  53.3572807  88.6032410
  61.6922798  51.8810768  14.2439394  61.1157722  51.5354118  13.5624809
  62.1630096  51.1144676  14.5709867  27.5988960  62.6292419  10.5979481
  26.9937477  62.7715302   9.8700867  28.4606056  62.5715065  10.1852093
  10.3690166   0.3006109  59.1549568  10.6381636   0.6386005  60.0090981
   9.5112000  -0.0936566  59.3128662  52.1378441  64.0973969  79.6287079
  51.9487877  64.9731979  79.2918625  51.4491730  63.5448112  79.2591019
  10.8147001  35.2396698  57.8816376  11.1529427  36.1254578  58.0127983
  11.5850258  34.7210655  57.6495209  45.3351402  43.2632256  43.6453476
  44.7723160  42.4925652  43.5709076  45.4276695  43.4020920  44.5878906
  38.7661896  60.3953056  72.0060425  38.8524818  59.8889313  71.1983490
  38.2208672  59.8502846  72.5733261  11.6756859   2.2314000  27.0356579
  11.2868090   3.0843768  27.2291451  12.4487858   2.1874452  27.5983448
  16.9492550  57.1874008  13.1400003  16.9567070  57.0192566  14.0822868
  16.0954418  57.5873375  12.9748154  81.8841324  50.4260216  69.0049057
  80.9972076  50.7852249  68.9812393  81.8580933  49.6836967  68.4011612
  19.3854408   5.0020738  14.7730122  19.3859501   4.4000120  14.0288668
  18.4740372   5.0213113  15.0649099  57.6329193  10.3733349  28.4024487
  57.7216644  10.7156010  29.2919502  57.5749130   9.4246120  28.5155487
   3.4537330  40.6168289  76.2985306   3.1887586  40.6941071  77.2150726
   3.8660307  41.4567871  76.0967712  17.2573910  39.1942329  86.6803741
  17.0513515  39.9123383  87.2787933  17.6589413  39.6209412  85.9234695
   6.2496328  66.0288391  41.8619270   6.1071115  66.9637375  41.7140045
   6.5172715  65.9695206  42.7790337  35.3545914  44.7060165  66.7139282
  35.2638283  43.7811546  66.9433365  35.6646118  45.1228943  67.5178757
  18.8282261  60.0389709   0.4393345  19.7221832  60.3580132   0.3157110
  18.3843842  60.7456894   0.9081514   9.5774879  21.6762009  68.9549713
   9.5034084  21.8638668  69.8906631   9.1163750  20.8452911  68.8401031
  47.5977249  58.0082550   0.5163080  47.3121605  57.4367332  -0.1964679
  47.2194710  58.8618011   0.3050959  64.7704468  34.3525810  71.9320221
  65.5026245  34.8495827  71.5671310  64.0040207  34.9034386  71.7727203
  40.2051201  63.5461311  50.7724686  40.3588295  62.7486572  51.2790718
  41.0795479  63.9025040  50.6155968  44.9851227  60.2641869  43.1237526
  45.3726082  60.5344353  42.2912560  44.4163094  59.5288811  42.8956909
   0.4572364  15.5215492  68.7594757   1.1681587  15.8877850  69.2854919
  -0.1618113  16.2443981  68.6570129   3.2838912  20.1185169  16.1501637
   3.1642113  19.2865658  16.6081657   2.9449658  19.9580154  15.2694817
  37.6328049  62.9849434  30.4048958  37.7328682  63.8199692  30.8620071
  37.9732628  62.3337784  31.0183315   5.2154331  50.5023308  17.5477352
   5.8170128  51.1749382  17.8670082   5.5764093  50.2406921  16.7006969
  73.2132339  39.3891411  34.6885071  72.7296906  39.2859497  33.8688965
  73.9926376  38.8447876  34.5769424  76.9910965  58.3974113  56.5801659
  77.0583344  59.2098122  56.0784531  76.4147568  58.6152916  57.3126869
  33.5921860  69.0281296  24.8532143  34.2095108  69.0839386  24.1238098
  33.6567116  68.1212921  25.1527462  15.9899797  18.3729286   8.9624643
  16.0507698  19.2736092   8.6441717  15.5429192  18.4465332   9.8056440
  83.7562637   2.6635864  18.2117081  84.3842163   1.9578329  18.3660603
  83.4508362   2.9077549  19.0853939  44.1909180  62.8711700  24.8279533
  43.8648033  61.9794273  24.7068119  45.1432953  62.7859802  24.7837334
   4.8174391  51.3641090  47.7380142   4.0225897  50.9080620  47.4614868
   4.8345594  51.2601013  48.6893959   7.5615330  30.7728672  27.6812057
   7.9201808  31.0814285  28.5133076   7.6604071  29.8214207  27.7158852
  79.9448318  45.2111664  62.3047676  80.1654663  45.7675781  61.5578041
  79.4861221  45.7937126  62.9101334  73.6312103  12.5203981  16.5292931
  73.3801346  12.4120607  17.4466019  74.2061844  13.2856627  16.5271244
  71.8901901  57.7860947  23.3910275  71.0858688  58.2464790  23.6304741
  71.5948334  57.0528107  22.8513107  27.2245293  69.5336151  55.7980080
  27.4269943  69.3101120  56.7064590  26.3849735  69.1065750  55.6276894
  42.4545708  33.8137321  72.2118149  42.4861679  34.5613480  71.6148987
  41.7516098  33.2623940  71.8681488  70.9197769  38.2557259   7.7727394
  70.0532532  37.8978882   7.9659214  70.7659760  39.1887665   7.6243811
   8.3328114   0.6345091  54.6126595   7.8197951   1.3158993  55.0471153
   8.3919573   0.9232430  53.7019615  75.9813995  39.3517838  61.5097504
  76.5049286  40.1290321  61.7047615  76.6256332  38.6571007  61.3733482
  42.9745827  61.2550507  36.7353210  43.6938477  61.1809273  37.3625298
  42.9116669  62.1925697  36.5527420   7.6416688  36.2593384  68.6716003
   7.7238784  36.3764000  67.7251511   6.8629217  35.7131424  68.7786331
  16.7657108  57.6728249  68.1104202  17.3046112  58.3037033  68.5877151
  15.8699446  57.9921265  68.2194290   3.6748397  53.6487122  20.2149239
   3.4822624  54.4628792  19.7498684   3.4000640  53.8169785  21.1162643
  65.0776901  54.9203606   2.7656534  65.6040497  54.4512863   2.1182339
  65.6864243  55.1049690   3.4809144  64.1439590   8.3860245   5.7706814
  64.0367889   8.6404781   4.8541660  64.3045197   7.4428797   5.7402043
   3.7237787  39.4808044  81.0662079   3.3438754  38.8602600  80.4442444
   3.7849278  40.3019676  80.5781708  60.1796722  64.1108017  68.4817047
  60.6948166  63.3110542  68.3755951  60.3504753  64.3880615  69.3818054
  14.6619749  44.9513588  74.3859711  13.9177523  45.3562851  73.9405518
  14.9049921  45.5797462  75.0658951  58.6473846  50.1421738  33.7092514
  58.1498337  50.7620239  34.2425995  58.3737450  50.3259048  32.8105888
  79.9393082  11.4052181  39.6894836  80.2805481  10.5509481  39.9540787
  80.2270050  12.0023909  40.3800278  26.0801201  57.3484192  13.9671431
  25.3682003  56.9452477  14.4639874  26.8294392  56.7702522  14.1102352
  61.6667786  15.9914503  39.5752716  61.2432594  16.8483753  39.6256828
  60.9517860  15.3811512  39.3948593   8.2788973  62.5230370  16.8495827
   7.9933925  63.2673378  16.3197403   9.1859503  62.3732147  16.5830517
  67.2133789  52.2697945  60.3120956  68.1015778  52.3698463  60.6546211
  67.0046997  53.1241798  59.9343262  13.6632710  26.1698017  18.3865070
  13.7488117  27.1206722  18.3175201  13.6862288  25.9948883  19.3273087
  81.0563507  60.6352196  25.7079563  81.9236069  60.6498871  25.3031292
  81.1901703  61.0183983  26.5748463  12.2634830  69.5925980  73.2534409
  11.3106537  69.5638199  73.3401566  12.5194216  68.6800995  73.1190109
  29.4378071  50.0289230  44.9840546  29.7737141  49.2157974  45.3611832
  29.8679466  50.0930824  44.1313553  75.8161774  40.1453705  84.4326324
  76.6057129  40.1234093  84.9733582  75.1996765  40.6821861  84.9306259
  44.1105194  10.9923334  83.7977142  44.3123360  10.5254440  82.9868469
  44.9637642  11.2620459  84.1375122  40.9887581  29.0046940  69.7789230
  41.8145752  29.4282894  70.0130692  40.7226448  29.4322300  68.9649048
  22.1043682  56.1095047  62.7720604  22.7205639  56.5430298  62.1816444
  22.4395294  55.2167091  62.8546066  74.5520554  10.7888460  46.4640732
  74.7691498  11.0107555  45.5586128  75.3759155  10.8925962  46.9402275
  45.0198898  43.7609787  65.4591293  45.8412323  43.8361855  65.9449005
  44.3385277  43.8479080  66.1257782  32.2160378   1.3763180  39.2419434
  32.4608192   2.2954633  39.3491135  31.8027649   1.3375196  38.3794250
  27.7271614   1.2403991  64.1950455  27.7929268   1.0326753  63.2629738
  26.8958645   0.8527606  64.4687500  28.1962051  21.3959751  72.7341614
  28.9085426  21.9288731  73.0874710  28.3745422  21.3501377  71.7948380
  75.7735291  42.0981827  35.7312508  75.1067429  41.5318489  36.1197052
  75.2755280  42.7652893  35.2588234  80.2695160  49.2767487  38.9181595
  81.1662827  48.9951019  39.0990219  79.8129807  48.4744759  38.6648445
  28.4271622   9.1772537  71.8871689  28.8008213   9.2248640  71.0072021
  28.5016575   8.2542095  72.1293945   7.6305847  23.8211193  75.9720535
   7.5242496  24.7001095  76.3357849   8.3388233  23.4332752  76.4860611
  26.0075054  49.7557526  60.4091187  25.7342854  50.3112450  61.1391945
  26.8928223  49.4746628  60.6402855  48.6532745  26.4888611  78.7373505
  48.8393936  25.5576401  78.8574371  49.2151718  26.9295578  79.3747559
  51.5857506  66.1160812  52.8614998  51.4254074  65.8088684  53.7537689
  51.8178596  67.0390320  52.9640465  69.6614685  52.9289474  24.6688175
  70.5693970  52.6394348  24.5788898  69.4479141  52.7657394  25.5875053
  79.0922089  64.9751205  21.2677841  79.6506577  65.6478653  20.8781929
  78.2188644  65.1589279  20.9217854  34.8794327  44.7375412  59.4165459
  34.9975204  45.6676598  59.2237587  35.3311310  44.6065063  60.2502289
  47.1703415   9.9067087  49.3319244  47.8306961  10.3775930  49.8402863
  47.6300659   9.6314249  48.5387611  16.5029182  36.1370316  80.9859009
  15.5797434  35.8911247  81.0451508  16.5670490  36.6317368  80.1689682
  45.9090652   4.1026201  29.5591469  46.5564728   4.4122729  30.1925564
  45.7007256   3.2131643  29.8449688  57.9480362  10.1848793  31.2014256
  58.2307014  10.7421722  31.9265156  58.6645927   9.5609140  31.0854740
   2.0030689  52.2197762  49.9349861   1.4549677  51.4967575  49.6299210
   1.3866478  52.9315834  50.1069946  52.6682205  33.0011673  79.0445633
  53.2064018  32.3828621  78.5503082  52.6953163  32.6761589  79.9444885
  65.1591110  33.0196419  13.5278578  64.7458267  33.2836227  12.7058220
  65.8487244  32.4103470  13.2643795  86.7297592   4.7551799  43.5610695
  86.7531204   4.2780938  44.3905754  86.6582031   4.0724254  42.8940201
  51.5413055  59.4057617  74.4361115  51.9514465  59.1602478  75.2654114
  51.5781136  60.3621864  74.4246063  64.6096344  51.0245705  10.9767733
  65.1781006  50.2686920  11.1241493  65.1902771  51.7809105  11.0606861
   3.0805027  22.9165611  59.7014656   2.9090869  22.7796364  60.6331863
   3.1504600  22.0336075  59.3385162  86.7488937  24.5306168  12.9477243
  86.1393280  24.0553894  12.3830824  87.2974014  25.0291309  12.3420362
   3.8387995  17.3740215  14.1956644   4.1221313  16.4973164  13.9361553
   4.2148061  17.4991245  15.0669851  79.5424271  56.0947571  28.0237522
  78.8529587  56.7443428  28.1612396  80.1551666  56.5192757  27.4232845
  54.3605957  15.4203281  23.7241554  54.0311317  14.5914812  24.0715714
  54.3024330  16.0288067  24.4607716  37.3381805  40.1332436  61.9748268
  36.8468857  39.5788345  61.3686180  36.8858719  40.0318565  62.8123055
   8.4493637  42.3189011  48.4136353   7.9008017  41.5577087  48.6030998
   9.2396240  42.1805229  48.9357224  57.3898392  58.0976257  76.8953247
  58.0350342  57.3905487  76.8968658  57.8118362  58.8079796  77.3785934
  28.8299465  66.1026535  46.8719139  28.9374599  66.5536957  47.7093124
  29.4174747  65.3491058  46.9285851  14.6255083   5.8500357   1.3792886
  14.8383722   4.9382567   1.1803423  15.2930164   6.1196685   2.0101316
  79.2005692  52.2120552  45.9794312  78.5398331  52.7215347  46.4485741
  79.3575363  52.7064285  45.1749535  55.2614098  70.8562393  43.4744568
  54.7614288  70.3044128  44.0759048  56.1681595  70.7712936  43.7691116
  25.9259243  23.4573536   7.5246301  25.9847355  22.7786198   6.8522496
  26.0924244  24.2746964   7.0550981  32.5708847  63.3931351  70.3687210
  32.7867737  64.1675720  70.8882065  32.9083214  63.5893059  69.4947205
  72.7244492  37.6282501  60.2192955  71.9790573  37.1435394  59.8647957
  72.3296432  38.3224373  60.7469940  20.6160259  28.2062321   2.4821784
  21.0868950  29.0371704   2.4184783  20.0162849  28.3266239   3.2184172
  50.4855042  34.7639503  32.2741470  51.3910828  35.0179482  32.0962486
  50.3783646  33.9269066  31.8223591  23.2690220  20.4556141  45.5982208
  22.7339001  20.3942127  46.3894920  23.4285755  19.5461826  45.3458176
   9.4106750  36.3084641  37.5276222  10.2020559  36.8445892  37.5777664
   9.5466022  35.6193733  38.1779404   4.2876101  56.2394638  23.1297321
   4.2959952  56.5757141  24.0258904   4.9169555  55.5182991  23.1386070
  76.9819946  28.9087105  42.7514229  77.1844406  29.6153946  43.3644867
  76.0267181  28.8489189  42.7618370   0.3971340   2.7690859  24.5579948
   1.2023430   2.5432293  24.0923138  -0.2752980   2.7907193  23.8771152
  31.9608173  15.6714277  73.7911148  31.5922832  16.3136597  74.3977127
  31.6942482  15.9795723  72.9249649  19.5300674  56.9608421  64.8564529
  19.3664875  56.9463387  63.9134407  19.3916569  57.8735428  65.1095428
  82.1773911  61.1990356  29.0567570  82.1064682  60.3598938  29.5117779
  81.3271637  61.6174355  29.1919956  25.4166222  13.7271299  68.1886444
  24.7186813  14.3055086  67.8810883  25.2815666  12.9113607  67.7064514
  76.2953262  15.2460537   1.9808447  75.6970444  15.5725775   1.3087810
  76.5763321  16.0300255   2.4527123  20.8423710   9.5999928  14.0297709
  20.3990307   9.0400467  13.3924789  20.4101067   9.4052706  14.8613129
  15.8672028  60.4239616  11.0400610  15.7169991  59.5416412  11.3794413
  16.4158173  60.8449707  11.7018814  10.8581228  54.2371216  59.8580933
  11.3157549  53.5184021  59.4219208  10.9748735  54.9855728  59.2729225
  76.6611633  67.1790390  50.7941933  76.9198074  66.3551254  51.2071114
  77.4823761  67.5580597  50.4808540  43.1962090   6.9593449  72.7463303
  43.5001755   7.2795753  73.5956192  42.7058678   7.6929131  72.3752899
  39.0681725  67.1117477  34.9486465  39.4841805  67.8750076  35.3494034
  39.1424980  67.2654037  34.0067863  68.1076965  10.6036196  79.9812088
  68.8807907  10.9455118  79.5321426  67.9325333  11.2398520  80.6745758
  67.8547211  39.5834579  59.4900131  68.2558365  38.7973289  59.1194191
  67.0196152  39.6660500  59.0295639  55.3665237  16.3537750  21.4326611
  54.9823227  15.9972916  22.2336216  56.1568298  15.8320236  21.2933025
  47.7232094  39.6719055  84.6726761  47.5752068  40.5051842  85.1198578
  47.2043762  39.7349777  83.8707581  21.8952065  20.1187725  47.8926811
  22.3287430  20.3657093  48.7095642  21.9617004  19.1642780  47.8652725
  34.5257263  15.0364456   9.8124275  35.4351540  15.3319569   9.8553782
  34.5476303  14.1432915  10.1559782  48.5071754  70.9786072  85.0770340
  48.6232376  71.8485489  85.4590912  49.3112030  70.8258209  84.5806122
  51.5532379  46.3479424  54.5618935  52.2568665  46.0827675  53.9695892
  50.8514023  46.6444588  53.9824638  30.7060127  56.7334099   1.0780334
  30.0242100  56.4009628   1.6618633  30.4640274  57.6463852   0.9226289
  79.5682526  30.0550880  12.1729412  80.2309113  29.6477375  12.7307720
  79.0423431  29.3226089  11.8518114  56.8216019  26.8759060  46.6515694
  57.3958244  27.5275898  47.0538216  57.3056107  26.5714607  45.8839226
  53.4422073  24.4578152  73.2892838  52.5045471  24.3257236  73.1493683
  53.6881638  23.7803211  73.9191589   0.8645450   5.7430005   8.3416576
   0.4481422   6.1876235   9.0800009   1.2097808   6.4518938   7.7989655
   0.3595227  41.9053802  39.6250381   0.3369492  41.0900192  40.1259460
  -0.3418056  41.8100739  38.9806099  24.7954445  22.8190002  42.3126526
  25.5404987  23.3950005  42.1413307  24.0930576  23.1659145  41.7626228
  49.0703316   7.1760268  43.9598236  48.9837036   6.9705310  43.0289650
  48.5657349   6.4943290  44.4035645  69.3545074  48.8362312  11.2176857
  69.7326660  49.7154236  11.2019587  68.9003983  48.7858353  12.0588017
  60.9430542  39.1977310  31.4224663  60.6545486  38.3172455  31.1821766
  60.4319382  39.7792091  30.8595505  66.0312271  31.0218201  24.6317997
  66.4513702  31.6699543  25.1971588  66.3979492  30.1839867  24.9142570
  42.2606163  65.5940018  29.8817062  41.7259636  65.4096375  29.1094456
  42.1818771  66.5396423  30.0073357  85.2355576  32.7727776  26.4527588
  86.0115662  32.2159576  26.3894978  85.2208328  33.2577362  25.6276360
  20.5450153  43.0002403  36.6954994  21.1323757  42.2444611  36.6895981
  19.6940212  42.6402779  36.9454308  56.3995476  55.0790901  32.5792656
  57.0928574  54.4193802  32.5608521  56.7370834  55.7652626  33.1549988
   8.9362154  21.1070251  77.7048721   9.2698336  20.6849842  78.4965897
   9.5740690  21.7944412  77.5129623  45.9381027  14.6110210  19.3167553
  46.1008377  13.6753559  19.4362583  45.3373909  14.6565628  18.5729122
  39.3688202  50.6743317  55.4786720  39.0855179  49.8112793  55.1768227
  40.2299347  50.7970543  55.0791016   4.9229808  36.0867767  81.9591827
   5.0408859  35.4572601  81.2478180   5.5540338  36.7815285  81.7712402
  72.6990662  67.6830826  63.0583725  72.1114426  67.2984924  63.7087746
  72.1303558  67.8976135  62.3189278   8.5195713  56.7173386   2.3579781
   9.1149292  57.0400658   1.6814952   9.0796757  56.2161789   2.9507277
  68.3979874  42.3224335   1.5363039  67.5178452  42.0460625   1.7916424
  68.3275146  43.2700729   1.4212190  57.8723488   6.4091301  10.7397699
  56.9532547   6.3637586  11.0032892  58.2551498   7.0685520  11.3184385
  55.6267395  10.8777857  51.1005783  55.2042084  11.1629152  50.2903938
  55.0439339  11.1841927  51.7953339  60.2436142  64.0307312   1.6129119
  60.5412560  63.1691856   1.3207144  59.7545280  63.8552284   2.4167917
  15.5051680  53.4400864  32.6527328  15.2499123  54.3538322  32.5256729
  16.3474388  53.3621712  32.2046890  56.2668495  29.3132629  19.3962593
  55.3527374  29.2139435  19.1302414  56.4548912  30.2425804  19.2649498
   9.0691452  59.6338348   9.6227722   9.2742434  59.1971207  10.4494801
   8.1671124  59.3758774   9.4329691  53.7823143   7.1726217  72.2209625
  53.8622246   7.8441181  71.5435104  52.8902054   7.2725587  72.5531998
  86.0771561  70.8844910  74.9864807  86.2600021  70.1186218  74.4421997
  86.9078217  71.3589935  75.0190735  69.7922974  54.0846825   5.1415386
  69.5922775  53.1539192   5.0420036  70.4420547  54.2640457   4.4619222
  82.7583542  60.1438484  34.4915199  82.0999451  60.2086067  35.1832809
  82.4081879  59.4884148  33.8881760  51.0347977  35.6984863  39.1195984
  50.5642204  35.7820702  39.9489365  51.5371590  34.8887215  39.2098160
   5.4543152  33.3641548  81.2268982   5.4837117  33.0055618  80.3398972
   5.3056998  32.6031151  81.7881088  58.3618851  42.1626167  57.1089058
  57.5650978  42.5434914  56.7397194  58.3555489  41.2544250  56.8066216
  13.0979004  50.3896255  34.8221703  13.0029545  51.3203392  34.6197128
  12.5250502  50.2488365  35.5759964  22.2042542   9.4026814  52.2132988
  22.4888287   8.5195656  51.9780197  22.1686039   9.8727436  51.3802338
  50.7544746  67.0149384  61.2073860  50.4518433  66.1274109  61.3995857
  49.9522743  67.5123367  61.0483170   1.9651392  69.3431320  35.4758720
   1.8352337  70.1915588  35.8995667   1.3782845  69.3605881  34.7198792
  54.3205109  15.7737217  81.9019394  53.8607712  15.5031471  81.1071701
  54.6965218  16.6262283  81.6826706  65.4118042  17.6476727  11.6945143
  66.1151657  17.6152668  12.3429489  65.8397369  17.4316921  10.8659849
  77.5235291   2.7678733  26.1942310  76.7418518   3.3123138  26.2880154
  78.2538300   3.3812504  26.2758331  12.6479416  19.0681267  59.1321869
  12.8882561  19.9452190  58.8335381  11.6987419  19.0271435  59.0156860
  24.6954365  55.1544724  88.2467575  24.6539192  54.2395859  88.5251312
  25.6253128  55.3135643  88.0847321  58.8309860   5.5848565  46.9249229
  59.7278061   5.8323550  47.1500702  58.3187599   6.3797612  47.0731773
   9.8078995  20.2917042  81.3763809   9.4489679  21.1230335  81.6866913
   9.0535641  19.8240471  81.0179062  36.1359253  60.1605110  87.2147827
  35.8858719  60.8302574  87.8512878  35.8786888  59.3339500  87.6232605
  80.5736389  43.2024345  87.8279190  81.3571167  43.3936996  88.3434906
  80.9054108  42.7791023  87.0361176  64.9118195  69.2981567  36.7824364
  65.0758972  69.7978668  35.9826851  64.4189835  68.5317917  36.4891434
  17.3143425  63.9175987  53.3565750  17.6187134  63.0252304  53.5217171
  16.5531769  64.0205917  53.9277573  64.3316650  22.3895607  50.6135254
  64.1750946  21.4481201  50.5399780  64.1597061  22.7302570  49.7356911
   2.8166306  12.0413799  87.3270493   2.2909796  11.2524710  87.4595108
   3.6730855  11.8230276  87.6945267  85.3103790   4.0422773  31.9748001
  84.8425674   4.8773022  31.9856529  85.4643784   3.8660634  31.0466499
  48.0438957  10.1179667  83.9199982  47.8066254   9.2359791  84.2064133
  48.3815231   9.9988003  83.0322876  69.1436005  11.6048021  58.4738045
  69.7219009  12.2813025  58.1214600  68.6127396  12.0601025  59.1273499
   7.4934731  37.9333916   7.2193880   7.0610318  37.1602669   7.5820246
   7.5840034  37.7414856   6.2860031  62.7479401  45.8106689  68.2707825
  63.6092110  45.5517540  67.9430466  62.2490883  44.9944229  68.3041992
  76.5269852  31.9247875  68.8628998  76.9222946  32.3311615  68.0916519
  75.7943649  32.4986115  69.0869980  36.7194252  26.6325569  44.9493523
  37.5098877  27.0088501  44.5623055  37.0403481  25.9275799  45.5117149
   3.0790539  41.7538948  39.3616409   2.2332022  42.0672264  39.6819344
   2.9377077  40.8244133  39.1818695  80.3419113  58.0910873  17.9008503
  80.0207443  57.2113686  18.0987892  80.6814880  58.0268784  17.0082169
  62.9405174  21.7853355  15.9588890  63.2894096  22.6160221  15.6356783
  63.4279480  21.6185150  16.7656212  20.1980801  48.5286522  39.6822510
  21.0367222  48.0700264  39.6315193  19.6252670  47.9283066  40.1594353
  18.5082684   8.5123091  65.5932236  18.5520382   9.4384022  65.3551788
  18.8220882   8.4822378  66.4970169  16.6600056  70.4354858  48.8594742
  17.1480236  71.1904907  48.5307884  16.0320492  70.2355118  48.1652718
  70.8202820  20.1163101  12.2867899  71.1856232  20.8793507  11.8389816
  71.5840607  19.6476421  12.6232815  23.8744984  37.7582016   6.9548383
  23.0997887  38.2891159   7.1397276  24.1125450  37.9866486   6.0562963
  10.3055840  33.9729996  16.9939499   9.8987722  33.3350182  16.4076805
  11.2259302  33.7124252  17.0299320  49.2439079  26.9944954   2.2036901
  50.0695419  26.7622585   2.6286912  49.0369110  27.8655300   2.5423429
  21.3465710  71.6748962   2.6526473  22.2067108  71.4128418   2.9808567
  20.8146667  70.8815079   2.7146261  10.4226694  42.5113258  50.2301979
  10.0374432  43.3875771  50.2260056  10.6208830  42.3412361  51.1510735
  84.9600677  56.0704269  13.6932459  84.9883118  56.1777000  14.6439972
  84.7211456  56.9359474  13.3615503  68.6888504  62.7164993  85.9084320
  68.7417755  62.8518982  84.9623413  69.2869339  63.3665047  86.2772369
  68.0368347   2.4293394  44.4331589  67.4266968   3.0428092  44.0237541
  67.7121048   2.3299041  45.3280869  46.0957718  12.0704546  85.4875641
  45.7691231  12.7032089  86.1272202  46.8239975  11.6355925  85.9312057
  68.7464523  68.4758224  46.4243622  68.8879929  69.3791046  46.7076912
  69.6135864  68.0727386  46.4670601  15.8476295  42.9323273  47.3931694
  16.4955254  42.6933899  48.0560188  15.0114889  42.9164200  47.8588409
  83.0341263  18.1884403  27.2815456  83.4358139  17.3591232  27.0224838
  83.3517532  18.3407040  28.1715794  12.7512388  45.2734222  65.3540115
  11.8175974  45.2906761  65.1436615  13.1465902  44.7630539  64.6472931
  73.3416214  66.8245621  14.3294001  73.0810242  67.7444687  14.2836237
  73.5496979  66.5892868  13.4251966  26.0867348  40.3940697  31.0535564
  25.5879421  39.6334686  31.3517551  25.5010624  41.1369171  31.1998367
  59.5673294   2.3459160  23.3996468  59.9361458   1.9066471  22.6333256
  59.4302711   1.6436117  24.0354271  50.6906929  48.4900627  22.5394764
  51.3588524  49.0789986  22.8901215  50.0277519  48.4427795  23.2283192
  54.1544342  45.0006294  77.5444183  54.6978340  45.4456863  78.1947098
  53.9315376  44.1633148  77.9511871  41.3881454  48.9875221  51.4297867
  40.7806282  48.2533646  51.3394241  42.0475235  48.6777458  52.0506668
  38.1437302  26.0925808   1.3990835  38.0539894  27.0376434   1.2764655
  38.2048149  25.9788513   2.3475382  12.6850023  71.6308975  84.8474655
  12.4242449  70.7099991  84.8339767  13.4941864  71.6582031  84.3368683
  32.3017197  59.5632362   6.5294933  32.4947014  58.7380295   6.9744897
  33.1248589  60.0507393   6.5613604  74.4152145  48.0506935  28.3058624
  73.5513077  48.4306488  28.4656620  74.9988785  48.5255394  28.8975468
  73.0452347   8.4214315  54.7270432  73.1861115   7.4756145  54.6844292
  72.1798782   8.5170088  55.1248512  49.3468246  53.7139740   4.3957658
  50.2886124  53.8712158   4.3283720  49.1716995  53.0285187   3.7510056
  13.5481701  43.4100227  63.4162140  13.1409321  43.6484871  62.5834351
  14.3968601  43.0414963  63.1709671  52.6070175  22.1006889  68.9467850
  53.1167946  22.1627216  69.7545700  53.2636299  22.0692272  68.2510147
  56.2013168  69.3570633  41.0107651  56.4351616  69.8813477  41.7767105
  56.5957680  68.5009155  41.1770515  82.1556625  26.8735409  86.4738541
  82.3979568  27.3672390  85.6904068  81.7946625  26.0531616  86.1378632
  55.5504150  34.6237335  15.1671638  56.4944801  34.6647530  15.3197832
  55.3722267  33.6953735  15.0167389  46.1228142  48.0417366  42.5081749
  45.9944611  48.0179443  43.4564323  46.0247231  47.1310310  42.2302780
  50.9082451  54.3832550  24.0130577  50.9404602  55.3330307  23.8985004
  51.5718269  54.0467300  23.4108601  75.4240112   3.0819755  81.5299683
  75.8608170   3.6625967  80.9068222  74.5177841   3.3895626  81.5492401
  81.0629120  23.1945858  46.2635612  81.8410873  22.7819309  45.8888626
  80.4823837  23.3346748  45.5155029  50.8934937  68.8822479  74.0030136
  51.1649017  67.9691315  74.0967178  51.4036942  69.3526306  74.6623001
  22.9068050  36.0064087   2.0908601  22.3148861  36.3778687   1.4367332
  23.5109367  35.4622993   1.5856829  53.7594948   8.6782475  76.9860535
  54.2002335   8.2868309  76.2318802  54.1480370   9.5494804  77.0649338
  19.2593346  43.9783058   0.6213088  18.6549473  43.2971535   0.9162302
  18.7222061  44.5573235   0.0805097  48.3902893  22.5872440   2.1075196
  48.1227570  23.5060673   2.0869849  48.2513771  22.2772808   1.2126127
  22.3068886  44.9808540  82.4650879  22.3571568  45.9174347  82.6561813
  21.3779545  44.8196564  82.2997665  15.3575459  57.5808334  78.8940582
  15.9126616  58.0527840  78.2733002  14.9881229  56.8595467  78.3846436
  27.5477180   6.9173522  88.9214859  27.1582813   7.7793202  88.7745819
  27.7541466   6.5951076  88.0441208  15.5149221  45.0040359   9.5182066
  16.3082542  45.2354279   9.0351820  14.8450193  45.5960503   9.1761827
  77.7203522   6.5897036   5.2625623  77.5635681   5.7990050   5.7787461
  76.9277649   7.1134090   5.3798976   8.9447155  45.8728752  45.2721977
   9.7797089  46.3234024  45.1455421   8.2881994  46.5679588  45.2266312
  69.6675339  71.4733429  49.4681282  70.5291443  71.8567505  49.6319847
  69.6303787  70.7116470  50.0466309  77.1960068  16.9696007  88.0964661
  77.0031281  17.9065380  88.1307983  76.3617630  16.5457878  88.2981110
  45.0092468  23.7604713  32.5225487  45.7033005  23.9937534  31.9060249
  44.2181587  23.7127190  31.9857693  80.5686035  16.7157307  25.8909626
  81.0565720  16.1477928  26.4872532  80.9818268  17.5739269  25.9857159
  25.7697258  61.6509819  52.2442055  26.0889549  61.0202370  51.5988464
  25.6217976  62.4527397  51.7426720  21.8007259  41.4973946  88.9339981
  22.4484959  41.7806969  88.2887344  20.9564819  41.6958771  88.5289154
  23.6198330  27.2257557  11.7944593  22.7695599  27.5726643  12.0644989
  23.8963013  27.7990398  11.0795164  84.0985107  42.2037048  82.2247849
  83.1593704  42.0743523  82.3571014  84.3483124  41.5231171  81.5997772
  73.3757553  10.8584213  33.0718842  72.7384567  10.8069849  32.3595352
  74.2217941  10.7172213  32.6470222  86.0105438  63.8978882  38.3153114
  86.8639603  63.7773781  38.7317123  85.8798904  63.1007271  37.8017998
  85.6333771  44.9312401  68.1834183  85.2916718  45.6600761  68.7013702
  86.5210114  44.7968445  68.5154953  74.1320648  17.9513035   9.9734602
  73.4778442  18.4269352   9.4616051  74.9704361  18.3122349   9.6851912
  52.8164177  31.0465946  16.8680840  51.8771973  31.0475121  17.0527458
  52.9949074  30.1657276  16.5387707  71.0496445  57.6392136  55.7826347
  71.9784012  57.7948914  55.6111412  70.8555832  58.1730194  56.5531044
  72.7199631  42.1432457  30.3171120  72.1914520  42.7482605  29.7966728
  73.3064728  41.7310410  29.6828194  70.9297333  17.6862679  52.6572342
  70.8391953  17.3893375  53.5626984  70.0377350  17.6723709  52.3102875
  58.7823257  69.5614166  81.2112885  57.9624596  69.0887985  81.3551025
  59.2304878  69.5262146  82.0563583  84.3499298  56.1456909  53.5537338
  83.4938812  56.2521095  53.9685631  84.8294830  56.9406548  53.7867432
  82.5085831  33.6587791  70.4970245  82.1765976  32.9324379  69.9693375
  81.8904037  34.3721771  70.3384247  29.4547558  27.0302353  67.2250137
  29.9039917  26.1918297  67.3322449  28.6583061  26.8148613  66.7397156
   8.8210773   9.2614794  87.0317459   8.4133034   9.4773970  87.8703918
   9.7538223   9.1833305  87.2320251  12.3495417  21.1114330   9.8826351
  11.6163683  21.2361412   9.2800264  12.1167564  21.6290531  10.6534224
  40.3540955  39.9629021   6.1538658  40.6367416  40.6351891   6.7738433
  41.1376534  39.7657509   5.6406422  51.1568375  30.1260605   7.7828217
  51.1809273  29.2289658   8.1157942  50.4277191  30.1318607   7.1626701
  32.6670609  15.7879858  15.1412773  33.0625305  16.0867825  14.3224030
  33.3387299  15.9483299  15.8041353   7.1805763  51.3248405  84.7740250
   8.0236330  50.8773766  84.7014694   6.7880650  51.2385406  83.9052811
  32.7678795  35.9636803  74.2534561  32.3699493  35.1147461  74.0606003
  32.3382568  36.5717773  73.6518936  63.9552841  20.2098503  11.8727703
  63.5165520  20.0380955  12.7059832  64.7074966  19.6178970  11.8716755
  63.8182602   7.2512460  40.4118919  63.7769241   7.7430882  39.5917625
  64.0411987   7.9064503  41.0731316  71.3868866  32.6553879  55.8145180
  71.2549973  32.9004822  54.8986778  71.2066345  31.7156410  55.8393135
  24.0094337  55.9271812  37.3998566  24.9416866  56.0101929  37.6004639
  23.9210606  56.2888641  36.5180359  37.5227089  11.1223974  46.0052376
  37.7379875  11.4145126  45.1194878  36.6209450  10.8078413  45.9411621
  63.6268158  41.5741005  36.3773689  64.5232010  41.7866440  36.1174622
  63.3507042  40.9002609  35.7561340  51.8859215  13.7879572  86.7106552
  52.5351448  13.2972593  87.2145920  52.1770477  14.6980772  86.7668610
  70.8249588  20.1195736  75.1370468  71.6546783  20.3727703  75.5416336
  70.3164597  20.9299450  75.1060638  37.1728020   9.3916626  37.3232384
  37.9126053   9.1728134  36.7566490  36.4272881   9.4625282  36.7270699
  31.3395786  45.2615204  81.0439987  31.6215744  45.8259277  81.7638321
  31.9798546  44.5500832  81.0325012  10.4118538   2.2875516  71.9505844
   9.5076056   2.0349522  71.7641373  10.9403563   1.7089444  71.4009171
  48.4494667   6.7323599  23.6716099  47.5474434   7.0526462  23.6716385
  48.6458817   6.5698133  22.7489891  31.3777599  57.3304710  78.8104782
  31.9284935  58.0238533  79.1739960  31.3111858  57.5410042  77.8790970
   9.0645571  39.0236626  77.2058411   9.4824390  38.1988258  77.4533234
   9.3134241  39.6355438  77.8985901   8.0522051  70.9810486  75.8520432
   8.4557590  71.8461609  75.7816315   7.1973600  71.0807114  75.4330673
  84.5803146  50.4820328  65.9728394  85.0556183  51.3018112  66.1080399
  84.4201508  50.4507866  65.0296478  38.4429626   5.0874557  21.1727428
  39.0298271   4.3957567  21.4783154  38.5616302   5.1000214  20.2230110
  72.4139175  48.8969421  78.9762573  72.3110504  47.9469833  79.0330734
  73.2411652  49.0208626  78.5109177  23.5509033  32.0944061  80.1012726
  23.8689842  31.2068806  80.2666626  22.6847668  31.9699993  79.7132492
  71.6775360  31.7057343  34.1633530  72.2839508  31.3948956  33.4911385
  71.6951904  32.6590881  34.0794868  51.8920479  23.6730766  32.5754395
  51.7663231  24.2993469  33.2883263  51.0690384  23.1858482  32.5367279
  25.4378300  50.4483910   8.0829906  26.2230110  50.5657043   7.5482378
  24.9144096  49.8070183   7.6024656  19.8065414  64.9670715  54.3540535
  19.0010643  64.7759781  53.8735123  19.5608444  64.8851624  55.2755508
  39.2569847  64.8281631  36.6438675  39.2975502  65.4442139  35.9123840
  39.1565514  63.9710121  36.2298203  15.9199686   1.0383044  69.1563034
  15.0821600   0.6013823  69.0033112  16.2808571   0.6009678  69.9274902
   3.8051941  34.6696243   9.6936741   4.6473985  34.2217102   9.7730207
   3.3861063  34.5442848  10.5450773  74.8600464  48.8515320   5.4306936
  75.3490219  49.4132195   6.0320549  75.3959274  48.8255463   4.6379862
   1.3367908  54.2754059   9.0634317   1.0630718  54.5275040   9.9453363
   0.9111507  53.4314156   8.9126253  62.2348633  30.9627018  75.2776566
  63.0319290  30.6746883  75.7225876  62.1803894  30.4069557  74.5002213
  55.6156006  51.4148827  74.4370041  54.9570618  52.0014915  74.0649185
  55.1101379  50.7727547  74.9354172   7.5270824  15.6987028  78.8613129
   7.6352444  15.4463444  79.7782898   6.8761916  15.0857887  78.5193939
  19.4297619   6.5754118  52.8076935  18.5006618   6.3671713  52.9058914
  19.7546196   6.6500802  53.7049789  20.7470856   6.9655576   3.2436466
  20.3929958   6.1606669   2.8654881  20.4855232   6.9331250   4.1638455
   1.4162015  21.6881847  30.2381763   1.0121893  21.5122719  31.0879173
   1.8689355  22.5232086  30.3564968  78.4445419  41.9019966  88.4454498
  79.2395401  42.3922768  88.2360611  77.9909439  42.4451790  89.0899887
  76.0361862  18.9385509   5.6619239  76.3629074  19.5804176   5.0314565
  76.7531586  18.3118649   5.7590952  56.3645477  38.7647552  55.6315041
  56.7241135  39.4420395  55.0585899  56.3027649  37.9883614  55.0750618
  76.6378860   3.9972477   6.5122933  75.9434357   3.9501801   5.8552098
  76.2339020   4.4441442   7.2561431  55.6259575  37.9154282  26.2712040
  55.9158134  37.9163017  27.1834621  54.8292542  37.3848686  26.2735405
  22.7700043  66.8634415  45.3209610  23.6253262  66.7123337  44.9186935
  22.8266850  67.7495270  45.6785583  63.1745720  47.4725304  32.9028931
  63.8404350  47.4807625  33.5904884  62.9271317  46.5515785  32.8201103
  50.7774811  14.1656246  65.9789429  50.6727333  13.3163319  65.5500336
  50.3037300  14.7781563  65.4162750  50.2446671  45.0051270   3.2893574
  49.6076775  45.7184639   3.2490692  50.9131317  45.3151588   3.9003124
  69.1439972  36.7701073   0.8242760  68.9303360  37.5478745   0.3088545
  70.0705795  36.8735237   1.0410318  77.9152527  33.2927856  34.2842293
  78.8333054  33.5120697  34.4433517  77.6696777  33.8246956  33.5272636
  28.6968689  56.0393410  39.6734886  28.8380833  56.9838333  39.6085091
  28.2691975  55.8039017  38.8501434  67.2185364  69.8148117   1.1724833
  67.6829681  69.0020599   1.3724214  67.8756790  70.3687363   0.7510899
  81.0376053  54.3424644  86.0966797  81.2321472  53.9721069  86.9576187
  80.3089447  54.9430695  86.2534027  25.7212391  61.1286049  88.0541916
  26.1316109  61.9183769  87.7019348  25.4676914  61.3676949  88.9457016
  81.7435455  61.8726311  32.2905006  81.7195587  61.1913033  31.6186047
  82.3580627  61.5415764  32.9454842  28.0966816  23.7369938  20.8842678
  27.6151848  24.2614632  20.2444839  29.0127640  23.9821110  20.7541084
  31.1594448   9.8729639  15.7223883  31.4546299   9.8227577  16.6315498
  31.3273163   8.9999743  15.3675079  45.0404396  63.8237190   1.3482341
  45.3025513  63.2670708   2.0814962  44.7054672  64.6202621   1.7599981
  82.2105865  53.5707397  63.1287804  81.9512558  52.8409500  63.6912651
  81.7338409  53.4245529  62.3117294  25.0976009  -0.2963300  73.1549377
  24.8068581  -0.0943295  74.0442581  25.3086853   0.5554642  72.7726746
  16.7787380  44.6824188  31.3512249  15.9714956  44.9755363  31.7739239
  17.4720631  44.9240952  31.9653301  78.8042908  61.8217163  81.8751373
  78.9471054  62.4520416  82.5812073  79.6796265  61.6467590  81.5295792
  40.3086166  61.5043373   3.5016024  41.2255630  61.7343292   3.6517479
  39.8783455  62.3402824   3.3218853  80.9183426  24.5836601  85.9330368
  81.3435669  23.9107304  85.4014511  80.5910721  24.1123276  86.6991806
  75.9699554  61.4985008  61.3445091  76.6864090  61.9365463  61.8039055
  75.8564529  60.6708069  61.8117027  77.0527878  28.1135788  83.3009567
  76.3238907  27.5109463  83.4485016  76.6344910  28.9483566  83.0902328
  32.3650436  28.2563076  12.9571295  32.6596375  29.0425510  13.4167681
  31.5204105  28.0478210  13.3563242  27.5733185  56.5270805   4.8049922
  27.1684704  56.3347282   5.6507645  26.8403988  56.7653236   4.2372780
  48.8478622  36.6086082  70.3050995  49.7942123  36.7295952  70.2275162
  48.7417145  35.6819649  70.5202637  55.5181923  37.1003494  71.1501160
  55.8537674  36.5440445  70.4471664  55.6760750  36.5977974  71.9493332
  60.0752525   0.3354440  11.4326067  60.6958694  -0.0745924  10.8301668
  60.1112938   1.2671512  11.2161484  22.1042233  71.0050430  64.3588486
  21.3852444  70.3809433  64.4578476  22.5492764  70.7323990  63.5564651
  13.7054243  41.6873665  70.7800369  13.5487347  40.7642555  70.5811691
  12.9663429  41.9421883  71.3323593  36.3898277  10.0447502  81.9566040
  36.3623505   9.5891905  82.7979965  35.5251846  10.4469299  81.8736496
  19.1205559   2.4625590  67.5637665  19.3869057   1.5722902  67.7933502
  18.2369556   2.3642471  67.2090530  76.7753830  24.5972290  76.2962341
  77.1628571  25.2241669  76.9070053  76.8938065  23.7465992  76.7188873
  78.9673691  23.9380722   2.9802616  79.1694412  24.4267330   2.1823843
  79.5206604  23.1585846   2.9303358  79.1293640   5.3577142  73.9556808
  79.9235229   5.8405027  73.7266312  79.3305054   4.4479432  73.7363815
  76.8416595  39.6138496  48.2093964  76.9452591  39.1281738  47.3910980
  76.6061478  40.4997864  47.9339256  83.1590576  36.8300095  54.4995079
  83.7899170  37.3054581  55.0400620  83.6272812  36.6545258  53.6832924
  51.4574280   5.3854060  44.1049614  51.7066689   5.9515028  43.3744507
  50.5964317   5.7060356  44.3735046   3.5251453  67.5584335  51.8899956
   3.1238344  67.0264969  52.5771866   3.4365361  67.0308533  51.0962448
  79.0345840  10.7710047  55.2325134  78.4341125  11.2539644  55.8003235
  79.6132126  11.4418631  54.8700523  73.7900238  42.0070763  12.8950596
  74.4481888  42.6231575  13.2167530  73.1988678  42.5427170  12.3660479
   5.0029840  64.0641479  33.1519737   5.2335224  64.6843414  32.4602737
   4.6773334  64.6120300  33.8661232  59.6825409   5.4820824  28.9967594
  60.2355576   5.9064775  28.3407917  59.5933495   4.5805240  28.6877785
  18.5331993  70.3335114  56.7356529  19.0548382  71.0280151  57.1378784
  19.1672401  69.6468124  56.5290871  30.5539799  28.6148930   0.3409274
  30.0821419  27.9285984   0.8127327  30.1568832  28.6232395  -0.5299777
  29.6458855  67.0346298  27.3767395  29.9419460  67.9431000  27.3195210
  30.3261852  66.5323257  26.9282875  26.0721493   8.3433933  79.0387878
  26.9059677   7.9409008  78.7959290  25.4952450   7.6034765  79.2283554
  53.9204712  51.2077904  16.6029510  53.9701653  52.1624718  16.6513824
  54.8301468  50.9250450  16.5092793  41.8900146   2.0392785  35.4806900
  41.4564285   2.7364149  35.9728661  42.4766464   1.6274015  36.1150780
  17.7235527  20.6860390  80.6868134  17.8612461  20.4448204  81.6028290
  18.0459213  19.9340191  80.1900406  19.0606995  52.4042969  29.4318409
  19.6555653  51.8303261  28.9492188  18.2961349  51.8580132  29.6141758
  34.0586548  33.3388367  86.5831680  33.1238823  33.4322739  86.3995895
  34.3632965  34.2332954  86.7360458  81.2445450  35.4801254  68.2034607
  80.5954742  35.8771362  68.7842484  81.2529449  36.0458641  67.4313889
  74.5261688  47.5205803  31.8073692  75.1720123  48.1253586  31.4421806
  75.0484924  46.8417244  32.2346535  65.9511719  24.4046631  26.4997120
  65.8292923  23.4568558  26.5548496  65.0650406  24.7552643  26.4098072
  10.3750362  66.3045807  87.0639114   9.4276323  66.2132034  86.9623795
  10.6191168  66.9827652  86.4340515  57.3319931  61.2103043  41.0237045
  56.7154884  61.4815712  41.7038269  57.9007607  61.9700546  40.8991547
  54.5775490  26.9434967  49.5612640  54.1232681  26.5191097  48.8334198
  54.8096428  27.8096409  49.2263603  38.5980339   1.1132458  55.3402481
  39.3239403   1.6933305  55.1104774  37.8810387   1.3890796  54.7692299
  64.5090332  58.4360771  40.2727356  64.2200165  57.5433159  40.0838394
  64.9006271  58.3816605  41.1444702   3.4792442  56.1255341  54.0363426
   3.1773355  55.5208626  53.3585091   3.6340721  55.5705376  54.8007011
  76.0641632  41.0363388  70.1534500  75.1256790  41.1686478  70.2874832
  76.2423553  41.4318695  69.3001938   8.2508898  60.8259048  21.5816612
   7.8618193  61.6934967  21.6918602   7.6515164  60.2349701  22.0374870
  19.4193668  23.4554634  10.9930811  18.7998581  22.9990730  10.4237404
  19.6045742  22.8311863  11.6946583  27.8454723  48.4546967  86.5112305
  27.9659939  47.6464958  87.0097427  27.6397400  49.1155357  87.1724396
  24.9777889  64.8203354  51.4998360  25.1075573  64.8296585  50.5515213
  25.8183403  65.1039124  51.8594017  34.7047386  70.7601013  26.5347595
  35.6113701  70.5862579  26.2817268  34.1957245  70.0915527  26.0763016
  52.1134644  60.6166000   7.7750554  52.6816139  59.8462524   7.7774782
  51.2299461  60.2622757   7.6746464   6.7384143  44.4152184  59.3231506
   6.2190351  45.2036667  59.1655960   7.6285243  44.7385979  59.4622993
  64.2927094  60.2405853  54.6820488  63.3468018  60.1203613  54.7659264
  64.6437225  59.9798622  55.5335426  83.9345398  48.5455208  76.2560654
  83.5711365  48.0288506  75.5368881  84.8769760  48.5587616  76.0891113
  84.2232666  38.4907990  10.5162697  83.6082611  38.8685150   9.8875160
  84.8629913  38.0266457   9.9763231  78.5853882  35.8753929   7.6467085
  79.2663345  36.5438347   7.7223916  77.8631897  36.2077675   8.1798029
  40.1225166   7.5421224  73.2365036  39.2859001   7.4099684  73.6824112
  39.8940048   8.0063562  72.4312057  73.3310852  69.7818832  54.3156395
  72.9923248  69.0391006  53.8158913  73.0798111  70.5501175  53.8028870
  73.6896667  66.4166107  28.3007812  74.2356567  65.9113464  28.9031391
  73.5069199  67.2311859  28.7690887  71.4100647  56.0234909  21.4785099
  72.3537445  56.0269241  21.3182087  71.0765839  56.7565842  20.9612160
  53.7254181  26.5330181  11.0767117  54.3466110  27.2600536  11.1187735
  54.1704102  25.8117313  11.5216351  59.6938667  70.7246704  32.9120407
  59.4610138  71.2851639  32.1718636  59.6356010  71.2993698  33.6752968
  26.3858585  60.5972328  60.2942200  26.1109886  60.7515755  61.1980209
  25.5880413  60.7129784  59.7781563  73.2385712   6.9600997   5.7098579
  74.0952682   7.3251495   5.9313135  73.2152939   6.9671912   4.7529669
  22.4010983   3.0677989  62.0272064  21.6748371   3.6905265  62.0586624
  22.0695152   2.3394597  61.5020332  20.2330608  48.1014214  65.4550476
  20.4015827  48.5610886  64.6325302  19.2813244  48.0035057  65.4840622
  64.3522873  27.6316605  88.8843765  64.9779358  27.3392258  89.5471497
  64.8687897  27.7009811  88.0814743  77.1632080  31.2584038  55.2550392
  76.3786316  31.0532742  55.7635612  77.3708801  32.1629143  55.4894791
  44.3169403   9.8470440   9.6633215  43.8815575   9.4913502   8.8886261
  43.9516945   9.3477688  10.3937674   1.6224257  13.7362957  70.6720886
   1.3068587  14.1063623  69.8476486   0.8783485  13.8128672  71.2693481
  78.5494995  41.9936638  82.1992340  77.6508408  41.6887817  82.3245010
  78.5878067  42.8261833  82.6700516  80.4489441  71.3925705  28.1170044
  80.5331955  71.2216034  29.0550365  79.5062637  71.3678818  27.9527702
  10.3723688  47.6693420  54.9014168  10.6631546  47.8587303  54.0093384
   9.7812738  48.3901711  55.1187706  76.2251740  46.6296692  38.0613823
  75.6956787  46.9444199  37.3287163  76.3700409  45.7027626  37.8714027
   0.2202591  37.1993294  57.0954590   0.7129098  37.8198624  57.6325531
  -0.6595197  37.5729179  57.0439606  39.5110092  36.8227196  47.4443626
  38.6755905  37.1266289  47.7992477  39.4535599  35.8679390  47.4807472
  42.5682602   1.6657156  48.1894798  41.7943153   1.7763568  47.6372108
  43.1638031   2.3607235  47.9092560  40.8053703   2.6762679  54.4923286
  41.0939140   2.9542141  53.6230087  41.4954758   2.0868921  54.7966690
  78.3655548  36.7471085  63.9032822  78.2284393  37.0393372  63.0021553
  78.1845551  35.8074532  63.8805199  73.9642334  30.0814171  41.9579391
  74.1019592  29.8947239  42.8865967  73.0992889  30.4897976  41.9214439
  65.4149628   1.0066333  34.8086929  66.1607285   0.5344216  35.1789398
  64.7270660   0.9235367  35.4690895  23.5911007   4.0592341  76.1419983
  23.0398979   4.6946430  75.6852036  24.3909569   4.5420179  76.3502808
  52.8463402  61.2887306  69.7835922  52.5996246  61.0705566  70.6823425
  52.9659958  60.4409714  69.3555527  44.3518486   2.0397847  85.0297394
  44.1830025   2.9751892  84.9168625  44.7301331   1.9687312  85.9061432
  53.3615303  18.0308056  83.6700974  53.3078156  17.1077137  83.4226151
  54.2979202  18.2287350  83.6549683  70.5678329  49.0918846  41.6652069
  70.0414734  49.8771477  41.8153381  70.0789642  48.5981102  41.0068588
  29.9484577  48.1771736  27.8160706  29.2624989  48.8427505  27.7641106
  29.9995079  47.9579620  28.7464314  15.3679466  17.7307205   2.5668719
  14.4565048  17.4483109   2.4910352  15.5273628  18.2412052   1.7730057
  58.3533516  19.0785065   9.1050339  58.1655350  18.1591110   9.2938995
  58.5196838  19.4700336   9.9625139  45.0362358  41.8717155  81.3139954
  45.5076256  41.0821457  81.5797043  45.2167473  42.5039482  82.0096512
  30.3825722  11.2663355  70.9740448  30.6714420  10.3854132  71.2122955
  30.3882236  11.2695723  70.0168686  78.1345901  40.8416634  43.8476143
  77.2878799  40.5011940  43.5588264  77.9743729  41.7701035  44.0166206
   4.4462438  48.8228645  75.8843842   4.7580318  48.6532593  74.9954224
   5.1215959  48.4491081  76.4504547  36.8491821  65.3442230  23.5785942
  37.6568184  65.3070221  24.0910149  36.1612167  65.4962082  24.2265396
  23.9584084  37.2285271  69.1854858  24.0065918  36.3352737  68.8448792
  23.0814152  37.2937584  69.5634537  27.6831493  57.1681442  86.6398849
  28.4969139  57.1414452  87.1431808  27.0356903  57.5214615  87.2499619
  45.4258690  49.0516434  12.8801374  45.7010498  48.3590889  13.4808674
  45.8873596  48.8582420  12.0641394  43.2757988   1.3827327  19.6564045
  43.3652573   0.8064688  18.8973598  42.9690933   2.2129993  19.2919598
   0.7957639  63.9458809  35.0015488   1.6194187  63.7102356  35.4285088
   0.3210334  63.1183586  34.9236717  48.4616089  28.4380550  19.2399998
  47.6849022  28.0737267  18.8154716  48.1292534  28.8414898  20.0418797
  83.9682999  64.1240768  69.0558167  84.5107727  64.7802811  68.6183777
  84.5955505  63.5034409  69.4267578  38.4159126   4.9279547  56.4445038
  39.1269417   4.7772312  55.8216476  37.6217117   4.9090166  55.9105377
  59.8684120  62.2169266  40.8571739  60.2610931  61.4554062  41.2839279
  60.4561501  62.9413185  41.0717812  85.3343430   3.5164418  77.6114120
  86.1149979   3.1610432  78.0362625  85.4723129   3.3499107  76.6789627
  63.9914742  31.1996117  77.5468445  63.1845703  31.6031342  77.8667068
  64.5512543  31.9389153  77.3095474  16.5048656   0.8054145  25.6749363
  16.4884701   1.1990184  26.5473118  17.3807850   0.9992633  25.3411369
  38.1501503  50.7413139  79.5230789  38.1973305  51.2247276  80.3478928
  38.6905975  51.2482224  78.9171143  79.6982956  63.4318352  33.2835350
  80.1330719  63.9492378  33.9613953  80.4034882  62.9272461  32.8781624
  50.8690987   9.6612244  45.1024513  51.0083160  10.3764572  44.4817314
  50.9634476   8.8665419  44.5772743  57.7710991  55.7153091  64.2753754
  57.2548752  55.1512222  63.6995735  57.2219543  55.8330803  65.0504913
  65.0304794  63.8957672   0.7941766  64.3679962  64.4787369   0.4233731
  65.8457565  64.1564484   0.3656940  14.5883379  57.2632942  59.8971329
  15.0387564  57.5582848  60.6885452  14.8914757  56.3643074  59.7700081
  63.1269455  52.3821449  17.2586384  63.2410431  51.7548790  16.5446701
  63.1655693  53.2387848  16.8333073  46.4795837  10.8757229  62.9941177
  45.9603004  11.0629635  62.2121201  46.6110077  11.7303677  63.4046516
  35.8303871  65.2390213  56.3712769  35.5623283  64.4707489  55.8671532
  35.1458015  65.8865738  56.2032089  49.0065918   4.6784272  86.4668961
  48.0856056   4.9278283  86.5431595  49.4005127   4.9615335  87.2920685
  48.5720901  36.7089157  89.0867767  48.0284500  36.7771950  88.3019028
  49.2897339  37.3239594  88.9353027  67.9912796  21.8022442  83.3029861
  68.1212692  22.4188633  84.0234756  67.9390106  20.9457760  83.7272034
  71.9313736  48.0672302  31.7104950  72.8785858  47.9294052  31.7157536
  71.5617981  47.1877480  31.6320343  21.1145058  57.8380318  54.2811470
  21.4016800  57.7554970  53.3717766  21.9244919  57.9490700  54.7789688
  73.3302078  55.2874222  81.8225327  73.3216324  55.8106232  82.6240387
  72.4111404  55.0675545  81.6701889  62.8592262  14.8874969  54.9981995
  61.9113426  14.9527378  54.8820343  63.2245483  15.4103518  54.2844810
  14.2507830   1.8763530  24.7216129  14.3979502   2.6977119  25.1905937
  15.0041819   1.3318548  24.9499645  83.1814194  16.0385208  39.1077766
  82.5045166  15.5747576  39.6006851  83.7903595  16.3538589  39.7756004
  24.8196468  55.5260887  34.3820915  25.6258221  56.0410347  34.3482513
  24.1248817  56.1756477  34.4898338  66.6265182  51.4016037  16.0782661
  67.3064041  51.7975273  16.6234589  66.5766602  51.9682541  15.3084259
  67.7453079  48.3368835  56.8952942  67.3752213  49.1044922  57.3312340
  67.0920410  48.0963631  56.2383194  70.3447723  17.2754116  83.9495850
  70.0353775  16.9748039  83.0951080  70.3886871  16.4808350  84.4815216
   7.8576283  45.0761299   7.2166958   7.3869886  44.2737694   7.4424038
   8.1811953  45.4076958   8.0543127  26.9637070   1.5752852  11.4955063
  26.9662476   1.0594977  12.3018494  27.6380920   1.1703956  10.9500685
   4.5264044   0.2726215  25.6315937   4.6736760   1.2183640  25.6422768
   4.7431798  -0.0135716  26.5189114  48.6104965  65.9877548  87.1264877
  49.0625763  66.8169937  86.9708862  48.9980736  65.3815308  86.4952087
  58.8122139  20.6986217  86.0101089  58.8851166  21.4910583  85.4781723
  58.6149483  20.0049572  85.3807068  77.8957520  28.0441799  21.9928913
  78.2277603  27.2495823  21.5750217  77.0960236  27.7643356  22.4382572
  52.5358620  54.3772202   0.7350096  52.9494820  54.7648888  -0.0362652
  53.1663589  53.7262726   1.0431916  78.3391953   7.0000911  20.4921131
  78.5799026   6.0999403  20.7112427  79.1498795   7.4976363  20.5991879
  78.1071091  61.2788162  88.0602646  78.2653732  60.3796806  87.7726212
  77.8081360  61.1916122  88.9653854  60.4369698  10.0478554  28.7871284
  59.6484909   9.5098581  28.7157516  60.3297615  10.5216951  29.6118793
   7.7568350  59.1182938  65.6222382   7.0121598  59.3949280  66.1562500
   7.6808133  59.6342812  64.8196182  48.4658585  47.6517868   1.1227913
  49.2249527  48.1896439   1.3479974  47.7867050  48.2832947   0.8857701
  86.3073120  27.4384251   6.3805642  85.5040359  27.4159470   6.9006338
  86.0164490  27.2748165   5.4834208  55.6412430  65.5385742  45.0023041
  55.3846626  66.1173096  44.2843475  55.6381836  66.1014862  45.7764816
  33.6952324  43.1115074  57.6858253  34.3727150  42.6766090  57.1680260
  34.1796036  43.6065483  58.3465462  13.2284746  27.6729507   5.3330536
  13.1606588  26.8641853   4.8255763  12.9381981  28.3583755   4.7312517
   4.7447824  26.4915257  30.2142239   4.9026318  27.4256058  30.0770779
   4.8930740  26.0949783  29.3557415  60.5358124  44.9891548  83.4026794
  59.9223366  44.4102440  82.9501953  60.9335403  44.4373245  84.0761185
  39.5914574   0.8980893  82.7683945  39.8543739   0.1766200  82.1969223
  40.3675194   1.0784671  83.2988892  79.1537933  13.2304745  47.9572716
  80.0944366  13.0803375  47.8630638  78.9126358  12.7497292  48.7490807
   7.4479823  55.5622215  70.0518188   7.6244259  56.0102692  70.8790741
   8.3121023  55.3074722  69.7283478  69.3342056   1.8247316  83.7674637
  68.6988602   2.0539670  84.4457092  69.1035156   0.9305519  83.5155563
  83.8533707  36.4544258   7.2645602  83.2173691  36.0616531   7.8624454
  84.3458557  37.0689354   7.8086820  13.5905561  27.8175812  87.9808807
  13.8232584  26.9453316  88.2990952  13.1417179  28.2299385  88.7189407
   8.6344309  62.5444603   4.3515201   8.1619425  61.7195015   4.4629912
   8.6995401  62.9045906   5.2359977  29.9091930  26.3023014  84.4994049
  30.5851574  25.6912193  84.7924728  29.6528416  26.7739658  85.2919006
  10.7855453  30.7831039  62.7261620   9.8798723  30.9226704  63.0027618
  11.0548115  29.9853535  63.1814842  25.1136684  39.2970047  77.2232208
  25.1330929  38.3746605  77.4784241  25.2383194  39.7750435  78.0430756
   2.2385604   1.6766896  85.5003281   3.1910553   1.5884880  85.5350494
   1.9830184   1.2044007  84.7079391  44.6408195  32.7936478  25.8863811
  45.1331367  33.5909691  26.0816498  45.2936478  32.0944824  25.9212170
  19.0665073  43.4703636  28.3280296  19.7055416  43.5791702  27.6237354
  18.2378063  43.7598724  27.9463596  45.3028564  66.0959244  83.0958786
  45.7682686  66.0630417  82.2600861  45.7707176  66.7581024  83.6046600
  76.4676514   0.8675641  80.3001785  77.2809372   1.2244339  79.9431839
  76.1133347   1.5734944  80.8408737  21.0252457  59.1060219  37.8758507
  20.7469521  59.7446022  37.2193451  20.7409668  58.2621422  37.5247383
  42.5888519   0.4004495  55.3328209  43.1388283   0.0954465  54.6112061
  41.7711182  -0.0870410  55.2333412  55.1502495   7.1984663  75.1661453
  55.4440193   6.3657780  75.5356827  54.6970291   6.9555941  74.3587799
  21.4700222  10.6072407  85.7505417  20.5601368  10.6317415  86.0467529
  21.9840508  10.5819664  86.5576172  51.3750038  57.6304321  27.4560947
  50.9942589  57.7500038  28.3261318  51.8804817  58.4289360  27.3040524
  53.3835640  61.8944054  31.3002739  53.9755402  61.3183632  30.8165684
  52.9472923  62.4122009  30.6236763  39.2348099  49.2957077  44.3865395
  38.5508232  49.8443642  44.0026474  38.9288254  49.1188087  45.2760963
   9.4003477  34.6970711   2.8220158   8.7986212  34.3444862   3.4776387
  10.1473064  35.0152626   3.3290052  42.6933708   1.8976027  68.7551117
  42.3126640   2.7261376  69.0463638  43.5567436   1.8725919  69.1676559
  13.6550579  60.1877823  15.6215839  13.6524343  61.1267242  15.4355507
  12.9450245  59.8353271  15.0850582  40.4903908  44.9262428  66.6513901
  40.3397942  44.6244736  67.5472031  41.4306145  45.1014671  66.6125565
  46.3162651  29.2256603  79.9998550  47.0639992  28.9393463  80.5243988
  45.8913155  29.8962669  80.5345840  84.9716263  65.4548645  23.6839008
  84.0739517  65.6554031  23.9488621  85.3166199  66.2862167  23.3582363
  65.4180298  22.6830692  13.4305000  64.7029724  23.1417809  13.8715258
  66.1497192  23.2997055  13.4556170  74.7426376  21.2331791  13.0476971
  74.1949463  22.0124340  13.1426964  75.6300964  21.5756931  12.9412479
  67.3996887  22.3662472   8.8107500  67.0060349  22.2755165   7.9429703
  66.6541290  22.3909798   9.4105587   3.5477433  71.5759506  55.8917847
   3.0340562  71.0525208  55.2766647   4.3990712  71.1396255  55.9248390
  52.9825935  20.3676014  41.0234261  52.7009811  21.2596283  40.8204117
  52.1972542  19.8345146  40.8997765  40.4556389   3.7318580  36.8674927
  40.8893089   4.4439440  36.3972855  39.5210953   3.8943572  36.7392349
  19.1464939  19.7304230  71.2110443  19.5251465  19.2764988  71.9639053
  18.2016373  19.6156197  71.3125229  67.0628052  44.7643356  60.7264786
  66.5753555  43.9415245  60.6863823  67.0765991  45.0788460  59.8225288
  48.9885139   9.4257164  52.9595871  49.4159317  10.2760115  53.0622826
  49.5858231   8.8053741  53.3774757  35.0826797  21.4325752   9.7119904
  35.5115623  20.6123791   9.9560585  34.4079437  21.5578384  10.3792791
  33.0055466  61.9877548  16.5244217  33.7969627  61.8245964  16.0113239
  32.7170639  62.8580666  16.2495289  56.2089005  27.6811829  37.6458549
  56.6044350  27.2065239  36.9147682  56.8658524  28.3323460  37.8920975
  80.9724350  51.4051056  75.8803177  80.9253998  52.3384552  76.0873947
  80.1457291  51.0462570  76.2028275  21.6886044  41.1986694  44.1092339
  21.5964355  41.5267792  43.2147636  22.5886841  41.4154625  44.3523216
  54.7019081  55.0525208  13.6235170  55.4849091  55.6029701  13.6115036
  54.7951965  54.5205727  14.4138098  49.9200058  49.4785156  29.3149815
  49.7687798  50.3862152  29.0514565  49.1462555  49.0073090  29.0059357
  64.3815460  59.1366882   4.2987647  64.4761353  58.8377113   5.2031417
  63.7912254  59.8880501   4.3553967  63.3675423  22.3519211   3.5211096
  63.0952110  23.2166805   3.8281250  62.5597000  21.8387966   3.5030930
  83.1806870  28.6721954  26.0392647  83.8903122  28.4771194  26.6513100
  82.3821564  28.4629555  26.5238380  72.4753723  71.1213074  18.6213074
  73.1124496  70.6093292  19.1195526  72.9886398  71.8297195  18.2328110
  52.9700050  56.1641655  86.7147980  52.2375679  56.5446129  87.1996002
  52.5576973  55.6756516  86.0023422  38.5334930  69.1953583  42.7850990
  39.3016930  69.7174454  43.0164604  38.5197449  69.2005997  41.8280106
   2.2061079  49.7830086  53.8762474   1.9177787  49.6774063  54.7828598
   1.4758047  50.2243309  53.4425163  35.8459358  39.8223457  64.3784103
  34.9745941  39.7007027  64.7555008  36.3722916  40.1694069  65.0986404
  73.5439835  58.6096802  73.4456558  74.1648865  59.3376732  73.4728546
  73.0707703  58.6673470  74.2757034  63.3282051  26.2547665  16.1015396
  62.8212013  26.1785831  16.9098549  63.5434723  27.1854572  16.0406532
  75.3493652  20.3534203  56.2998581  75.3405762  20.4759312  55.3505707
  74.4391174  20.1610394  56.5249672  49.8256683  51.8676529  40.8860855
  49.0228500  52.3854027  40.8256416  49.6425171  51.0809059  40.3725471
  75.0144348  55.4808922  65.3427353  75.7795868  54.9198380  65.2163086
  74.6541519  55.5963058  64.4634705  11.0513887  48.7440910  48.1675529
  10.5248146  48.0662041  48.5911369  11.4497623  49.2257996  48.8924561
  44.2060928  30.3730240  64.1874619  44.7137871  30.6039848  63.4095573
  44.5167046  29.4994850  64.4255447  17.9766312   1.7693232  84.4322205
  18.1468544   2.4306803  83.7615051  18.6127300   1.0769358  84.2527466
  60.1130486  31.4413719  73.3037567  59.8383217  31.5684681  72.3956833
  60.1051025  32.3207588  73.6817093   3.5159850  58.4080162  79.2659302
   2.7247739  58.6466331  79.7489243   3.2833741  58.5370979  78.3464432
  52.8856277  29.2276058   1.1440523  53.2762337  28.8460407   0.3578794
  53.4924316  28.9989414   1.8481359  31.8284073  42.7877502  15.3098936
  31.2156372  42.0574837  15.3962355  31.5887241  43.2049751  14.4824228
  72.8786926  26.1269627  80.9822693  72.2967987  26.1221828  80.2222672
  73.7600861  26.1357079  80.6090240  68.1912079  31.4224300  76.6124344
  68.0169067  32.3621101  76.6657944  68.7847748  31.2470913  77.3426208
  81.5752563  28.5321693  13.3470526  81.7609024  29.2291985  13.9762716
  81.3983765  27.7623272  13.8876886  25.8925724  35.6566048  87.8196945
  25.0911655  36.1655312  87.6973343  26.5421829  36.2981758  88.1071320
  59.4096184  20.4661102   7.0420284  58.9969902  20.1223240   7.8343539
  59.8358345  21.2749176   7.3255801  60.9359398  17.0644226  69.5086060
  60.6827965  17.4910660  70.3272171  60.3053246  16.3518181  69.4049301
  67.4237518   2.7843266  55.2548752  66.7079315   3.3399017  55.5633698
  67.8201523   2.4383914  56.0545197  18.4975243  45.1220856  69.2704544
  19.4349384  44.9538078  69.1746979  18.3050346  44.8945732  70.1800766
  60.6726303  36.0997658  34.8792725  59.9633522  35.4586029  34.9247017
  60.2405510  36.9443436  35.0066757   1.7121708  58.8369370  36.8556938
   1.9620109  59.0745316  35.9627419   1.9562489  59.5975266  37.3831024
  51.4198227  34.5065956  13.0442371  51.1890030  35.1952019  12.4207144
  52.0147820  34.9321327  13.6616297  55.0945549  58.8758278  50.2959938
  54.2701607  58.5246124  50.6325226  54.8397675  59.3972969  49.5348167
  82.5060654  46.7643585  56.9485283  81.8484802  46.7980957  57.6432724
  83.3234177  47.0132065  57.3800926  83.5181198  65.4815750  15.5702400
  82.5813141  65.2968826  15.6374197  83.6651306  66.2007217  16.1846085
  65.6753998  58.5075531  50.5777245  66.3116989  58.9317818  50.0020676
  66.0656662  58.5652084  51.4498520  60.4420280  16.8008175  33.3393745
  61.0797691  16.6006489  32.6542053  60.9734306  17.0406551  34.0985298
  42.3177948   8.3038750  18.6010494  42.2290382   8.6734686  19.4795456
  41.4584084   8.4318447  18.1994171  60.3913612   0.9669955  82.1739197
  61.2483101   0.7240552  81.8234100  59.8516960   0.1862456  82.0497284
  65.2287292  46.7711906   0.6712727  65.9768448  47.0505180   1.1990348
  65.3806152  47.1659889  -0.1873872  80.9740143  56.4545631  15.8841906
  80.9282379  56.2139282  14.9588633  81.0904922  55.6223831  16.3426018
   5.8707280  53.2773705  33.3603973   6.3607430  53.1765594  34.1764603
   6.0913720  52.4977989  32.8506737   0.2968840  12.6001205   0.2346557
   0.3560544  11.7300692   0.6292973   1.0959908  12.6818514  -0.2859021
  71.3947754  32.4690285  20.5920830  71.7467575  32.5083694  21.4813480
  70.7433014  31.7684212  20.6231308  56.8861122  56.6545181  24.3749542
  57.3017197  56.5744247  25.2334919  57.3601685  57.3662033  23.9448280
   8.8209305  39.4269600   0.3637562   8.8073015  40.0851326   1.0586368
   8.9738331  38.5997086   0.8203771  61.6338387   8.0219164  78.6056976
  60.7680817   8.4301949  78.6086197  62.2457352   8.7577953  78.6228561
  24.9552040  54.9554253  66.3801956  25.3581352  54.6810799  65.5564194
  24.0243893  55.0418739  66.1744232  35.0415230  69.0233459  22.5876503
  35.7584419  68.9480515  21.9578953  34.5382385  69.7805023  22.2882309
  81.3930740  61.6306267   6.4815750  82.1278458  62.2198219   6.6524153
  81.3958969  61.5134506   5.5315781  58.4755096   2.9374211  87.0892258
  58.8240738   2.5472047  86.2876816  59.1706352   2.8170061  87.7361603
  55.8351631  11.9964113  33.6533318  55.6372833  12.8377886  33.2420387
  56.3427811  12.2240753  34.4322548   5.7655096  50.4229355   5.8167424
   5.3228550  49.7089233   6.2755151   5.6427298  51.1843796   6.3836293
  84.5294571   1.4223824  25.8066120  85.0710449   0.7580335  26.2327099
  85.1460724   1.9346823  25.2835770  76.6859436  71.0516205  19.9337482
  77.3634338  70.3803024  20.0148182  76.9935074  71.6180573  19.2260780
   5.7468457  47.3387032  22.5618973   5.9827309  47.5027390  21.6488361
   6.4621673  46.8006783  22.9011288  22.4835186   3.0855877  37.0335655
  22.8379021   3.2228918  37.9120827  21.9988270   3.8886108  36.8426170
   0.4961993  25.8305130  20.9973259   0.5110261  26.3143196  21.8231258
   0.6027559  26.5025349  20.3240776  24.7287350  64.7690048  10.5983772
  25.3949966  64.4812317   9.9742651  23.9132557  64.7646561  10.0971708
  40.9503212  28.5227413  21.4141273  41.1695137  29.3909607  21.7523289
  41.1280403  28.5795269  20.4752865   1.4133476  63.5936432  55.8538055
   1.4049855  62.6807365  55.5661125   2.2383344  63.6871109  56.3301353
  21.2150803  48.1622200  43.0727043  20.5672359  47.9601364  42.3976555
  21.8690109  48.6983986  42.6242371  65.0139923  48.4384804  34.7818604
  65.1532745  47.9649010  35.6019516  64.3208618  49.0672150  34.9831009
   2.3042817  17.7839508   3.8955944   2.8403952  17.5827293   4.6626167
   2.7599719  17.3616695   3.1674078  57.0535698  35.3981590  84.4886703
  57.7372131  35.9351540  84.8892975  56.5145454  36.0211143  84.0012207
  58.0359726  32.7235146  79.7489929  57.1878510  32.6703568  80.1895599
  58.3457680  31.8184414  79.7157974   9.5544262  40.0737267  62.5971336
   9.1775465  39.2323647  62.8546257   8.8249884  40.6907845  62.6553802
  62.8020554  42.2273064  50.2671471  61.8968697  42.0546532  50.5261078
  63.0775490  41.4306374  49.8136597  37.2361908  47.3640900  11.1572418
  37.4259262  48.1756439  10.6864824  37.8601875  46.7303886  10.8032894
  32.9163399   6.3952489  88.4355240  33.4830818   6.4697900  87.6677551
  33.0566101   5.5024819  88.7509995  14.6289043  49.7267532  26.0839481
  15.0067587  48.8762627  25.8600540  14.0962744  49.9598579  25.3235550
  52.5745506  57.6476440  51.5161934  52.5882874  56.7264748  51.7759705
  51.9146843  58.0466194  52.0833130  82.4076538   3.0073745  74.2439957
  81.7475891   3.2599590  74.8895493  82.4728775   2.0560796  74.3277588
  44.2504501  18.9915524  11.2994785  43.3889771  18.5746918  11.2814035
  44.3170891  19.4403534  10.4566450  34.6276512  38.2094269  82.8155594
  33.9106140  37.9377899  83.3885422  34.7526932  39.1378555  83.0120697
  24.0855541  42.2001877  32.2050285  23.6464481  42.8196106  32.7878952
  23.3822880  41.6391258  31.8781357  81.7970123  22.2329674  70.9076080
  81.0952835  22.8549995  71.0996552  81.6374435  21.5005856  71.5029144
  82.2608643   1.2549620  77.7476273  82.7752228   1.5308082  76.9889603
  81.3534317   1.2812054  77.4441376  48.2020836  49.6388245   8.2807312
  48.1283875  49.7021217   9.2329884  48.3523140  50.5389175   7.9917736
  36.2593803  19.7465343  11.7591782  35.7029800  19.1354103  11.2762918
  35.7972908  19.8897552  12.5851278  40.4029579  29.0491924  60.8434181
  41.0753326  29.1868591  61.5106430  40.0008011  29.9100380  60.7274590
  32.1361618  38.3385735  84.4089508  31.5161095  37.7666397  84.8613434
  31.9483852  39.2129364  84.7502060  60.5891838  21.1447926  75.1460571
  61.4184761  21.4074898  75.5454330  60.6771088  21.3933945  74.2258987
  15.7263727  63.3374100  63.0764656  15.1980114  63.4581299  63.8654480
  15.4636440  62.4802437  62.7410965  56.1367989  39.2189674  39.7504730
  56.3810349  39.1094360  38.8314629  55.6471138  38.4248314  39.9644470
  68.6948624   2.0896008  16.0366955  69.0538025   2.9750266  16.0951252
  68.9008789   1.6913501  16.8823814  73.5922699  23.4027290  33.4129448
  72.9339371  23.5107327  34.0993576  73.1068268  23.5151768  32.5956726
  27.8781662  19.8991241  84.0669937  28.7954140  19.6807365  84.2319031
  27.5046272  20.0372849  84.9374008  77.4399490  13.5899897  54.6962280
  77.4329605  13.4190111  55.6380081  78.0175171  14.3464861  54.5944214
  49.1080933  38.2016487  66.6516571  48.9045982  38.5665970  65.7904739
  49.9210548  38.6360054  66.9098434  72.7670517  42.7749672  24.9327946
  73.7214508  42.7081451  24.9027767  72.4939880  42.7171326  24.0171947
  50.6447601  23.0716381   5.9955378  50.3450317  23.1704750   5.0918646
  49.8935127  23.3347111   6.5271835  50.8930130  10.2885590  19.6754761
  50.3343086  10.6937723  20.3387146  51.7262077  10.7542648  19.7471504
  64.9096375  27.5310879  39.5602112  64.1725616  27.6204243  38.9560890
  65.6645889  27.8501987  39.0657959  41.0541458  10.3285656  83.9513397
  40.3999100  10.6922216  84.5479660  41.8827553  10.7074232  84.2447815
  46.1600418  66.3282547  18.5214710  46.7767830  67.0421371  18.6834202
  46.6833992  65.6528473  18.0900154  67.0443344  44.8354416  44.7544518
  66.6523743  44.1788177  44.1787415  66.3184128  45.1409836  45.2984238
  53.7004089  16.3181934  54.6205635  53.7307663  17.2614403  54.4605827
  54.2904930  15.9450817  53.9657211  61.5815201  21.4349632  19.3035450
  62.3834572  21.1284561  18.8802471  60.8880005  21.2380352  18.6738739
  50.4312477  51.8270416  21.0896034  51.2604141  51.9053040  21.5614014
  49.7708321  51.7461700  21.7777462  33.1502151  47.1195221   0.8362868
  32.4835129  46.8991165   1.4867935  33.9796600  47.0421867   1.3077470
  25.0735588  25.1519051   3.8513749  24.9122086  24.4917641   3.1772747
  25.5735207  24.6898689   4.5242729  73.2231674  63.8515053  78.8009567
  73.4074631  64.5385132  79.4414978  73.1823654  64.3108215  77.9621429
   4.9396644  17.7936573   8.2077074   5.7891483  17.3812408   8.3643017
   4.9201589  18.5378399   8.8094063  77.2283630  48.7518425  61.9250832
  76.8371124  47.9101830  61.6910706  77.3326874  49.2079201  61.0900154
  45.2243271  58.3801460  20.5068741  45.3612442  57.5899429  21.0294304
  45.6096077  59.0830269  21.0300865   5.7790856  30.7566528   0.5747397
   5.1764035  30.1547813   0.1379815   5.2117796  31.4175682   0.9717114
  80.1923599  60.1492043  63.2947502  81.0626678  60.0513954  62.9084473
  79.8554001  59.2553291  63.3553925  42.6393623  32.2426567   5.3600116
  41.7697105  32.6404724   5.3189969  42.5695534  31.5851116   6.0521030
  33.5414505  62.0289383  75.7187805  33.8536491  62.2912903  74.8527908
  34.1307068  62.4711189  76.3299179  61.9268837  42.0251350  24.4793053
  62.3073196  42.4144173  25.2666779  61.1122589  42.5088005  24.3426094
  15.3850231  19.1349640  80.9567261  15.5199471  19.0634956  81.9016724
  16.2391262  19.3953457  80.6118469   5.7760291  43.9595604  56.4047050
   5.0176730  44.1428413  55.8501434   5.8963175  44.7586708  56.9177208
  77.6938095  31.5301266  10.6249428  78.1419067  30.9703388  11.2590418
  77.9479752  32.4200058  10.8693771  71.4507446  31.5740433  41.5174370
  72.1687546  32.2048187  41.5704651  70.8877182  31.9101009  40.8200836
  80.5181198  59.8238831   8.5428925  80.5335388  60.2691498   7.6957006
  80.1735001  60.4778900   9.1509609   3.8176663  55.2359657  29.4725285
   3.0607915  55.4615746  28.9317207   3.6525159  55.6709366  30.3090420
  80.4782867   1.4648279  37.8091698  80.6660614   2.3846304  37.6222610
  80.3574982   1.0652021  36.9478111  65.7988205  11.9465866  71.3821030
  64.8915939  11.8680792  71.6770859  66.2274094  11.1572418  71.7129745
  14.0938721   4.8148050  67.3920898  13.5240641   5.5823336  67.4415970
  13.8957300   4.4238901  66.5411224   2.7600374  65.4867249  24.2051029
   1.8449413  65.5835495  23.9415588   2.7586412  64.7417755  24.8061714
   1.3218080  52.9894180  40.5242729   0.5629950  53.4010162  40.9378204
   1.8229499  52.6238556  41.2532806   0.4373757  -0.0166529   8.3873539
   0.8812162   0.7937194   8.1372852   0.2198462  -0.4371400   7.5554261
  73.7485657   5.1329455  12.6112623  73.8640137   4.6999583  11.7654343
  72.8159180   5.3454900  12.6462059  36.5125313  55.4231224  58.2227402
  36.6194153  56.0476913  58.9401817  37.0154610  54.6559486  58.4961243
  68.4756622  33.0358505  51.8181458  68.9274292  32.5152359  51.1539955
  67.7974243  32.4527512  52.1590614  82.6527863  50.7454681  55.8512726
  83.1879044  51.5333366  55.9468956  82.9546204  50.1647034  56.5497284
  74.8080292  64.1639862  33.4676819  74.4685059  63.3376198  33.1240692
  75.7494202  64.0167084  33.5589027  10.1367121  62.6136589  79.6490173
   9.8236628  61.9903107  78.9935303   9.9671211  62.1846581  80.4877243
  14.2064800  14.6023169   4.2858958  15.1528664  14.7236261   4.3625031
  14.1075888  13.8618984   3.6873701  71.9984589  31.0203800  86.3085632
  71.9735489  31.9455776  86.5527344  72.2508926  31.0230560  85.3852539
  37.4888878  63.1230583  57.5296288  37.2936172  63.3848267  56.6298637
  38.2067146  62.4953880  57.4460335  67.8177185  26.5302486  35.7797394
  67.3268585  27.3450127  35.8867302  68.2029495  26.5956955  34.9059296
  73.5256653  46.4939842  35.8085480  74.0569839  47.1435585  35.3481293
  72.6807098  46.9244843  35.9387817  46.4519920  50.6280670  35.6744385
  45.9546776  50.3972664  34.8898087  46.2193680  49.9535217  36.3124847
  29.9410496  53.9733276  20.7795162  29.8961792  53.0311394  20.6167278
  30.8689575  54.1887054  20.6855259  56.2105293  15.7038660  53.1687469
  56.6667938  15.1392021  52.5448799  56.3903923  16.5929356  52.8630714
  43.7865143  26.0367088   5.2416663  44.4296303  26.5616856   4.7651863
  44.2189407  25.8199520   6.0676551  81.6181335  34.5179214  28.5624008
  81.1785660  33.8743706  28.0066547  82.4182358  34.0786743  28.8507385
  20.9005871  34.8853035   3.7010572  21.4406834  35.4531364   3.1514285
  20.1839848  34.6098061   3.1293802  18.1137848  62.5523415  86.4873505
  17.3872929  62.5096207  87.1091385  18.7762146  63.0836182  86.9291229
  19.5923672  20.3032799  66.7714462  19.4711704  21.0785580  66.2232819
  19.6250267  19.5744991  66.1517334  75.0949631  11.5424271  74.2895203
  75.6013031  10.8476343  74.7103729  74.7931061  12.0909748  75.0135498
  15.2013683  49.1556435  86.2774277  14.2555885  49.0094490  86.2963715
  15.3195333  50.0125160  86.6873550  75.3116455  35.0361748  54.2351036
  74.7414932  34.5816422  53.6149712  76.1893539  34.7094917  54.0372734
   4.4735465  28.9449158  60.7723427   3.8102868  28.8251686  60.0926514
   4.5178313  28.0977325  61.2156868  58.7863884  44.5825920  38.7392311
  59.6325569  45.0289154  38.7071266  58.9098015  43.8809395  39.3785133
  11.6882162  59.1590195  13.7712889  11.4933233  58.2920113  14.1270208
  10.8721352  59.6487503  13.8733082  50.2898674   9.8425875  75.9216080
  49.7017517  10.4839439  75.5228424  51.1204681   9.9601574  75.4606171
  74.2994690  38.7666817  15.9851255  74.4651337  38.0274467  15.4000444
  75.1703491  39.0596542  16.2533932  52.1165581  43.4302483  38.2881660
  51.8503838  42.5332680  38.4901772  52.1312790  43.4660721  37.3317490
  68.6785126  22.1351452  42.6118393  68.2799377  21.2894039  42.8169975
  69.0860214  22.0064068  41.7553368  43.1085739  25.4154320  18.5524521
  43.4282608  26.2950859  18.7530479  42.4913139  25.2184620  19.2570286
  69.2161255  39.9996338  76.3837128  69.8366852  40.4698143  76.9405365
  68.5173645  40.6321335  76.2166367  24.9381676  34.0193062  53.5928574
  24.1976089  34.5947723  53.4014320  25.6905117  34.4563751  53.1938896
  11.8999243  16.5494766  77.7927170  12.2867851  16.5554447  78.6682358
  11.3403196  15.7729530  77.7834244  67.2170868  35.8556747  82.0278549
  67.9382477  36.0438194  82.6284943  67.4385452  35.0061760  81.6463623
  20.9026260  20.5895634   5.3207507  20.2116146  20.9286575   5.8897395
  21.2438087  19.8263855   5.7870002  38.1372414  33.0289803  86.2255783
  37.6029892  33.3396454  85.4946289  37.5424767  32.4863548  86.7433167
  84.1274338  26.4439316  56.0843620  84.7797623  26.7951889  56.6904297
  84.1664658  25.4962616  56.2133217  70.5314789  21.3906097  55.4066048
  71.0031662  21.9692307  54.8074875  70.2325287  21.9666233  56.1102142
  36.5621681  46.8462486  60.0344315  37.4316864  46.4464607  60.0528259
  36.4252205  47.1629257  60.9272881  34.3383904  62.4707985  36.5583000
  34.7517624  63.3212357  36.7070045  35.0152588  61.9472122  36.1294212
  50.1369476   2.6624360  50.7269783  50.7827911   2.8452580  50.0445633
  50.4583015   3.1363540  51.4940300  52.0138435  16.7574787  87.4674835
  51.9170990  17.5629120  86.9593964  52.3659935  17.0462418  88.3094101
  26.9253139   5.1160116  62.6045380  26.0838165   5.5701914  62.5617332
  27.2467632   5.1218376  61.7029457  40.1897964  64.2798462  56.9709663
  40.5146790  65.1788330  56.9208908  39.6970978  64.1576767  56.1594543
  29.6051693  12.7671900  68.4537659  29.0064068  12.3227501  67.8536072
  29.0329018  13.1846275  69.0975723  17.5236588  41.1691933  55.1564064
  17.0565147  41.1821785  55.9917717  17.0721817  40.5016708  54.6398659
  34.5422440  66.4267807  69.5963898  34.9954491  65.8998642  68.9382172
  34.9682083  66.1967926  70.4221573  86.1574478  38.7657356  80.8380890
  85.7274704  38.2835922  81.5444107  85.4811554  39.3550720  80.5041046
  60.2056465  16.6942654  48.0310631  59.4911079  17.3007278  47.8364563
  60.6629524  16.5873928  47.1969910  85.6202240  27.2627449   0.0346636
  84.9411240  27.9348507   0.0923779  85.7165375  26.9419594   0.9313526
  50.8789024   5.9520211  70.0923233  51.4916229   5.6669612  70.7702179
  51.4029541   5.9789109  69.2917709   0.8215274  15.8206234  84.2830658
   0.9491031  16.6777782  84.6895676   1.2084405  15.2018328  84.9024429
  36.6412888  41.4800339  40.8121223  36.4965477  40.5786743  41.0999260
  37.0389748  41.9119186  41.5681343  20.0760345  71.0935974   5.8136802
  20.0424538  70.4438248   5.1116104  19.2050133  71.4905243   5.8145313
  54.3273125  55.6741333  38.4111633  55.0344353  56.1428070  38.8545113
  54.1775322  54.8989754  38.9523888  16.7600498  62.9403610  81.8611221
  16.7102814  63.2898750  82.7508392  17.4241505  62.2527962  81.9106903
  39.4838676  71.2209320   5.2046375  39.7707481  71.4595108   6.0861206
  38.5967216  70.8822174   5.3249516  69.2302475  61.9850159  37.3370285
  69.6990051  62.8193741  37.3185043  69.9207382  61.3221436  37.3295288
  84.0938339  15.3238630  13.4326620  84.6991577  15.3072300  14.1739683
  84.6599503  15.3134689  12.6608887  82.7633591  58.8196716  30.2898731
  82.1591797  58.4775772  30.9487820  83.5877457  58.9411316  30.7609081
  59.0080719  56.5089378  83.6296844  59.4087715  57.3618736  83.4618454
  59.5944633  56.0884285  84.2586136  60.4024429   2.4538689  19.7824478
  61.0738678   1.8531936  19.4590092  59.8965530   2.6889093  19.0045929
  40.1840515  58.6921463   3.0988550  40.1167679  59.6468277   3.0817714
  39.3811798  58.4031792   3.5325885   5.0597181  23.9785366  82.6942749
   5.0722976  24.7074490  82.0739899   5.8131332  23.4417572  82.4483795
  72.3918686  43.3305359  16.3854027  71.9945221  44.0965691  15.9712315
  72.1479645  42.5984840  15.8189707  46.5314102  68.9889832  70.5862427
  45.7921028  68.8469238  69.9950790  47.1837425  68.3438568  70.3132782
  47.9696541   8.3388519   4.3626432  47.4259682   8.7091770   3.6673028
  48.0628853   7.4156137   4.1277575  18.2137871  59.5952034  69.3346100
  18.0281219  60.4844780  69.6362000  18.4194698  59.1094589  70.1333466
  68.1772842  37.5408363  70.0653534  68.5101929  37.9768677  69.2809525
  68.9371033  37.4755859  70.6438370  27.7349281  41.1794357  61.4684143
  28.4661198  41.4002571  60.8915024  27.0287476  40.9263039  60.8738861
   1.8247536  36.5878944  15.7995148   1.1518456  36.9280510  15.2098379
   2.6498513  36.7590294  15.3454695  76.0194778  34.9382095  79.4806061
  75.3425827  35.6146622  79.4592972  76.0212555  34.5731964  78.5957336
  46.6177292   3.0467317  78.4607239  47.2369499   3.0264564  77.7310791
  47.0921516   3.4880223  79.1652985  74.5642471  55.6877785  41.0943375
  75.0535049  55.8430862  40.2864151  73.7440414  56.1661797  40.9733658
  45.4240685  63.0270195  79.1304245  45.3782272  63.8916702  78.7223663
  44.5334015  62.6828995  79.0631485  72.6501999  20.0936584   8.9556589
  73.1748810  20.8859825   9.0704107  71.7928696  20.3197994   9.3163223
  26.0383911   3.3860927   4.4986601  26.6302910   3.6088946   3.7801580
  26.5104561   2.7216823   5.0006003  78.6183624   4.4125285  43.4498253
  79.2561111   5.1043930  43.2742271  78.0153809   4.4485211  42.7072945
  26.9979534  68.3395996  28.0900860  27.5668621  68.0018234  27.3983631
  27.4960194  68.2058334  28.8964767   4.1910505   3.0016561  43.7622681
   5.0532637   2.6003401  43.8707352   4.3464141   3.9387159  43.8806458
  86.5468979  11.2439137  78.5843201  85.8002090  10.6541452  78.6885071
  87.2252808  10.8735161  79.1489716  73.1061020  51.3933411  41.3471680
  73.7064972  52.1030045  41.5754929  73.6437454  50.6024284  41.3875427
  63.7365189  10.8743353  58.6670609  64.1524734  11.5376568  58.1164093
  64.3558350  10.7351027  59.3835068  37.5595322  31.8445415  71.3710022
  37.7580795  31.4120045  70.5405121  37.6043167  32.7795029  71.1708221
  30.7055836  40.0559044  88.4823990  30.6862030  39.1038246  88.3854370
  30.6987991  40.2004738  89.4285965  52.1983261   9.2600298  17.2067413
  51.9986725  10.0240898  16.6658325  52.0021515   9.5413589  18.1003857
  61.1852951  13.7337532  77.4485550  60.4242897  13.2678766  77.1020508
  61.3575706  14.4221983  76.8062210  39.7629395  48.6221428  35.3560944
  39.7597046  49.5779152  35.3039207  39.9386139  48.3339691  34.4603653
  79.6237259  24.7155418  73.6551743  78.9184723  25.2768269  73.9773712
  80.1450272  24.5157661  74.4327164  40.5584679  37.5449982  66.7929077
  41.1813354  37.3624496  67.4964371  40.4361801  36.7018776  66.3565369
  79.8961105  65.9456406  75.3544388  79.6628342  65.3779297  76.0889587
  80.0822906  65.3422394  74.6350784  66.8359528  66.1634521  53.1633186
  67.6251526  66.5721054  53.5188522  66.2107315  66.1794434  53.8879356
  26.8372021  58.3924141  78.7176514  26.2266560  57.6556129  78.6934052
  26.6573696  58.8790627  77.9132462  30.7377338  65.9527283  56.3466187
  30.6257572  65.0041046  56.2849617  29.8973961  66.2722397  56.6752167
  58.4911995  30.9218864  50.1036110  58.7951889  31.6603050  50.6313972
  59.0982437  30.2119808  50.3128128  16.7851887  29.3732796  81.6653671
  16.9794846  29.1716461  82.5806961  16.1001472  28.7501945  81.4230576
   9.8014593  63.7243767  62.0166855   9.7326393  63.9200439  62.9511414
   9.7259169  64.5765457  61.5873413   7.0339003  24.2591019  63.6231422
   7.9524827  24.1119022  63.3978233   6.6212349  23.4018059  63.5183411
   4.3575950  71.4506912  37.0907440   4.7943392  72.1121902  36.5541687
   5.0665078  71.0323029  37.5792389  73.8625259  69.4198608   5.1228919
  74.3437271  68.6001205   5.0101900  74.2788620  70.0279160   4.5120249
  31.7817249   2.7667582  20.4859734  30.8669586   2.8719742  20.7474346
  31.8748932   1.8301215  20.3120098  71.9954453  56.0621567   0.8167713
  71.1316910  56.3670120   1.0946602  72.0354233  56.2735939  -0.1159275
  11.9287910  21.5655060  80.0758286  12.4501925  21.2277622  79.3476105
  11.7291927  20.7937260  80.6056900  58.7067184  10.4218130  36.0165939
  57.9874840  10.7537460  36.5539474  58.4941101   9.4992924  35.8752251
  70.1618729  65.9047699  33.5124969  70.7925568  65.2392273  33.7873154
  69.3217010  65.4464188  33.4963913  14.7719460  42.7419586  10.7510748
  15.4036570  42.1497116  10.3431330  15.0092373  43.6088943  10.4219084
  36.8720512  69.5056763  72.5868225  37.4972878  69.9545364  72.0177536
  37.3803329  69.2713852  73.3633499  78.8176651  19.9646645  66.9765015
  78.3114319  20.5686684  67.5197678  78.2050552  19.2594357  66.7677155
  46.0425835  47.1611824  17.5237713  46.1942291  46.5226440  18.2205544
  45.4780006  47.8226128  17.9237576  85.4369125  57.6231270  81.2841492
  86.1835938  57.0641365  81.0691223  85.4755096  57.7187614  82.2357712
  81.7397003  11.6174517  44.7024651  82.5501785  11.7414026  45.1964264
  81.4024200  10.7737207  45.0034523  47.1772385  55.6612930  46.1209526
  48.1156158  55.4943390  46.0326004  46.9994469  55.5415230  47.0538368
  11.6311331  66.7641830  79.7897415  10.9409885  66.1029816  79.7374115
  11.4682064  67.2154160  80.6180420  80.6756134  15.7752161  79.3337021
  80.2318878  15.9494133  78.5036469  80.8645554  16.6429005  79.6909943
  41.1084633   9.0093794   4.3649712  41.0333099   8.1699286   4.8187399
  40.3615494   9.0258904   3.7665739  81.0633545  22.9251595  80.3954620
  80.6508636  22.0891266  80.1783524  81.8770065  22.6830883  80.8377228
  29.7465439  58.3070755   4.5543427  29.2863960  58.8579941   3.9211104
  29.1491032  57.5766945   4.7150912  72.5892715  21.5704060  15.9042711
  72.9953995  20.9582958  15.2905846  73.2190933  21.6439419  16.6213112
  68.0738525  33.5860100  20.0551739  68.4550629  32.7179718  19.9232006
  68.4326019  33.8803940  20.8923512  56.5539627  39.1598396  77.1974182
  57.2048492  38.6046562  77.6267853  56.0816193  38.5669785  76.6129227
  46.0713806  40.2725220  79.3620300  45.9676132  40.5276680  78.4453125
  45.7892761  41.0410919  79.8579636   5.3461776   9.7318869   8.9636145
   5.4784646   8.9264917   8.4635439   4.5535150  10.1178160   8.5908194
   8.3228455  71.3897552  51.8808823   8.2231455  71.2034531  50.9472961
   8.5031195  70.5373535  52.2773018  16.9246864  38.5877457  57.3637314
  16.8302135  38.3485069  56.4417381  17.7867699  39.0003052  57.4170036
  20.6106110  32.4783821  62.8541183  19.7103996  32.7298126  62.6476288
  21.1498260  33.1344795  62.4125137  62.5628624  28.5033684  73.5093155
  63.3375473  28.3928604  74.0605698  62.4637375  27.6618652  73.0640335
  59.7127342  49.4372253  57.5095711  59.1571579  48.6895523  57.7299156
  59.8545914  49.3603859  56.5660629   5.6451807  70.8331223  74.5661621
   5.3044434  69.9407043  74.5051041   4.9111381  71.3882904  74.3031006
   1.9558061  19.2249012  82.1906815   1.2123584  19.2649727  81.5890884
   2.7088223  19.4812946  81.6582718  70.8524704  49.3466148  21.4982872
  71.1143494  49.5461998  22.3970737  70.5967178  50.1922722  21.1299381
  12.1919355   8.0929508  83.8546066  12.5895023   8.9284792  83.6095276
  11.2724104   8.3036671  84.0167847  31.7613602  66.7644882  37.0765686
  32.1576004  66.4165192  37.8754044  32.4970970  67.1251221  36.5817299
  75.6417542  22.1432495  65.8592987  75.7324753  21.8006020  66.7484589
  75.6912460  21.3693485  65.2981796  72.9199219  23.3210087  12.6719093
  71.9801559  23.1456585  12.6236725  73.0651550  24.0242138  12.0389471
  40.1780891  23.1190853  86.9956741  40.2805138  23.1255646  87.9473495
  40.9673157  23.5495110  86.6669006  74.2506409   4.0111365  23.3957329
  73.6414719   4.7418256  23.2897396  74.2522125   3.5750804  22.5436268
  54.1296005  27.2439690  65.5669556  53.5985184  27.5460243  66.3038025
  54.4691353  28.0467854  65.1714325   2.9229650  35.2403755  79.5993042
   3.8087204  35.3854790  79.2667160   2.6722319  34.3859634  79.2481003
  47.8490334  17.6294212  75.9699707  48.6865997  17.3667107  76.3516769
  47.3135338  17.8857517  76.7208099  41.9169731  42.9371185  13.8008919
  42.6142197  43.1149178  14.4321337  41.1861229  43.4828033  14.0912657
  40.2350693  18.6652966  81.5837097  40.4348869  17.8359699  81.1495132
  41.0660820  18.9385090  81.9723053  62.6803932  19.9453983  83.5311890
  63.4292336  19.5588455  83.9851151  62.8782692  20.8812866  83.4966736
   0.1720309  39.5831909  23.0175400  -0.1304274  38.6787720  22.9352112
   0.8712653  39.6619110  22.3686142  21.4527054  26.1826553  82.6462250
  21.9123440  26.9755878  82.9223099  20.6919403  26.5032005  82.1617508
  16.6004124  56.1079445  65.7046432  17.4359512  55.6850395  65.9027710
  16.4225960  56.6566277  66.4685516  63.8250122   3.0494428  28.9861526
  63.4331169   3.8173151  29.4021111  64.2445526   3.3924212  28.1971149
   6.8292050  71.2948608  17.9354362   6.0655456  71.8654022  18.0222549
   6.5431852  70.6005249  17.3418732  71.8488541   5.7443151  61.3212891
  71.9583740   6.0287848  62.2286568  72.4449921   6.3022599  60.8217468
  38.8196526  45.4622421  43.6793900  38.1761398  46.0940056  43.3584633
  38.4868202  44.6129532  43.3892746  12.1770859  41.0640411  32.7629166
  11.2268162  40.9592056  32.7156944  12.3127804  42.0113335  32.7842064
  26.7056522  49.9167366  88.2857361  25.9956684  49.4056396  88.6742401
  26.8710556  50.6161232  88.9179764  63.9705925  49.1892281  55.6402473
  63.4258385  49.9691391  55.5343208  63.5497360  48.6970482  56.3451385
  11.5298615  41.3411522  47.9470062  10.8945360  41.9420357  48.3362808
  11.8339405  40.8061485  48.6801758  34.7213287  31.3068523  81.5887680
  33.9993439  31.8966713  81.3717804  35.3360634  31.4030418  80.8613968
  47.8740807   8.0753365  60.4635658  48.6321793   8.5112391  60.8528061
  47.1508865   8.2769041  61.0573578  25.2626095   2.9346423  61.6880302
  24.3348370   2.9930801  61.9161835  25.6655636   3.6817384  62.1304207
  82.1856079  16.6534748   9.7106066  82.1747589  17.5764580   9.4571981
  81.8820038  16.1876068   8.9314899  35.7052460  71.7362442   6.2805824
  36.1541901  70.9315033   6.5395870  35.2815399  72.0427856   7.0822902
  75.4905014   1.1516950  58.2335358  75.5346069   0.5188457  58.9503250
  74.8968201   0.7523775  57.5976677  86.6898575  50.5823708  33.3420296
  86.6604538  50.8803177  32.4328575  86.5984955  51.3825264  33.8593674
  29.3508568  11.6433620  83.2468262  29.3955574  10.8624477  83.7985535
  29.9250393  12.2753973  83.6793518  59.3506470  37.2799377  38.4016266
  59.6415863  37.4216347  37.5007896  60.1420059  37.0139999  38.8698769
  69.9167175   5.4242272  46.5219917  69.9688721   6.3325868  46.2246780
  68.9948120   5.2982965  46.7466393  22.2308178  59.0198402  32.6387100
  22.7704277  59.7869987  32.4476089  21.3521709  59.3734932  32.7770691
  35.5273438  65.9290314   3.2388873  35.6325912  65.9315033   2.2874942
  34.5813446  65.9810028   3.3753459  28.3301010  65.8454666  29.8127460
  27.6729450  65.1497345  29.7946930  28.6626358  65.8841629  28.9159985
  22.8564758  20.9558525  88.1002350  23.4715290  21.1105404  88.8171844
  23.2821064  20.2911243  87.5587463  11.8645172  42.7872467  24.4578533
  11.9128780  43.6985855  24.1691475  11.0909462  42.4368286  24.0162334
  73.4943161  41.4446030  44.0376816  72.9997330  42.1141853  44.5102158
  72.8295898  40.8285179  43.7297668  62.1287804  65.7544937  69.9864273
  62.6509247  65.2264862  69.3824387  62.5086708  66.6311417  69.9280548
  21.9298267  25.9194527  14.2344713  21.2519550  26.5173016  13.9193535
  21.4473515  25.2268143  14.6858025  68.3214417  11.6864090  13.3241787
  68.6974030  11.8955078  12.4690981  68.8205032  10.9274693  13.6261339
  22.6225052  67.2412796  77.1836853  23.2325191  66.7647095  77.7467117
  22.2128181  66.5632248  76.6464386  71.0201416  66.9264374  45.2393951
  70.4051666  66.2350540  44.9943924  71.5211868  66.5550537  45.9655190
  67.9440079  63.6359825  29.1414013  68.2833862  63.0200081  29.7907314
  67.0033722  63.4608192  29.1137962  77.0610046  48.0826797  12.6412258
  77.3280258  48.7667351  13.2552271  76.2011261  48.3638535  12.3285322
  73.6782455  46.6749687  60.6749458  73.2476578  45.8295517  60.8018227
  74.3628082  46.6978302  61.3435860  33.4339752  38.3083267  53.7385941
  34.3723412  38.4788589  53.8199692  33.3189812  38.0303192  52.8299026
  69.9308548  26.5209942  80.6073608  69.8809280  27.4564476  80.4107285
  69.2103348  26.3658314  81.2181015  12.5058146  57.5011063  63.7654839
  12.7029877  57.1392746  64.6294479  12.2727127  56.7396202  63.2344131
  41.9279594  63.8889847  83.2297440  41.1967926  63.5061760  83.7146072
  41.9417381  64.8065186  83.5021057  78.3178635  52.0432663  61.0405045
  78.0997849  52.0093880  61.9719162  77.6619720  51.4867744  60.6205521
  34.5650063  47.1317406   4.5270886  34.6559563  46.6177368   3.7247438
  35.1180038  46.6802711   5.1647387  64.5520859  57.4212608  47.5383682
  64.5093765  57.0347176  46.6637306  63.8643761  58.0870552  47.5398254
  82.2084351  55.6715164  80.3649826  81.9698563  56.3886528  80.9523773
  83.0579987  55.9281883  80.0063782  84.1855240  24.8032646  82.0898438
  85.1015854  24.9310341  81.8433838  83.7878647  25.6682549  81.9904099
  49.7861595   7.8015742  19.0638466  49.3681107   8.0472908  18.2385654
  50.1183205   8.6261063  19.4188786  82.3070602  41.9956017   3.3441653
  81.7480392  41.9343376   4.1187487  82.9862747  41.3362732   3.4862287
  61.3731461  55.4292908  24.6453743  61.3320045  56.3598518  24.8658237
  62.1499748  55.3483620  24.0920029  85.3370209  37.2272301  35.9176407
  85.8968964  36.9459572  35.1940002  84.4799652  37.3697739  35.5159492
  47.2908478  24.2277851  62.9737358  47.6314430  23.3720036  63.2342415
  46.4093285  24.2580261  63.3455429  47.7814293  64.3866043   0.6215296
  48.1921158  65.2436676   0.5074795  46.8415718  64.5654297   0.5912095
  34.7607384  20.6993370  72.4657669  35.1309090  21.5772629  72.3738327
  34.2982140  20.5469265  71.6417084  53.7505035  67.9693756  35.4291191
  53.7425461  68.4015732  36.2831535  53.6141396  67.0430832  35.6281662
  78.9159546   5.4039283  35.7875938  79.7239838   5.1935239  36.2556267
  78.4446182   5.9932828  36.3764343   2.4726779  29.7941971  58.0346947
   1.7182595  29.8316975  57.4467506   2.7342613  28.8734436  58.0302544
  65.8801880  40.5931854  66.4967728  66.5270004  41.0818138  65.9877472
  65.6522369  41.1783142  67.2191925  54.8664322  33.2864799  11.3278761
  54.2038879  32.6067123  11.2046757  54.4812927  34.0701790  10.9358101
  14.8714266  29.2560616  61.5609970  14.4763660  30.1225891  61.4646034
  15.2562609  29.0716286  60.7041893  51.2835770  15.6532621   4.2316542
  52.2201729  15.4565420   4.2137365  51.0652847  15.8621073   3.3233788
  67.1451721  62.1304550  42.5931473  66.5516815  62.4691124  43.2634544
  66.5695648  61.7126579  41.9525604   3.2855911   8.8802500  81.9853516
   2.9139493   9.2346792  82.7931213   2.7489362   9.2583408  81.2887268
  34.6996994  57.6490059  25.3814831  33.8237839  58.0185356  25.4930649
  35.1879425  58.3269615  24.9143333  80.4377518  37.1992149  66.0466919
  79.6273270  37.0363998  65.5640488  80.2394409  37.9548683  66.5997696
  69.9471817  22.1209946  16.6685085  70.1780243  22.7451572  17.3565235
  70.7848740  21.7510948  16.3897934  69.2765656  27.7067089  41.5575638
  68.4631577  28.2091694  41.5113716  69.1108551  27.0438023  42.2278862
  55.9522438  14.3505449  47.9047203  55.1595879  14.8710508  47.7743301
  56.3181686  14.6735983  48.7281075   6.4175730  31.0371113  43.2334175
   6.2540150  30.1051350  43.3779907   5.8206229  31.4812794  43.8355789
  36.5976295  51.6893806  36.9337463  36.3431664  50.8653336  37.3489952
  37.3153381  52.0186081  37.4747963  57.2395363  41.3293762  87.1265717
  57.6774101  40.5764656  86.7295532  57.6776352  41.4439774  87.9698792
  53.3772812  62.1150017  52.3100281  53.5477791  61.8565598  51.4042892
  53.6477242  61.3582191  52.8299980  82.2681046  25.5892925  39.9538689
  83.0241699  26.1234798  40.1972504  81.9125366  25.2832336  40.7882156
  11.2605925  41.9375572  30.0202446  10.8519192  42.1532936  30.8585014
  11.3321962  40.9830666  30.0273075  23.1092587  31.2123985  26.4482460
  22.8002968  31.4084091  25.5637379  23.5787907  30.3829899  26.3596325
  32.0519524   3.3844590  82.1031342  32.1929092   3.8131006  82.9473114
  32.9068527   3.4143739  81.6736145  57.3548203  41.4222450  17.1254845
  56.5459557  41.0870361  17.5122719  57.5815086  42.1804733  17.6639404
  43.6416550  65.1799393  18.7642498  44.4612198  65.6528702  18.6197624
  43.2445488  65.1179276  17.8955193  55.1709595  13.9183731  61.9143410
  55.8505554  13.2446318  61.8930817  54.4265556  13.4943066  62.3412628
  82.2716064  50.8793716  51.2052956  82.7517853  50.5986557  50.4262810
  82.3312073  51.8346214  51.1921043  43.5365829  42.8312340  30.4504814
  42.9344101  42.1614227  30.7744713  44.2436028  42.3371468  30.0354729
  42.2570610  54.2549019  79.7265625  41.4910965  54.1724854  80.2946625
  42.8818092  53.6177521  80.0729065  74.8455963  54.5414200  31.7558918
  75.0668411  55.2784653  32.3251457  73.9011307  54.6183434  31.6206284
  40.0087051  42.8729439  33.0472145  40.1114006  41.9687195  32.7504616
  39.1042442  42.9222107  33.3566589  50.5558281  66.2213058  43.7021675
  51.2698135  65.6660461  43.3888893  50.8794327  66.5854263  44.5261383
  80.0567398  22.8315258  58.8944931  79.2636185  22.4559441  59.2767487
  80.3835602  23.4328671  59.5636826  10.6584272  45.7751465  17.4467220
  10.6957827  44.8976898  17.0660515  11.5745125  46.0144577  17.5872517
  43.6874008  33.8424225  86.7229309  44.3812943  34.4762726  86.5413284
  43.1465263  33.8465729  85.9332047  62.5654297  52.1398468  66.7079773
  62.3201904  51.2357750  66.9048080  62.2855988  52.2721329  65.8022003
  52.8331337  50.5868988  89.0675888  51.9938240  51.0470390  89.0599213
  52.8252716  50.0609970  88.2678452  74.3428726  44.7468491  27.2442551
  73.4547501  44.9130745  26.9282799  74.6900864  44.0853081  26.6458874
  27.3113880  46.0362244  44.5774918  26.5054989  46.0510521  45.0937843
  27.0904179  45.5183563  43.8033981   5.3960752  70.2660980  80.2851639
   4.8248820  70.1345520  79.5284195   6.1989107  70.6359253  79.9178543
  76.6127243   8.1924553  63.3464775  76.8959503   8.2585392  64.2584229
  75.8560333   7.6068225  63.3725243  51.7396202  24.1344776   8.2936916
  51.4804077  23.4633770   7.6622930  51.4084244  23.8145199   9.1328382
  59.8764458  21.2356949  30.7005310  59.1262054  21.0992012  30.1219616
  60.6199226  21.3433113  30.1073227  82.1303253  69.1444550  16.5766373
  81.6121750  68.6183243  15.9675932  82.5103073  69.8348846  16.0333538
  23.5734711  34.3481064  82.1657562  24.2257462  33.7509613  82.5320740
  23.3138027  33.9413033  81.3391266  53.1104012  25.7746296  22.7305298
  52.2331161  26.1175213  22.9009151  53.6402435  26.0999889  23.4582920
  54.4006119  52.4818993  87.5922394  54.0470428  52.2635078  88.4545212
  54.7746696  51.6611290  87.2718658   5.2912135  16.8231277  34.0897484
   5.9236569  16.4458351  34.7012177   4.4437208  16.4921799  34.3871727
  60.1493568   0.3416704   5.5660419  60.9807014   0.5692988   5.1497736
  59.5168228   0.9522144   5.1873999  65.3702545  66.1976929  42.8809471
  64.9640121  65.4418716  42.4567719  65.6524429  65.8700943  43.7349243
  41.5295982  41.8079758  36.6099701  41.7663383  41.0243416  37.1060600
  41.9859924  41.7094269  35.7743721  26.5842113  63.7294655  24.5403214
  26.9165745  64.2584457  23.8151016  26.3047028  62.9105682  24.1310368
  28.5738297  67.7437668  61.7484894  28.4418983  67.3634338  62.6169243
  27.8009090  68.2902451  61.6064072  60.9703560  22.8785191  36.9955940
  60.2444534  22.3420620  36.6769829  60.6609344  23.7795811  36.9029694
   2.9665954   8.1866884  16.2914391   2.3388121   7.4742403  16.4120140
   3.5965488   7.8459163  15.6564083  59.0722542  66.2836990  80.6174545
  58.5876923  67.1058121  80.5428619  59.9900627  66.5368271  80.5185471
  48.8584938  33.2768364  48.2104263  48.4879341  32.7889290  48.9458580
  48.2670860  34.0204239  48.0940170  13.6599131  58.4081116  25.4225483
  12.9895782  57.7470970  25.5955982  14.4380236  57.9037094  25.1851559
  67.8270493  71.1548157  43.4698601  68.7460938  71.2590942  43.2234573
  67.5726242  72.0111160  43.8137207   1.0147477  45.8493156   3.9963930
   0.0632597  45.9412079   4.0459666   1.1717907  44.9133377   4.1209641
  70.2813797  32.2336617  61.1213074  69.7823792  32.3403664  61.9311447
  69.7223663  31.6909275  60.5652695  17.6213188  52.9360237  52.3223877
  18.3158741  52.9248619  52.9809456  17.8556538  53.6581001  51.7393570
  22.8141499  61.0455589  73.2249222  22.5792637  61.9536057  73.4160004
  23.5273056  61.1111946  72.5898361  59.2456779  61.6059036  87.4417801
  58.8662796  62.4840622  87.4753036  59.3350220  61.4191055  86.5072479
   9.8345518  27.3434811  60.2745018  10.2558823  26.5388870  59.9722786
   8.9099150  27.1116390  60.3612671  37.4526939   1.2780603  26.4004230
  36.8654366   1.3803875  25.6515007  38.1870461   1.8619127  26.2104836
  42.7205887  50.9923782  65.2130585  41.8610764  51.0265732  65.6329498
  42.7019386  51.7021179  64.5710754  28.7612648  23.5186443  84.7213593
  28.2543449  24.1319313  84.1892471  29.4850540  23.2515030  84.1547852
  12.4939489  71.6234665  71.2912216  12.6555681  70.8486176  71.8294678
  13.0537825  71.5032806  70.5241623  57.2253990  31.5561523  45.9408455
  56.7848396  31.3867207  46.7735710  58.1297340  31.2788677  46.0875549
  73.1351852  20.4548702  66.8455734  73.9253540  20.9507198  67.0600357
  72.5297699  20.6476288  67.5615082  81.4598694  45.9755630  49.0479202
  80.8646164  45.2274818  49.0956802  81.0834351  46.6198349  49.6474571
  38.3333626  15.4957352  80.5639572  37.5170135  15.0860939  80.2776108
  38.5922661  14.9975357  81.3392029  51.5610619  69.5638123  51.5422058
  51.6817665  70.3884583  51.0714340  52.1052895  69.6527939  52.3245964
  13.0422506   9.8906908  59.4059639  13.4053383  10.6328382  58.9226265
  12.8308344   9.2456703  58.7310677  26.9030762  40.9632339  27.0823689
  26.4689903  41.2276726  26.2712746  26.8959484  40.0064011  27.0568867
   3.0106559  56.8274612  63.7757530   2.2212222  56.5179596  64.2198639
   3.7003138  56.2330551  64.0711975  14.0328732   6.4617643  10.8134050
  13.9131384   7.3751788  11.0733480  14.4870319   6.0595922  11.5538301
  69.9323654  11.6224384  84.7937164  70.8728104  11.5817442  84.6201401
  69.8258133  11.1868248  85.6393661   5.7087975  14.8569584  11.0338640
   5.8173213  15.7134495  10.6204901   6.5400953  14.4087458  10.8780394
  50.3457375  10.9863386  81.9251328  50.3323975  11.4733391  82.7490768
  51.1756287  10.5096560  81.9420700  43.9290771  36.7048874  21.6543617
  44.0895042  36.4960098  22.5746136  43.5717430  37.5927696  21.6690598
  56.7398109  17.0385628  41.0582809  56.7122955  16.3103657  40.4376335
  56.5431366  17.8116875  40.5292931  29.2984619  28.8309402   6.0564203
  29.8010006  28.9939995   5.2582355  29.4730129  27.9134483   6.2661142
  10.4161797  70.8615189  55.3710785  11.0496330  71.5726395  55.2747650
   9.5982075  71.2212906  55.0279808  84.8708420  18.4065418  58.6898422
  85.2512512  18.9361782  59.3905640  84.1149597  17.9810658  59.0946159
  76.1860733  51.9712868  17.1554470  76.8359375  52.6413383  17.3674259
  76.1888199  51.9289932  16.1991863   8.9909878  43.8356590  40.4195786
   9.6142206  44.3444519  40.9381752   9.4551964  43.0236053  40.2163315
  35.0187340   0.4477599  12.4489412  35.6299400   0.4474862  11.7122860
  34.4418373   1.1929411  12.2812309  24.7066555  20.9793835  76.4354782
  25.3672047  21.1021633  75.7536926  25.2092266  20.7516575  77.2176514
   0.2845146  62.7100182  12.4090157  -0.1854133  62.8416214  11.5855598
   0.1296899  63.5143356  12.9043274  54.7284203  45.9544792   2.8652270
  55.5162430  46.4981308   2.8683963  54.0232315  46.5560799   2.6264405
  67.7726593  12.3502989  68.1181717  67.8059769  11.3999424  68.0088806
  66.9169769  12.5160275  68.5138779  11.7319546  45.3011513  29.2213707
  11.0599403  45.2454529  29.9007282  12.5467978  45.4472313  29.7019157
  73.9524918  17.6122608  78.5563126  73.0937347  17.6505413  78.9773788
  74.3562241  16.8185501  78.9074020  11.8736572  23.8447571  68.5329056
  12.1474380  23.8669071  69.4498444  11.0444412  23.3666897  68.5420074
  36.8426590  43.5433044  17.8196068  36.5302467  44.4371643  17.6794567
  37.5898285  43.6405258  18.4099617  81.7395325  36.0585785  37.8913193
  81.8503418  36.9015770  37.4516449  80.7996292  35.8843498  37.8418236
  64.7134323  71.0749130  25.0826054  64.6136017  70.7183228  25.9652786
  65.4559784  70.5966568  24.7136459  20.3947849   8.0759010  71.9921112
  20.6415768   8.9773121  71.7852707  19.6023026   8.1601925  72.5223007
  11.7741327  27.5635815  73.0938110  11.1337824  28.0480213  72.5727539
  11.3173962  26.7624149  73.3502350  52.2660408  55.3649826  57.5139313
  52.4740410  56.2929649  57.6226349  52.6423645  54.9431000  58.2863464
  67.0171814  14.6280584  55.4672012  67.8344269  14.1501713  55.3259087
  67.1738892  15.4898844  55.0812836  78.7556381   4.9423766  77.6443710
  78.0256119   5.2671690  77.1173019  78.6634369   5.3922062  78.4842453
  75.1313095  16.4915390  12.0530214  74.5618210  16.8137894  11.3544006
  75.9936829  16.4178467  11.6442223  81.3383179   1.4793898  52.9340401
  80.8150406   2.1264319  52.4610214  81.0205307   1.5272055  53.8356781
  13.8702822  43.5863609  37.2463722  13.3086824  44.2591324  36.8613853
  14.5418339  44.0772018  37.7200050  67.2929001  42.4232826  82.2783737
  68.1181870  42.5324783  82.7508240  67.2321854  41.4817772  82.1167755
  17.7541256   5.8594489  64.9737015  17.9290295   6.8005304  64.9711227
  18.1565037   5.5432696  65.7826233  84.8134918  70.8350525  48.8825378
  85.3031845  71.4334183  49.4467926  84.2789841  70.3196869  49.4866371
  70.4156723   8.6300058  21.4455318  69.5857468   8.9834518  21.7657452
  71.0566711   8.8854733  22.1089230  26.6339550  67.3963470  74.0743408
  25.7169552  67.1298599  74.0085297  26.8702641  67.2186584  74.9847336
  63.9324722  50.1817360  71.2514572  63.5653038  50.9759560  70.8633347
  63.5765457  49.4691353  70.7206573  27.9061222  59.2760010  57.5023880
  28.6250496  59.1284904  58.1168938  28.2631264  59.0232811  56.6509705
  40.2856216   9.4055080  17.2767315  40.8160973   9.3536587  16.4816589
  39.5161171   8.8688812  17.0866642  32.6385384  40.9046478   1.3483937
  31.8282166  40.7625656   1.8377002  32.4463577  41.6486359   0.7776241
  70.1495895  63.6099091  63.3287163  70.2087250  63.8372116  62.4007797
  70.2299500  62.6562691  63.3473053  46.6863022  48.7945976  54.5354042
  45.9090614  48.2361221  54.5505295  46.9805145  48.8203125  55.4459038
  71.5897217   6.0358944  64.2591553  70.9978790   5.3502674  64.5687714
  71.2128143   6.8482604  64.5971375  72.9001007  11.2430210  13.5175848
  73.1887970  11.5675545  14.3705578  73.0835724  11.9621611  12.9130945
  64.9439850  61.5045433  50.0223808  65.8129654  61.6078606  49.6345253
  65.1030884  61.4902611  50.9661560  50.4090538  43.6375389  26.4831429
  50.4783745  43.2823906  25.5969734  50.6305504  42.9018364  27.0540295
  56.8091583  21.6548233  29.0636597  55.9120827  21.9519367  28.9113140
  56.8155251  21.3711662  29.9778423  71.7954483  45.9210358  15.1178904
  71.3608856  46.6253166  15.5988989  71.0792847  45.4212341  14.7260475
  81.7019730  47.7898064  63.7293243  80.8729553  47.4341774  64.0494766
  81.4517593  48.3716278  63.0116158  49.2942963  38.4307175  76.3354111
  49.5676231  37.8853760  75.5977554  49.6569862  39.2950783  76.1415787
  64.7420349  33.7518272  80.1436234  64.9466019  33.7299423  81.0784531
  63.7891960  33.8362465  80.1088715  26.8068581  48.4346848  72.4945984
  26.2545414  48.5181503  73.2719116  26.1881504  48.3580208  71.7682724
  17.5593529  48.5136147   4.0180974  17.9375000  47.6354637   4.0638142
  16.7695160  48.4069710   3.4879875  31.0101929  51.0522194  79.7786179
  30.2091160  51.1674538  80.2897263  31.0798683  50.1059074  79.6526184
  68.9067154  55.4653816   9.7470598  69.0802841  54.8892975  10.4915257
  69.4728470  56.2231903   9.8935194  58.8912811  39.3612556  40.1355705
  59.1839714  38.8301010  39.3950043  57.9992599  39.6215897  39.9058723
  12.1670885  39.1193466  81.4519806  12.1942015  40.0758171  81.4776382
  11.4265327  38.9159737  80.8806229  49.7326012  32.0859032  85.2265701
  50.0625954  31.1876259  85.2057571  48.9692841  32.0740891  84.6491318
  86.2691040   6.9908996  60.6477928  86.7400513   7.1544728  61.4649162
  86.7374344   7.5093679  59.9935112  76.7904892  40.1875267  53.0885201
  76.8654861  40.6375198  52.2470245  76.7288284  39.2601624  52.8595543
  75.8208313  49.9462051  18.7344131  76.3221512  50.5980759  18.2445431
  74.9863815  50.3764572  18.9209995  55.0079041  66.0912781  19.1662979
  55.4597816  65.8563919  18.3558254  54.1186066  66.3119583  18.8893833
   2.3943315  39.1937866  38.5003929   1.4790097  39.1841927  38.2205238
   2.6600029  38.2743721  38.4821892  19.9591923  29.9532452  67.0323639
  20.7483826  29.8523293  66.5001755  19.3172722  29.3745079  66.6209869
  45.3853455  11.7441797  58.6539040  44.6141891  12.3112068  58.6597557
  45.4546852  11.4248800  59.5536118  39.7605629   0.6248053  52.4765282
  39.7043495  -0.2361375  52.8910751  40.4549713   0.5317190  51.8243294
  38.1893082  46.6318398  73.3627548  38.9782600  47.1349945  73.1611938
  38.4184151  46.1304092  74.1452560  44.5465240  56.1129913  80.1656189
  43.6554451  55.7850494  80.0445328  45.0454140  55.3493576  80.4558029
  64.9253235  39.5486031  11.4595566  64.6918182  39.4493637  12.3825197
  64.3843689  40.2761612  11.1525335  60.3666992  56.2334366   1.0770916
  60.8627663  55.7437897   1.7331365  59.5696030  55.7196999   0.9469189
  84.2261810  54.6062775  50.6467247  84.0893936  55.3593674  51.2215118
  83.3701706  54.1802483  50.6023331  37.4811974  58.3832016  70.3473663
  37.1271667  57.9431229  71.1201706  37.3602982  57.7534523  69.6367111
  37.8229485  42.0271988  10.4366693  37.6051521  41.0951157  10.4408178
  38.6704597  42.0770988  10.8787861  80.0389023  59.7572746  54.2779274
  80.4711151  59.7698364  53.4239578  79.1176987  59.5913353  54.0777092
   0.5750860  33.3118286  66.2137909  -0.1305153  33.9372025  66.0486679
   0.1660162  32.6214600  66.7356033  62.7018051  51.5627708  32.5559692
  63.4961662  51.9571762  32.1958771  62.9437180  51.3068962  33.4460487
  49.4712639  57.5778160   8.2327747  49.4760666  58.4249573   8.6783724
  48.5967751  57.5141182   7.8487892   2.0863669  41.1751709   7.0349188
   1.4983310  40.8967056   6.3328476   2.7790675  41.6618690   6.5882411
   2.6155763  11.4393578  72.1240845   2.3066316  11.6595135  73.0029068
   2.2648335  12.1334620  71.5660248  65.2840118   7.5278606  23.1489124
  65.5640488   7.7702680  24.0315514  66.0899124   7.2607903  22.7068291
  40.8372688  47.8416672  47.6729126  41.6136131  47.3548622  47.3962593
  41.0110207  48.0708656  48.5858803   4.4030147   9.3590660  64.6886978
   4.6770043   9.5221853  63.7861748   4.2370634  10.2298975  65.0497360
  14.4374094  23.2850227  67.6121063  14.4006739  22.3572044  67.8445663
  13.6733294  23.6699219  68.0413666  45.0405998  32.8262520  10.2430334
  45.4878502  32.5826492   9.4325666  45.2408485  33.7552872  10.3571749
  32.8269310  65.9238281  72.0805359  32.4260979  66.7309341  71.7578354
  33.7622719  66.1222153  72.1253586  33.2676468  54.8157616  50.4946594
  34.0481796  54.6154137  51.0112457  32.6472206  55.1763382  51.1281357
  82.4988174  14.9866228  73.4912338  83.4267426  15.2025347  73.5837708
  82.1935806  15.5435495  72.7750702  64.6675491  46.0235672  26.6189690
  64.8805389  45.2415276  26.1097775  64.1009903  45.7049255  27.3216152
  23.6319408   5.7979474  22.4470406  23.7669621   4.8518105  22.3938808
  22.6983414   5.9168386  22.2724342  12.2362175  27.4338779  85.5686264
  13.0839157  27.8784428  85.5672836  12.2291050  26.9342041  86.3850250
   4.1109061  23.9148102  26.2400227   4.6924109  23.9108009  25.4797134
   4.5684123  23.3867016  26.8942566   2.6356099  63.3508186  25.7586632
   2.6918316  63.3264122  26.7138977   1.7138436  63.1764641  25.5684547
   5.5840034  68.7129440  13.0104923   5.7616239  68.3478088  12.1436834
   5.5298600  67.9495773  13.5854473  43.9487190  22.6510372  16.6683960
  43.7346611  22.2410069  15.8303699  43.2034798  23.2228203  16.8525600
  59.9540520  71.9234085  53.0694122  60.1383781  71.6005936  53.9514809
  59.8799210  71.1324158  52.5354996  29.2752876  33.4579201  14.7220440
  29.5745468  32.7595444  15.3042345  29.8037930  34.2173004  14.9675159
  30.2882843  20.4880028  87.3484573  29.6471558  21.1055450  86.9965668
  31.1063900  20.7138939  86.9058456  69.3825073  15.9395351  81.6656036
  69.9318237  15.2565126  82.0502701  69.5571365  15.8864403  80.7259674
  68.1383972  14.2870693  34.0463409  67.4069672  13.6850920  33.9089813
  68.5337219  13.9997759  34.8693886  76.0820618  48.4710617   8.6710062
  75.4140244  47.9411354   9.1059151  75.5970535  49.2042007   8.2921848
  45.4208984  67.7111206  85.5065460  46.2309074  68.0644379  85.1387329
  44.7485542  68.3458252  85.2588806  47.3362427  52.9815903  61.9550056
  46.9076767  53.8261871  62.0936470  46.6315117  52.3390656  62.0371590
  30.5332603  46.5222816  74.7674408  30.2285290  45.8471298  75.3736877
  31.3637276  46.8202896  75.1385880  30.6540279  54.5517426  25.1760044
  30.5044479  53.8431511  24.5500984  31.5953350  54.7187538  25.1282597
  37.4526291   1.2816633  16.5674438  37.1547279   1.7256846  15.7735100
  38.2221985   0.7848671  16.2896099   5.3886309  22.2978630  72.6721420
   5.4008613  22.3835049  71.7188568   4.8448467  23.0266533  72.9711304
  81.9030685  41.0340881  31.7065544  81.2101669  41.6633415  31.9069538
  82.6269302  41.2839127  32.2808762   7.9836974  68.8067017  55.9306870
   8.7026310  69.1298599  55.3876076   7.1946101  69.1543655  55.5151100
  66.5654831  14.6152983  88.9568405  67.1858444  15.3275166  89.1121521
  66.9947662  14.0617313  88.3045273  52.7026558  21.2131596  18.4376812
  53.3878326  20.5624676  18.5905380  51.9844131  20.9436665  19.0101585
  25.6896839  17.8757420  87.5972290  25.1190472  17.9935036  88.3566589
  26.4913387  18.3467522  87.8246689  59.6572685  23.7857418  11.4466391
  58.9930305  24.3716984  11.8095083  59.3420601  23.5825462  10.5659647
  69.2385178  42.6177483  16.3747864  68.6638870  42.9242325  17.0762844
  69.7488174  41.9130745  16.7738552  17.9271126  17.4858456  14.9029522
  17.8240662  17.1169777  14.0257120  17.2747860  17.0282497  15.4333353
   0.0666016  41.2488251  67.9475479   0.2945049  41.5667152  68.8211823
  -0.0114197  42.0416946  67.4169769  52.8606758  44.2262764  85.5490494
  53.1880836  43.5177002  86.1030884  53.6189194  44.4942856  85.0299377
  56.1248550   4.4869227  64.8149033  56.2234993   4.3657422  65.7592621
  56.2693062   5.4230838  64.6771774  20.4778328   7.4178004  47.1901817
  21.1919899   7.8637700  46.7348557  20.0123901   6.9447784  46.5003662
  70.8291855  25.4135990  39.6562729  70.4477005  24.6248741  39.2707672
  70.0807877  25.9891052  39.8141174  64.2207184  65.6972427  79.3266907
  63.5832138  65.8232651  80.0294952  63.7413750  65.9135437  78.5268936
  75.0050964  44.5408745  54.2741623  74.3070984  44.4767570  53.6223030
  74.5502853  44.5104980  55.1158600  70.8195496  65.4291916  20.3089714
  70.1062698  64.9761658  20.7586823  71.1706696  66.0325470  20.9638824
  55.5776901   1.5194546  52.1691399  55.9696236   1.1088357  52.9398613
  55.3768196   2.4123490  52.4495354  17.5338707  63.2393341  22.4804821
  17.7679138  62.3181343  22.5938225  18.3719044  63.6866417  22.3628254
  26.4515686  33.8510056  84.0657730  26.1400414  34.7534485  84.1348953
  27.1073513  33.8767090  83.3689804  27.6254921  68.4530411  45.9082413
  28.0603848  67.6406860  46.1674347  28.3300991  69.0996933  45.8682098
  76.0349884  37.3944283  55.2094955  75.5737076  36.5831795  54.9966087
  76.5513458  37.5886917  54.4272766   3.4880340  11.2341461  47.0246506
   3.5230770  12.0994682  46.6169510   3.8307326  11.3714237  47.9077950
  51.0682564   4.1935434  79.2959976  51.7280807   3.6232114  79.6904373
  51.2746353   4.1878710  78.3613281  75.2187881  48.2611198  89.0996552
  75.3771591  49.1983833  89.2123108  76.0398712  47.9204407  88.7447052
  77.1332321  12.0329618  88.1823273  76.9642792  11.0918283  88.1381454
  77.3768082  12.1900015  89.0946045  16.9068203  51.9580345  13.5307808
  16.9245415  52.7597580  13.0081387  17.2019825  51.2738609  12.9299345
  45.4978523   4.9628134  42.4180489  45.1523170   4.0749631  42.5105705
  46.4420815   4.8429809  42.3165550  85.1995544  53.0315933   4.7947392
  85.9993820  52.6320572   4.4528737  84.6643219  52.2906876   5.0790257
  34.8701668  47.8077164  85.5769501  33.9937134  47.8413429  85.9602661
  35.0242119  48.6952362  85.2532120  61.5478897   6.0045333  54.9512177
  60.7353554   5.6399384  55.3020592  62.1671829   5.9538350  55.6793251
  20.9653282  38.4365273  63.1243515  20.1390591  38.5013809  63.6032066
  21.6163254  38.8102951  63.7182579  57.2634621  28.6150265  43.3287849
  56.7063446  29.0976887  42.7181396  56.6524124  28.0947266  43.8504562
  54.5120010  44.1720123  19.4114990  54.2983513  43.3320618  19.0052071
  55.1310921  44.5802422  18.8062649  73.1844559  16.3497906  37.0787392
  73.7082291  16.5804157  37.8460083  73.8249588  16.2382889  36.3762093
   3.0509815  37.9794922  52.2038307   3.2125478  37.1578979  52.6676254
   3.6864820  38.5923157  52.5737228  18.3736897  49.2753944  23.1133308
  18.1013813  49.3810730  22.2017879  18.1468620  48.3705025  23.3276920
  59.0881729  12.0133638  18.6419201  58.2099762  11.8698082  18.9946060
  58.9958725  11.8634996  17.7010403   6.7551360  71.4728241  42.3136482
   6.6747203  72.3032608  42.7828445   7.3950725  70.9725876  42.8200836
  50.5197525  40.6462975  56.3930359  50.8466492  40.6436882  57.2926826
  50.7187424  41.5245209  56.0684471  51.4651375  57.2773132  71.6642838
  51.7772942  56.8053360  72.4363098  51.8553505  58.1479187  71.7417908
  53.1338234  55.0872688  52.5145912  52.7799873  54.7525673  53.3386116
  53.9629822  55.4981689  52.7593117  78.7237854  47.4056435  37.1430511
  77.8423080  47.2943268  37.4991989  78.6734695  47.0391388  36.2602272
  62.2351456  69.2633438  28.6109753  61.3058701  69.4773788  28.5281429
  62.2756920  68.6532593  29.3474464  68.2193069  25.3330479  59.1670456
  68.7385864  25.8152580  59.8105164  68.4730606  24.4185028  59.2913246
  58.9360275  55.3509521  57.4508438  58.6726570  55.4652596  58.3639717
  59.1825829  54.4283028  57.3863869  47.7242317  17.6395168   3.0628288
  47.6865196  17.9103832   3.9801300  47.5320282  18.4369736   2.5695205
  24.8977013  47.6105499  48.3471909  24.6703701  46.6819229  48.3002548
  24.7474003  47.9390259  47.4607658  18.2909069  70.1115417  24.8429680
  17.4822025  69.6209183  24.6962757  18.1272602  70.9671707  24.4462967
  71.3789215  55.8812141  61.2174530  71.2285843  55.1033249  60.6803093
  71.6052399  56.5664406  60.5885849  69.5959778  68.4927597  79.7198486
  68.6697845  68.6816864  79.8705215  69.8922424  69.1942368  79.1398621
   3.0940874  57.9164467  44.9838181   2.4861777  57.4003754  44.4543419
   3.8778434  57.9953918  44.4400139  27.4094181  70.4949722  78.8680420
  27.2768250  69.6365814  78.4657898  26.8782578  71.0913696  78.3403854
  46.2490311  32.0844193   7.6243844  47.1650887  32.3471642   7.5347366
  46.2682381  31.1286049   7.5766344   6.8787928  43.1131172  85.5077438
   6.8910809  42.1619415  85.6142654   6.9654531  43.4549217  86.3976288
  80.5916290  29.2753963  82.5504532  81.4465256  29.1246662  82.9537735
  80.1959000  28.4055481  82.4957352  50.7528648  19.1902370  78.5381699
  50.9682693  20.1176929  78.4399033  50.5990219  19.0781670  79.4762497
  12.1821766  36.5270233  55.3701057  12.3726950  35.8378258  56.0064583
  11.2858686  36.7967834  55.5703430  40.6996307  41.3611679   8.3841085
  40.2980347  41.2223282   9.2418242  41.5111580  41.8322906   8.5730476
  77.2395554  25.9194622  41.1122665  76.6976624  26.7078629  41.0805092
  78.0902786  26.1998024  40.7747536  62.5667496  14.2654276  64.0638657
  62.2666893  14.3037825  63.1557198  63.2495918  13.5946388  64.0623627
  17.3400002  10.7030439  24.8443031  16.4761162  10.3465672  24.6372776
  17.9539318  10.0331697  24.5433273  19.1455822   2.6094089   8.0078611
  18.5020695   2.9352348   7.3786058  19.7651978   3.3314710   8.1124229
  68.6152267  31.8164425   5.5482903  68.5515976  31.6745720   6.4927783
  68.7069244  30.9378052   5.1797538  28.8081875  58.5470467  39.9354820
  27.9914761  58.8972054  39.5796700  28.9640770  59.0610161  40.7277985
  50.7947922  23.2906170   3.0856655  51.5377045  22.6908321   3.0180354
  50.0523376  22.7916355   2.7450612  83.3691711  44.6388206  27.9445648
  83.2949295  45.5909615  27.8801804  82.5059814  44.3134537  27.6890812
  53.5851440   9.0743246  65.7470932  54.3003159   9.6365595  66.0448303
  53.0231628   8.9744911  66.5154953  44.8370972  53.2068672  10.5714817
  45.4476624  53.5229301   9.9054909  45.0558968  53.7106705  11.3554077
  25.0560074  21.9947758  21.7333546  25.3791370  21.7815647  22.6087742
  25.5942535  21.4663067  21.1440830  21.8665161   3.5100596  15.3869619
  21.1471100   4.0586767  15.0743790  22.0079136   3.7924311  16.2905693
  11.0814037  54.3153610  74.9412384  10.4972982  55.0082169  75.2494583
  11.3284721  53.8399048  75.7344131  74.3317337  66.4389648  -0.0358788
  75.2711792  66.4281311   0.1472893  74.0613632  67.3376923   0.1523535
  28.7104244   6.3295336   2.1904173  28.2512646   6.5690570   1.3854123
  29.6356659   6.4698038   1.9892075   1.2431899  69.1079178  77.3726959
   1.3438033  69.2930145  76.4389648   0.4997489  69.6459656  77.6447754
  22.8139572  70.0701599  12.7365570  23.3599129  69.5950012  12.1101503
  22.3443451  70.7132721  12.2054186  55.5683823  59.6224556  17.1190052
  56.0016670  58.8944206  17.5644951  56.0780602  60.3933258  17.3684483
  24.9581146  30.6023521  87.2164459  24.2296276  30.6349754  86.5963821
  25.2044754  31.5183372  87.3449326  45.8250732  25.6707401  74.4292603
  45.4491119  25.8126411  73.5605011  46.3518295  24.8770275  74.3355560
  21.1578465   1.9659022   5.5973973  20.7675343   1.1460433   5.2945442
  20.4215660   2.4659331   5.9496636   7.9820771   7.5084109   6.7808251
   7.7585301   6.6921282   7.2279735   8.6416836   7.9160609   7.3420491
  41.9899216   4.2074757  69.8379974  42.4554749   4.2900825  70.6702652
  41.5662994   5.0569997  69.7151794  32.1589317  64.5125961  83.5989990
  32.8184776  64.6690292  82.9231567  31.6852283  65.3415146  83.6678085
  33.6848526  58.7032852  13.9760180  33.3993950  58.1145058  14.6746483
  34.6335182  58.5828667  13.9339972  65.2881088  58.3392754  71.8320541
  65.8115463  59.1129112  71.6229401  64.5960617  58.6664963  72.4067078
  14.1781311  45.2917595  25.4057178  13.4448195  45.2746658  26.0206928
  14.5389633  44.4057846  25.4385605  25.5752506  31.9072285  15.4746084
  24.8355103  31.9423923  16.0810566  26.0378799  31.1022797  15.7075567
  60.8799362   0.2704214   1.7033418  61.7259216   0.4667338   1.3008478
  61.0298500  -0.5377548   2.1938608  53.3850555   9.3211126  39.3904190
  53.7490005   9.7574310  38.6200943  53.9344139   8.5462236  39.5086784
  77.5510864   5.6040893  28.8006725  78.3938522   5.7188358  29.2397766
  77.2264709   4.7626929  29.1214676  83.7794418   6.3130779  56.4048347
  83.5548782   6.4503808  57.3251343  82.9454651   6.3879685  55.9410439
  37.7082138  63.6088219  43.7715683  37.9924965  63.2888527  42.9153938
  38.4732132  63.4956360  44.3356552  85.4226303  15.6030540  72.8737793
  85.9370651  14.7983742  72.8099442  85.2530899  15.7052889  73.8102798
  18.9347534  59.9272614  62.8896370  19.6585751  59.9496765  62.2636871
  19.1538601  60.6009178  63.5333900  56.8563957   7.5709682  23.8816433
  56.1662369   7.4016280  24.5229225  56.5854836   7.0833120  23.1038055
  53.6510353  48.6475372   1.9516073  53.7104111  49.1460152   1.1366065
  52.9182091  49.0445404   2.4223390  66.5041656   9.9413242  52.6990585
  66.9061279   9.0814505  52.8226471  65.6264343   9.8509626  53.0700798
  76.5647507  44.5856514  69.7237015  76.3114471  43.6772423  69.8875885
  77.4982452  44.6155472  69.9333038  37.1543465  63.4419327   3.9251788
  38.0003319  63.8895874   3.9371951  36.5105782  64.1479568   3.8674824
  15.4970236  44.1865158  34.0396767  15.7386732  43.8617973  34.9070816
  15.8896389  43.5602188  33.4315338  15.8511887  62.4858932  73.4296265
  16.2168560  61.7619133  72.9213257  15.1765442  62.0797424  73.9738083
  55.2062225   8.1897907   7.3752656  56.0826073   7.9172039   7.1034594
  54.6486053   7.9870439   6.6241407  25.3869743  39.2002602  18.2283077
  26.0778446  38.7289314  18.6939049  24.8784370  38.5141792  17.7959690
   9.1120377   2.0226412  75.7976379   9.9529705   1.5762827  75.8967743
   8.9137878   2.3570395  76.6723404  71.7481537   3.1867604  62.0061951
  71.5680161   3.9753430  61.4944153  71.4534454   3.4028649  62.8908844
  40.2431641  23.4875965  76.7960434  40.7319717  23.2300148  76.0144043
  40.0080223  24.4023914  76.6408310  79.6254578  47.9809227  24.5443954
  78.9844208  48.2897720  23.9041500  79.3975601  48.4406662  25.3524361
  20.4070721  41.2591057  18.4870911  21.1082516  40.6194878  18.6114769
  20.7070637  41.8050728  17.7603493   8.6035137  14.1016150  88.1661301
   9.0999489  14.2066784  87.3544922   9.2382298  13.7520628  88.7915726
  54.6123924  24.9644699  20.6171894  55.4278450  25.4115505  20.8438759
  54.0064278  25.2008572  21.3194427  59.2799950  63.8522491  61.6808853
  59.3256302  63.7912865  62.6350517  58.3799629  64.1239624  61.5010185
  50.6204224  62.7644043  32.7186508  51.2956238  62.1800766  32.3738403
  50.5845909  62.5634995  33.6538429  65.2258301  53.9595146  68.7901688
  64.7466583  54.4639359  68.1327515  65.3185959  54.5585861  69.5309372
  56.2676353  35.7435493  68.9336624  57.2206383  35.6852875  68.8656616
  55.9560928  34.8734360  68.6845169  66.2970734  18.7104244  58.6376419
  65.7126923  18.2604771  58.0274963  66.8190994  19.2917805  58.0846939
   9.1390238  11.1879530   6.8829269   8.1950722  11.1447678   6.7302122
   9.3261042  10.4332609   7.4412036  76.9796600   9.6487265  13.8429852
  76.7211380   9.7190466  12.9240456  76.1990891   9.9091311  14.3319950
  56.3586273  54.1806564  62.3868256  57.1149483  54.5024376  61.8962440
  56.6891403  53.4200211  62.8647728  56.2065353  26.5112171   4.9476953
  56.5340843  27.2796631   5.4150662  56.6840973  25.7758312   5.3315868
  18.5688992  61.4476128  54.7668533  18.4394264  60.5316505  55.0127945
  18.5174847  61.4485283  53.8110352  80.6518402  11.7211676   5.0339093
  80.2377014  12.4229326   5.5361567  81.3680954  11.4178915   5.5917878
  59.2920609  50.7832184  62.9109344  59.2356491  50.0716171  62.2732277
  60.2173462  50.8141403  63.1540909  77.5892258  20.8443451  50.7450409
  77.2536392  19.9535675  50.6443977  78.5396805  20.7509136  50.6806870
  67.4334564  45.3255234  19.8573685  66.7989044  45.6373672  20.5026016
  67.0807953  44.4865685  19.5606976  11.0768003  57.3859482  68.2232132
  10.1322012  57.5085220  68.1286697  11.2002363  57.1817932  69.1502075
  41.3508949  51.7901306  88.8553543  41.9683456  52.5155487  88.7617874
  40.9100723  51.7399063  88.0071869  74.3501663  25.9521084  26.7264462
  73.8962402  25.3128395  26.1773396  74.7641983  25.4278774  27.4120064
   5.1581616  38.8244972   9.4926014   5.1755171  39.7161102   9.8403864
   5.0157456  38.9367447   8.5527344  33.8061142  33.2294807  45.3360443
  34.5513573  32.9362068  44.8117981  34.0729332  34.0841522  45.6745377
  47.4602852  23.8475933  67.2775574  46.9327812  24.3871918  67.8664551
  48.0469170  23.3626842  67.8580322  14.5357103   4.7840052  25.1801205
  14.8135433   4.7526798  24.2646637  13.7252626   5.2931585  25.1671677
  82.1479950  57.5606003  49.0859985  83.0966797  57.5592766  49.2133827
  82.0322647  57.7233353  48.1498604  23.4278183   7.1882520  26.0290203
  24.2444897   7.5216684  25.6573830  22.7629757   7.8176389  25.7495804
   5.3615675  61.5011673  85.5442810   4.6853681  61.8555565  86.1216888
   5.6381183  60.6893425  85.9693680  39.0555687  26.3968468  22.3141232
  39.8662529  26.8831863  22.1641312  38.3897400  27.0733719  22.4375019
  57.0636520   6.4029455   0.1862615  56.3293610   6.8364229  -0.2486433
  56.7511520   6.2370272   1.0756686  19.6414433  33.6312943  17.1140518
  19.0971241  33.4783745  17.8864269  19.8607864  32.7547150  16.7982521
  43.3622169  27.6162739  67.8076096  44.1085854  27.9176655  67.2896042
  42.6574287  28.2261562  67.5895462  53.3021507  38.9720383  14.5956964
  52.7123108  38.8793640  13.8475437  54.1401634  39.2271614  14.2098455
  81.1436005   1.2566293  21.4605179  81.7179031   1.2289475  22.2257881
  81.4938126   1.9676526  20.9238358  51.6554871  51.1394310  57.9035530
  50.9135323  51.6629906  57.6008606  51.9862099  50.7131157  57.1129150
   2.5500426  62.7826233  79.2643814   2.9650011  63.0079422  80.0970078
   1.6343803  62.6183891  79.4898148  44.9244308  58.3551483  61.5540390
  44.3169823  58.7094460  60.9046440  45.5781708  59.0443802  61.6715889
   7.5942674  62.6971321  33.3305550   7.7525511  62.7652855  32.3889961
   6.6751695  62.9422836  33.4372826  74.3400650   8.8864946   9.7303152
  73.6919479   9.0968580  10.4025660  74.2100983   7.9543805   9.5556602
  60.9407959  68.3646927  56.0836639  60.7656364  67.8989639  56.9013710
  61.7508888  67.9749908  55.7548599  59.0543633  29.5761509  84.1554489
  59.3562088  29.7095566  83.2569427  59.8113174  29.7977600  84.6977997
  54.3586273  25.4918175   3.1984181  54.9304886  26.0607224   3.7137356
  54.4368248  25.8212204   2.3030913   9.1501245  20.1179218   6.3803973
   8.6963358  19.2979679   6.5752897   8.6844959  20.4755249   5.6243930
   4.1049399  65.4325485  50.0956688   3.7275300  64.6227722  50.4392662
   3.9265728  65.3999939  49.1557961  80.6562729   8.3996210  20.8009453
  80.6648865   9.1398640  20.1941528  81.5390854   8.3825865  21.1705151
  39.4828949  43.5492516  18.6546078  39.6945839  44.1318207  19.3840141
  40.3206787  43.1548157  18.4121876  33.6706924  39.9388542  87.8053665
  32.8218231  39.8265686  88.2332077  33.6405373  40.8238678  87.4419479
  76.6139526   2.4123659  10.2722559  76.3258362   1.6979364   9.7040882
  76.8061371   3.1329572   9.6722193  39.5866089  -0.0117939  73.2296295
  39.3447952   0.0314081  72.3044891  39.8340950   0.8850653  73.4546356
  70.2665176  70.7000427  13.5410805  70.4933624  70.7191544  14.4708157
  71.0080414  70.2627640  13.1225567  11.1266308  57.5685692  30.7733822
  12.0332518  57.7390556  30.5180283  10.9088192  58.2814751  31.3738422
  17.5235348  44.1925087  22.0045643  16.9481106  43.9165192  22.7179699
  17.1678047  43.7592812  21.2286758  62.7039146  51.6469269  55.5317307
  61.8193245  51.5960732  55.1695976  63.2549171  51.8835373  54.7856445
  46.4516373  70.6612473  28.3259945  45.6734428  71.2114334  28.2369003
  47.1571236  71.2753525  28.5294552  17.9549942  18.0410900  73.9892044
  18.8065071  18.3782063  73.7108002  17.4655781  17.9247017  73.1748581
  17.9559765  60.5178566  19.5962200  17.3926601  59.7822876  19.3557129
  17.3691769  61.2739449  19.6114330  48.4890022  23.2903461  81.6987839
  47.8552437  23.9617271  81.4461365  48.7885170  22.9192791  80.8688278
  36.0317764   1.8584596  64.3881607  35.5869102   1.0141571  64.4621811
  36.4688835   1.9736531  65.2319031  39.2625389  10.9097052  22.8042011
  40.0786095  11.0672588  22.3294010  39.5410805  10.6937561  23.6941509
  77.4987259  31.4780560  49.7801628  76.6866226  31.9353352  49.9983635
  77.4266891  30.6351089  50.2279205  48.8213730  71.1002274   7.0248599
  49.2039642  70.9925461   6.1540790  48.3966980  70.2615738   7.2052593
  77.9295502  10.7902489  36.6905251  77.1336136  11.2854242  36.8842125
  77.9763947  10.1315250  37.3834343  85.3535385  55.5503082   9.7120619
  84.4027710  55.4401627   9.7238455  85.6254120  55.1944275   8.8660936
  54.4605560  61.3987923  74.7258530  55.1459503  61.1170006  75.3317108
  54.1474075  62.2279396  75.0873566  61.2207527  25.8236446  83.4830246
  61.2921715  26.7267017  83.7922516  62.1119041  25.4792023  83.5417099
   0.9225875   9.3243017  26.8937340   1.7293755   8.8442421  27.0804653
   1.1627452  10.2452316  26.9959316  72.4126511  37.8190613  79.2791138
  71.5186005  37.4981155  79.1612320  72.6991959  37.4314461  80.1060791
  49.1959648   4.3227859  57.7020874  48.2879639   4.1279421  57.4701424
  49.7035751   3.6229422  57.2912560  83.8655624  24.6909504  64.0724182
  84.7861252  24.7583904  63.8189316  83.8803406  24.6871891  65.0294952
  53.0810699  49.0693855  73.1000290  53.7667885  48.5361595  73.5021362
  52.9741173  49.8109894  73.6956863   9.4809828   6.9477539  25.1461868
   8.8747063   6.2322254  25.3377037   9.3881826   7.5453777  25.8881207
  22.8834553  41.4775658  67.8465195  22.5617752  40.9387360  68.5693054
  23.8364849  41.4064674  67.9004822  25.8895893  35.2211761  31.7007961
  26.4655304  35.6940346  32.3015709  25.2441559  34.8006325  32.2689400
  17.7521801  47.5999107  66.1363068  17.3442459  47.0370026  65.4783173
  17.5034561  47.2085953  66.9737091  65.9964676  21.3667526  76.8898621
  66.2553253  20.4956131  77.1904221  66.7515106  21.6831512  76.3938446
  13.3729200  37.8224716  23.5787544  12.8049278  37.8721428  22.8098907
  13.4722328  38.7313080  23.8622799  47.0054817  29.0151997  64.4548798
  47.5185394  28.3090878  64.0619354  47.5235748  29.8043652  64.2966690
  37.8217964  60.4240990  85.0186539  37.3518143  60.6522026  84.2165909
  37.1343613  60.1754684  85.6365967  12.3830986  11.8733330  79.0524063
  12.7049675  11.9077415  79.9532166  11.4495811  12.0725126  79.1238556
  69.6059341  62.1903877  33.8430595  70.5211945  62.4674110  33.8007317
  69.1560059  62.9155617  34.2765503  56.5843239  31.6624470  70.8113022
  57.5125885  31.6884251  70.5791779  56.5396423  32.0873833  71.6678467
  25.9941483  56.2815742  28.3258381  25.9801788  56.6360779  27.4368134
  26.9237518  56.2273827  28.5475006  22.4456940  23.1488266  75.6789474
  23.2904091  23.0524120  76.1187134  22.6494350  23.0635643  74.7475815
  56.2726135  20.0652618  18.7749043  57.1348114  20.0543194  19.1905117
  55.6644745  19.8400955  19.4789639  64.1113663  65.0205994   9.1581116
  63.1847572  64.8241043   9.0202055  64.3992157  65.4095688   8.3322315
  41.7626457  14.8060513  13.1082249  41.7306557  15.1543055  13.9992504
  42.6781769  14.5573635  12.9809942  82.8893890  56.0346947  62.2154922
  82.7443085  55.1237602  62.4711876  82.0633240  56.3054581  61.8148117
   0.4840044  25.5975456  83.0046387   0.7752599  24.7589474  83.3626251
   1.2080054  25.8849030  82.4483337  61.1242218   4.1055145  62.8414726
  61.1594429   3.1741548  63.0595551  60.5544205   4.1503320  62.0736504
   9.7335434  43.7393494  80.1504440   9.7838345  43.3622398  81.0287933
   8.8352537  43.5683861  79.8674622   6.0871582  46.4972610  81.2650833
   5.2034192  46.2947197  81.5720291   6.0029616  47.3499641  80.8384171
  57.0189781   6.6284227  79.4782028  57.6690636   6.3591146  80.1271210
  57.0755005   5.9632382  78.7922211  76.0319748  13.6338749  41.0709114
  75.5245743  14.3193645  41.5055161  75.3799744  13.1165409  40.5981636
  69.6079559  57.4114494  25.9599819  68.9069138  57.1250420  26.5454216
  69.1790543  58.0083160  25.3467770  74.6034012  10.1059847  55.8506775
  74.2293701   9.3403082  55.4147072  74.9540558  10.6399889  55.1378593
  80.4211273  10.7746696  78.2428970  79.9391861  10.3033323  78.9224548
  80.2318344  11.6976957  78.4114914  54.0974541  66.7016144  12.3185720
  54.5538635  66.8242035  13.1509743  54.3334694  65.8154526  12.0442533
  70.3446198  43.8203163  13.9063835  70.1880035  43.3890190  14.7464323
  69.7080688  43.4241066  13.3113680  81.8642273  42.5414352  85.4791794
  81.5224915  42.9591103  84.6886063  82.2677994  41.7316055  85.1668701
  14.3791523  53.1120415  71.8452835  14.5664473  53.4062920  70.9538956
  14.5399170  52.1686592  71.8248444  81.5021439  39.1819344  36.7385445
  80.7940826  38.9668770  36.1313972  81.8767090  39.9919510  36.3924103
  36.2062683  36.0001221  87.0253448  37.1139603  36.0005913  86.7214890
  36.0946083  36.8518600  87.4476013  48.4166679  67.1283722  69.8701248
  49.2216454  66.8477402  70.3054276  48.6413918  67.1469650  68.9398651
   9.6545897  27.0805626  70.8046494  10.2967873  26.4624977  71.1536636
   8.9390392  26.5292206  70.4880447  80.3079224   5.9851408  14.4687796
  80.0792084   6.1351113  15.3860731  79.6302643   6.4463062  13.9744816
  26.9477539  40.1890564  43.3372231  26.7798729  41.1303978  43.2933655
  26.9516735  39.9898262  44.2734528  84.5576096   3.9144719  28.5051689
  85.3716888   3.5272694  28.1833324  83.9351959   3.1873724  28.5179138
   3.1684809  71.1726990  64.2242432   2.5154898  70.5331802  63.9399033
   4.0093751  70.7620773  64.0229492  76.6079407  26.3866367  23.8850536
  77.1710052  25.6670074  23.5998802  76.0854187  26.0147877  24.5956402
  35.8947144  18.7968197  19.0506878  35.9015846  19.5084724  18.4105816
  36.6002235  19.0154762  19.6595192  54.2169991  31.3284378  19.8055477
  53.9375229  30.7297840  20.4981804  53.4043159  31.7189083  19.4841270
  16.0884762   2.5961728   6.8670588  15.4494257   3.0710330   6.3356891
  16.0159817   2.9891305   7.7368641  64.6447983   1.3258104  67.8972931
  65.1996841   1.5804939  68.6344986  65.2118225   0.7868498  67.3457108
  39.2643242  44.5805130  30.7375698  39.5719299  44.1328926  31.5257626
  38.3130302  44.4765129  30.7589016  23.1028671  35.2296677  15.5787029
  22.3241768  34.9853859  15.0785027  23.6917019  34.4807129  15.4861307
  56.5924530  12.7734337  36.7128258  56.9756088  13.6496305  36.6715546
  56.9029198  12.4151859  37.5443916  40.3040581  46.4159927  57.4889297
  40.8043709  45.8320160  58.0589218  39.3890038  46.2306709  57.7000351
  35.3971100  31.0189056  85.8219681  35.2508011  31.7980499  86.3583984
  34.6799812  30.4293823  86.0552521  75.5510712  16.1641006  18.8751621
  74.7091217  16.4355984  19.2407169  75.3866653  15.2916813  18.5172749
  68.1688995  11.8558197  82.5486908  68.4993134  11.5705109  83.4005508
  68.6409073  12.6688871  82.3687973  53.2149010  51.3096466  78.2336502
  53.5136108  52.1614990  78.5520096  53.6332893  50.6759911  78.8164597
  28.1047153   8.4374065   6.1720443  27.2267590   8.1929855   5.8793287
  28.6858044   8.1108055   5.4850941  35.6409187  50.4976387   0.3789575
  35.0725479  49.8473053  -0.0336539  36.4636803  50.0333519   0.5330270
  74.1931152  15.8955660  66.5289078  74.4085007  16.1296711  65.6261139
  74.2640381  14.9412842  66.5523148  37.6521950  51.0180511  34.5174294
  38.3964653  51.6129875  34.4260826  37.2227020  51.2943039  35.3270302
  53.6566582  41.4667969  77.4406738  52.7253799  41.5363770  77.2306519
  54.0922470  41.4314041  76.5890656  52.7615089  49.9968872   4.2294703
  52.2307777  50.1858025   5.0033360  53.6561241  49.9295959   4.5631871
  32.4172516  70.1415634  36.8304558  31.6312027  69.8393173  37.2854309
  32.1874161  71.0132141  36.5085258  82.5557175  62.7540016   9.7939835
  82.8762970  63.1091347   8.9649258  81.6254883  62.9792290   9.8072872
  79.1073380  65.9211273  31.7928333  79.1614685  65.0281296  32.1332092
  80.0150909  66.1627960  31.6089535  19.8016014  22.4782600  80.6808167
  18.9225445  22.2030430  80.4205322  19.7204609  23.4183578  80.8416367
  39.9540062  69.6829376  81.9739532  39.9715004  68.7509995  81.7562027
  40.5502319  69.7662506  82.7181396  12.7276373  58.9473991  74.8419724
  11.8434744  58.9972305  74.4786530  12.9900064  58.0364342  74.7095566
  51.3496819   4.7645679   8.9650850  51.4556389   4.9469643   9.8987532
  51.6521454   3.8623428   8.8614655  55.1909447   9.7936468  81.8786392
  54.5824394  10.4422426  81.5246964  55.7798386   9.5953455  81.1505508
  38.3026466  59.2100258  56.0634308  37.3639984  59.3894043  56.0087051
  38.5871048  59.1423836  55.1519814  71.3077393  21.1303768  45.3187981
  71.2152405  20.1849823  45.2008820  71.2574005  21.4883537  44.4324837
  27.6132412  70.3564148   1.6944450  26.7508430  70.7424316   1.5411831
  27.8521061  69.9629364   0.8551885  21.7801552  15.9950066  69.4957275
  22.4748611  15.8459654  68.8543167  21.4459419  16.8676739  69.2883911
  72.7572708  35.3992424  48.8028107  73.6943970  35.2316818  48.9025612
  72.6806641  35.8331757  47.9530640  73.3755798  21.2732124  23.3417301
  72.7384720  20.5600185  23.3006744  74.0614929  21.0174313  22.7250252
  17.7675991  51.8019524  60.7860374  17.5329876  52.4043350  61.4919586
  18.1904697  51.0665207  61.2293739  27.9059219   8.8637848  11.0366850
  27.8668137   7.9155788  11.1616173  28.0240612   9.2168808  11.9184999
  51.1319389  44.5779724  76.2254868  51.3786888  45.4528427  76.5254059
  51.2527046  44.6072235  75.2763901  15.8529263  71.1891403  86.7463913
  16.1155624  71.4278183  85.8574066  14.9491844  71.4959183  86.8196487
  60.7393036  18.1951981  24.2630329  60.4768791  17.8639030  23.4041920
  60.3292732  19.0580902  24.3224049  56.3458252  44.3667297  81.6847534
  57.1443710  44.1706505  82.1747589  56.2261047  43.6110229  81.1095886
  61.0390434  49.0911903  81.8731613  61.7130890  48.4710541  81.5950851
  60.7505264  48.7650452  82.7255783  74.2829437  66.9630737  42.0508499
  73.8544159  66.3612900  41.4422073  73.5678101  67.4844589  42.4155121
  67.5630035   3.8249531  75.1972656  67.3907318   3.9862680  76.1249161
  68.5157013   3.8739269  75.1185379  15.2549105  47.8174362  44.6984825
  15.0667067  48.5567284  45.2766342  15.7038002  48.2079735  43.9486771
  49.0421371   6.0566468  20.8675442  49.2815285   6.5785861  20.1017094
  48.1943550   5.6741781  20.6412315  76.2138901  19.9817924  32.8866844
  77.1081772  20.2044792  33.1453438  75.6647415  20.6048527  33.3625603
  47.5853806   2.7178545   3.4575257  47.3770714   2.1656799   4.2111444
  47.5611954   3.6109743   3.8010139  72.2636948  53.8098793  69.6246872
  71.7979965  54.6379280  69.7416687  72.9968719  53.8586922  70.2381210
  31.8752060   1.6863984  46.8759041  31.4172783   1.2581285  47.5991745
  31.7218800   2.6209135  47.0152054  58.2878685  46.8518486  14.8965178
  58.8613701  47.0831375  15.6271553  58.5614357  47.4305305  14.1848154
  42.0350990  51.4534340  52.1445961  42.9319992  51.6666870  51.8870583
  41.8788834  50.5856056  51.7721672  17.2717533  27.2349262  70.2142715
  17.2773228  27.7841816  69.4303589  17.8780022  26.5223961  70.0117950
  46.1811752  67.7741394   1.2094303  46.1520004  67.9641953   2.1471188
  45.3328743  67.3733292   1.0197761  16.5890579  40.3145599  75.5797043
  16.7524014  40.0734863  74.6678696  15.9261713  39.6913872  75.8771362
  76.6744156  65.6645660  20.3887978  75.9088974  65.6878586  20.9629726
  76.7103119  66.5393448  20.0018883  57.4165535  44.4774857  86.2627106
  57.8714752  45.0370789  86.8921051  58.0029411  43.7312622  86.1380844
  53.8700676   0.5182644  12.0687838  54.3015900   1.1536161  12.6400537
  54.5860023  -0.0056249  11.7093258  79.3147964   5.5479717  17.0774670
  78.7297821   6.2933073  17.2133427  79.1068878   4.9467998  17.7927284
  69.3221436  36.0722389  15.3228416  69.0857086  35.7728081  16.2007217
  68.5533447  35.8756256  14.7875681  56.6452980  16.6332016  76.5387421
  56.7375946  16.3377876  77.4445267  56.1139259  15.9566011  76.1191101
  39.0915260   3.4717274  44.8549538  38.4772377   2.8240027  44.5095024
  39.0183487   4.2146211  44.2557983   7.3289595  24.3762341  42.5007858
   6.3832526  24.2309647  42.4730949   7.4726205  24.8646526  43.3113670
  13.6175585   1.8023827  29.1540241  14.3246012   2.3664143  29.4673805
  14.0638771   1.0334005  28.7994862   3.5622218  38.1342354  35.4515991
   4.0233626  38.9049721  35.7825775   3.4877350  37.5555000  36.2103767
   9.4193611  65.4695511  45.1642952   9.8181572  65.0466919  44.4037819
  10.1613884  65.7304459  45.7097893  42.8601456  29.9623928   1.3297129
  42.3866692  29.1638412   1.5628853  42.8038330  30.0041294   0.3750825
  71.6341400  70.6307220   3.8880801  71.5864105  69.7696457   3.4727526
  72.2082672  70.5010605   4.6429281  56.8841553   6.8273430  27.4756203
  56.6832733   6.1503367  26.8294468  56.3635750   7.5823021  27.2012711
  15.6857681  56.5402527   1.3959532  15.3211260  57.4199791   1.2992522
  16.3598824  56.6330643   2.0691445  47.2210770   3.1671765  49.9176254
  47.4651222   2.4898591  50.5484276  46.7763748   3.8334367  50.4416199
  59.4674072  15.9463100  64.9346008  60.2585335  15.6686850  65.3964233
  59.2396088  16.7861786  65.3332977  49.9423866  43.1481895  81.7146225
  50.4841766  42.7118492  82.3721237  49.0713272  43.1871300  82.1095505
  83.3762741  -0.1047125  53.2020683  84.2524261   0.2250214  53.0023766
  82.7970734   0.6393864  53.0375404  19.9241028  46.8839798  73.7433014
  19.7619171  46.8981934  72.8000488  19.9396267  45.9540596  73.9696732
  38.6387939  33.6527748  82.7598419  39.4864273  33.8893089  82.3832779
  38.3634148  32.8815002  82.2643280  11.2992373  54.3099403  81.5807266
  10.5520525  53.7528496  81.7988892  11.7083588  53.8788986  80.8303604
  80.8414612  12.7953653   0.5403387  81.6930771  13.2173061   0.6541169
  80.2429886  13.5144854   0.3380173  27.1777954  21.4584599  86.6647873
  27.4239502  21.8832207  87.4865036  27.2121944  22.1589680  86.0133743
  38.5088692  11.6838884  81.0470200  37.9051971  11.0464087  81.4283676
  38.3277893  12.4970245  81.5184555  23.6967010   7.1578088  10.8611908
  24.2009468   6.6410661  10.2327442  23.7870693   8.0606012  10.5561800
  49.8473206  71.0082550  72.4581833  50.0412979  70.4538803  73.2140121
  49.0724297  71.5060730  72.7188568  43.7773399   7.6730165  82.9276505
  44.2339058   7.6753583  82.0863571  44.4559898   7.4590268  83.5678635
  12.8145504  50.7300797   7.6299376  13.2568264  50.1426353   7.0171299
  12.6233006  51.5138016   7.1147375  10.2210684  30.1595707  79.9588013
   9.7929306  30.6176796  79.2355728   9.7070904  30.3971672  80.7305603
  48.6085358  39.3050728  63.9228745  48.4720955  39.8608131  63.1555595
  48.5572128  38.4114914  63.5835915  80.2580261  45.2220039  10.0311899
  79.5382614  45.8397293  10.1599340  79.8413696  44.3605537  10.0543451
  32.1374321  58.5842285  25.2425671  32.3042030  59.2440910  24.5695133
  31.5979156  57.9261322  24.8043175  24.3370914  20.4463558  85.8692245
  24.1158257  21.2973328  85.4909210  25.2441368  20.5419159  86.1596832
  35.2858124  11.1247625   4.0219440  35.1237831  11.1491709   3.0788729
  34.4152260  11.0496769   4.4126759  76.3802719  54.7802277  34.8643036
  75.7308426  55.4834175  34.8623505  76.1692581  54.2614708  35.6405754
  84.7084274  69.4101791  19.0737648  83.9931412  69.3161087  19.7028542
  85.5011368  69.2557449  19.5875626  74.8275528  65.7361450  60.1743240
  75.5349426  65.1241074  60.3774185  75.0905533  66.5544662  60.5955238
  83.2768021  30.1258240  50.4138718  83.5371323  29.9317436  51.3143120
  83.5391006  29.3512135  49.9164696  74.1795654   6.3778520  52.2481766
  75.1239777   6.5295215  52.2843094  74.0817337   5.6093869  51.6859283
  20.6552010  26.1571484  88.4303741  19.7558861  26.0134640  88.1357193
  21.0388451  25.2808723  88.4648285  41.4371185  44.7167053  36.6020355
  40.5899811  44.5181160  37.0009766  41.8786659  43.8694687  36.5432281
  56.5137100  64.4904099  61.4092674  55.7807541  64.8093185  60.8826714
  56.1714287  64.4600525  62.3026619  31.0815392  48.8610268  83.2712479
  31.3193054  49.7192574  83.6221619  31.6993618  48.7157021  82.5547256
  40.2333107  29.2301903   9.2690372  40.5950508  28.9363899  10.1051340
  39.4050674  29.6503429   9.5008154  64.9387283  25.3811302  36.2114716
  65.8069839  25.0392704  36.4247589  65.0572357  25.8307495  35.3747940
  15.3333397  53.6328697  27.5697403  14.4776430  54.0581779  27.5138073
  15.4918280  53.2966881  26.6876411  77.1756363  37.7706108   9.1760445
  76.4006653  37.2300148   9.3290501  77.7439117  37.5921173   9.9253311
  32.6007195  67.4381104  29.7586422  33.1569061  68.1833115  29.9857101
  31.8807316  67.4759750  30.3882580  48.2271309  57.7135468  28.7150078
  47.4436226  58.2428894  28.8638172  48.8097305  57.9388885  29.4402885
  65.4471283   6.6809464  73.4255753  66.1015625   6.1154575  73.0154800
  64.9382553   6.0927968  73.9835663  69.3113708  60.0151825  51.1404839
  68.8686905  60.6524048  50.5799332  69.5278473  59.2901115  50.5542755
  30.8236961   7.3179936  10.0705605  29.9965038   7.1737700  10.5301104
  30.8522968   8.2627945   9.9196768  41.0916939  61.0304947  73.4570923
  40.1895370  60.9370193  73.1511383  41.4365082  60.1375732  73.4624863
  23.1925583   1.5531046  87.4319305  23.2476711   2.4589045  87.7364273
  22.3182564   1.4819844  87.0488205  47.0684433  33.1149712  42.8602867
  47.9110107  33.4885292  43.1186790  46.8944473  33.4906502  41.9972572
  17.8448238  51.3165359  85.1959763  18.3888378  50.9472847  85.8916321
  17.1953926  51.8480301  85.6563950  29.8655434  66.3472137  22.1118011
  30.6415462  65.8206100  21.9201088  29.2141151  65.7133484  22.4119625
  23.2998028  65.2838135  47.7801552  24.0603409  65.5531540  48.2952003
  23.4456310  65.6712341  46.9170914  25.2330914  60.6630249  19.8231220
  24.3701191  61.0769043  19.8376961  25.0489349  59.7241249  19.8511543
  20.9777298  47.8380547  86.0734787  20.5817795  48.6853027  86.2775116
  20.2559166  47.3136101  85.7268143  78.9918823   6.8497090  25.9964828
  78.5019760   6.5165949  26.7483158  79.7983551   7.2018552  26.3730869
  72.7298050   4.5906863  81.2391739  72.4795609   5.3233891  81.8019791
  71.9165955   4.1044140  81.1032944  48.8526497  56.1465683  36.7282028
  49.0043602  55.2489471  36.4324188  48.9089699  56.0970497  37.6824608
  81.2512741  32.5629044  11.4397306  80.5249939  32.8188667  12.0082607
  81.1365814  31.6209488  11.3140450  41.9371262  52.2334213  69.7304535
  42.0389404  52.6113319  70.6039810  41.0023689  52.3155060  69.5414429
  83.1297150  45.7462006  38.2377777  82.9617462  45.0546341  38.8778992
  83.9165192  45.4581909  37.7749329  48.5026550  34.7615967  60.1182098
  48.7848282  34.3302689  59.3116341  48.7253113  35.6833115  59.9874458
  71.4155426  41.5978355  32.5556488  71.6688004  40.6921463  32.7340240
  71.9221115  41.8399353  31.7803974  23.3028202  42.6859245  60.3047523
  22.9773197  42.1640511  61.0381889  23.1469746  42.1396828  59.5343246
  68.4900970  66.4947891   8.3899717  69.2175751  65.9276581   8.1342926
  67.7103958  65.9523621   8.2713337  15.2803164  51.6460075  80.5753708
  15.1727924  51.3939667  81.4925156  16.2265644  51.7332268  80.4603043
  25.3456326  56.2076454  82.3007736  24.4316807  56.2460022  82.5826416
  25.7995834  55.7672691  83.0192719  37.9900246  53.3684654  75.8841705
  38.7984848  53.8651047  75.7577896  38.0352249  52.6677284  75.2336578
  80.5397644   0.5013276  17.0414562  81.2211151  -0.0491353  16.6554775
  80.8777924   1.3931644  16.9602489  69.7874832  31.1498795  50.1978188
  69.5919952  30.7955570  49.3303680  70.7435684  31.1579933  50.2433357
  76.4360199   9.2751894  87.7129364  76.7898483   8.4588985  88.0660706
  75.5403061   9.3128967  88.0483551  50.8137016  21.1954746  75.9176788
  50.6620026  22.1405144  75.9286118  50.8802032  20.9743042  74.9887619
  40.8782921  51.0802231  13.8735018  41.5737114  50.4255333  13.8102207
  40.0918236  50.6239281  13.5743408  28.9911251  20.5456104  77.4160080
  28.5206089  20.8601131  76.6440430  29.8666477  20.3330212  77.0927505
  20.4015141  43.1058083  16.2509193  20.2410526  42.3243980  15.7218809
  20.9340992  43.6696320  15.6899462  47.0795517  13.0538511   7.2593021
  47.7481194  13.3543005   7.8749189  46.4351730  12.6043510   7.8060713
  46.7262497  11.8130941  17.6188965  47.6522446  12.0432053  17.6951733
  46.4574890  11.6019487  18.5129967   0.6191045  30.3235188  50.7952576
  -0.0345934  29.7542820  51.2013092   0.3107510  30.4392681  49.8965073
  55.4868088  51.2507591  21.2078400  55.8243256  52.1391678  21.0936413
  55.5322762  51.0967255  22.1514702  75.5416107  12.9049120  62.1387215
  74.8109360  13.4991770  62.3095818  75.8357315  12.6309853  63.0074501
  86.1735077   6.2885284  78.1913681  85.9908524   6.8325448  77.4252625
  85.8250809   5.4270239  77.9619293  75.2677231  32.8093987  16.0272408
  75.7066803  33.5821266  16.3828220  74.6656494  33.1573982  15.3694878
  47.0937042  51.7542877  43.2401581  47.0489540  52.2723923  42.4365463
  46.1807861  51.5551338  43.4478836  24.3849773   2.0080004  22.5834656
  24.3454475   2.0996921  23.5354443  24.1765423   1.0877197  22.4226246
  72.0079269  44.0819588  71.3925323  72.8415756  44.2134552  71.8441620
  71.8508682  44.9076118  70.9344254  68.2703857  69.0664597   7.4023504
  68.4290390  68.1339798   7.5491381  67.4678879  69.2525177   7.8898120
   3.2693722   8.7355108  74.6009369   3.6970127   9.5252666  74.2698212
   3.9898813   8.1345100  74.7904053  66.9178772  38.3057785  73.2233963
  66.9588013  38.2179604  74.1756821  66.1078720  37.8596001  72.9763184
  20.7837296  51.1421509  27.6788502  21.1140652  50.4980507  28.3051453
  21.3055382  50.9980965  26.8894215  69.1612701  47.5745964  60.9775200
  69.6418381  47.8240662  61.7668571  68.2551498  47.4760704  61.2698822
  25.6098652  66.1011124  20.5054817  26.0815659  65.5189514  19.9098167
  25.5172424  66.9192886  20.0173836  12.1736860  28.8369961  81.1370316
  11.6777611  28.1028366  81.4993820  11.5151320  29.3807964  80.7048035
  47.0768166  19.7269535  20.1412563  47.6768112  19.0139828  19.9223671
  47.5808334  20.5236092  19.9753075  64.4727936   6.7807026  16.8805084
  64.6914978   5.8823519  16.6327858  64.5001221   6.7787156  17.8373165
  34.8026237  44.8784103  79.0926285  34.1985474  44.3902512  79.6521149
  34.2423630  45.2806396  78.4288940  69.7708588  66.3000107  53.0571098
  70.2856216  67.0745010  52.8303452  69.8982849  65.7033539  52.3195534
  16.4990597  37.8478394  89.0795288  16.6803932  38.2039909  88.2097549
  16.8790054  36.9694405  89.0626450  85.8003311  27.0750561  44.9098129
  84.9933853  26.8047752  44.4716225  86.0285263  27.9087429  44.4985657
  13.6036949  25.7148590  21.2693710  13.2380428  25.9178143  22.1303825
  14.4614773  25.3338528  21.4571934  36.6592026   2.2462723  74.5045242
  36.9995537   3.1340969  74.3942490  36.6582680   2.1060081  75.4513855
  27.5720367  53.0759315  25.2658920  27.1514893  52.2303352  25.4218998
  28.4176064  52.8545341  24.8757267  44.0828285  59.5288849  10.0440273
  43.2152596  59.4734955   9.6434202  44.3950882  58.6242943  10.0651398
  50.8257217  22.4814949  80.2223282  51.6307487  22.9984131  80.2532883
  50.7367287  22.1236782  81.1056595  32.1606102   3.9857979  68.4771957
  32.8162804   3.5324111  67.9473190  31.9112110   4.7455969  67.9511337
  82.0893555  18.4784966   2.6077194  82.4636002  17.6357365   2.8644888
  81.7961273  18.3456688   1.7062731  17.8340206   7.5612030  61.1898346
  18.3042774   8.1135426  61.8143425  18.2189960   7.7783442  60.3407898
  24.6879635  22.8655834  45.0107422  24.9902630  22.7025280  44.1172905
  24.1837330  22.0847054  45.2392464   4.3679280  52.6936455  28.4748993
   4.0351105  53.5153313  28.8358727   5.0943232  52.4557343  29.0510769
  64.2376480   4.6040130   2.2683923  64.8605804   3.8870921   2.3875973
  63.6424103   4.2931747   1.5862601  28.8581944  40.5518532   9.7613850
  29.6901970  40.0787239   9.7490387  28.2012959  39.8768044   9.9317694
  48.1501198  51.1062126  45.5930824  47.9450836  51.3460999  44.6893959
  48.0431252  51.9192085  46.0868645   8.3022461  35.9796028  35.2630730
   8.8190746  35.2544746  34.9119225   8.5844831  36.0555344  36.1745605
  69.0517960  13.4436846  62.8672066  68.6646042  13.3603859  63.7386284
  68.8827133  14.3516655  62.6157837   0.9013735  29.2981930  65.0647507
   0.1733913  29.6763248  64.5715027   1.0494211  29.9135742  65.7828140
  86.1279984  47.3056984  78.8609009  85.6584625  48.1397972  78.8540649
  86.3100052  47.1408691  79.7860718  19.5471611  30.8237190  11.2580519
  19.8257790  30.8550549  12.1732683  19.7534657  29.9328251  10.9752512
  16.9597321  37.5920029  14.9059381  16.9689617  36.6892281  15.2239733
  16.6533489  37.5242462  14.0016327  25.7841034  64.8688889  72.2140808
  26.6222229  65.3233948  72.1291199  26.0122604  64.0104065  72.5707016
   9.8354149  64.9417267  74.9519424  10.6488981  64.5155640  74.6820145
   9.7136793  64.6709290  75.8619308  40.3862915  41.8437996  11.4539404
  40.9721870  42.2031288  12.1201563  40.4160461  40.8973846  11.5941086
  49.6500320  66.0592346  80.6276169  49.1032066  66.8291626  80.7839279
  49.9421234  66.1529999  79.7209015  52.8403358  12.6157637   3.1336029
  53.1117821  13.3186264   3.7239690  52.8928261  13.0031843   2.2598858
  74.1204071  28.5702724  75.0708389  74.9485168  28.1171551  75.2294235
  74.3240204  29.2093563  74.3879471  44.6413498  28.6395092  77.5279846
  43.7565231  28.8742771  77.8076172  44.8505554  27.8524113  78.0309143
  12.6317720  66.7692719  73.3662033  13.3463230  66.4704971  72.8037262
  12.8003712  66.3506546  74.2103424  18.5378456  56.9612007   0.6167625
  17.8799915  56.7197113  -0.0352694  19.2988033  57.2288895   0.1014790
  74.5561218  59.4328995  77.0508270  74.8066788  60.2350159  77.5091476
  74.2525101  58.8461380  77.7434769  66.2860565  35.5969353  45.1528473
  67.1368256  35.2850037  45.4612808  66.2265244  35.2788010  44.2520256
  50.1906891  53.7894325  36.0760498  50.6820374  54.0229759  35.2884789
  49.6262093  53.0670624  35.8007660  10.4935656  34.4419060  47.9719353
   9.7342367  34.8336411  48.4034386  11.0359373  34.1165619  48.6904144
  83.6461487  27.5765591  17.8601360  84.1196365  26.8975792  17.3794823
  83.7743149  27.3512917  18.7815800  60.9505272  22.5494347  43.9250870
  60.9689445  21.7692299  43.3708534  61.8652267  22.6919861  44.1684647
  43.8819351  55.2771645  41.4782982  43.3493843  54.5035706  41.6631660
  43.9745598  55.2820930  40.5256042  26.5040169  35.0346184  68.4402390
  27.0082512  34.5308228  67.8013535  25.6081562  35.0201988  68.1034012
  54.6604042  11.4838829  26.3729858  53.8936501  12.0556002  26.3348351
  55.2807693  11.9521561  26.9316463  37.0374641  65.6175308  16.3752136
  36.8973198  66.5623093  16.4383316  36.1807556  65.2351074  16.5650406
  22.6723785  43.0629425  65.7132797  22.4136009  43.8582726  66.1788101
  22.7926197  42.4101334  66.4029236  10.7428951  44.7596436  42.3307571
  10.3132715  45.6146812  42.3545494  11.0618877  44.6269569  43.2234344
   3.4706576  15.7897749  21.8580723   3.8570826  16.5955086  21.5149975
   4.1546893  15.1295919  21.7463093  83.0814743   6.7421880  39.4329529
  83.4845352   6.0264182  39.9243317  83.6659927   6.8799191  38.6875610
  33.0294609  47.9434891  12.1095314  32.2018318  47.6245613  11.7496061
  33.6665688  47.2665482  11.8813334  51.9344101  30.8493595  39.5666542
  52.2227516  30.0124378  39.9308624  51.3842506  31.2313442  40.2504997
   4.6740022  52.3676605  51.6617508   4.0100999  53.0157280  51.8972740
   5.3024449  52.3954926  52.3832169  78.5712738  28.3844490   9.7071753
  78.8860016  28.8277550   8.9193554  79.2577591  27.7508907   9.9159212
  23.9359074  46.0207138  18.7338161  23.8810558  46.9640770  18.5812092
  23.3289413  45.8592453  19.4561405  29.8332806  60.8192177  12.8318501
  30.0069046  61.6923370  13.1836281  29.0807972  60.9396439  12.2526264
  24.1912270  12.0450993   8.8470640  24.8370075  11.6700001   9.4458122
  24.4179840  11.6808605   7.9914098  47.7196846   2.4172771   0.5720847
  47.6444855   2.0941494   1.4699520  46.9183998   2.1184633   0.1420989
  71.7163239  17.2798061  65.7270737  72.0662460  16.8438358  66.5040665
  72.4769058  17.4044552  65.1594315  25.3015652  33.6800232  79.2410812
  24.5520706  33.1185532  79.4391708  26.0646725  33.1543007  79.4809036
   4.5170436  13.5436144  63.7387733   4.5065427  13.5366049  64.6958923
   5.2716923  14.0868301  63.5114975  12.2635365  16.0326805  72.6672134
  12.4531040  15.2612457  72.1331863  11.3202209  15.9896297  72.8238525
  82.1899643  55.6005211  71.8039932  82.3631287  55.2631721  72.6828766
  82.0602036  56.5405388  71.9295197  63.5120087  51.5662003  42.8529129
  63.2339973  52.3191986  43.3743820  62.7068863  51.0726013  42.6967926
  65.8012161  30.5502052  59.5262070  66.6350937  30.6695614  59.9807816
  65.3766251  31.4066448  59.5758629  70.6953049  56.7290154  36.1514854
  69.8388672  56.8760757  36.5528831  71.1722488  56.2007027  36.7915230
  27.4599075  61.7473984  67.0578003  27.8885822  62.5954247  66.9423904
  27.7657623  61.4385033  67.9106064  48.4525337  34.5217552  80.2323914
  47.6167107  34.0553551  80.2222443  48.9689865  34.1027641  79.5439453
  45.1752052  46.8897247  27.9084415  44.5829201  47.0604210  28.6407623
  44.8791428  47.4826088  27.2177410  36.6108932  64.0765839  51.9329300
  36.9774818  64.8699951  51.5426216  35.6631012  64.1997681  51.8805389
  46.8693771  58.0181961   7.6356034  46.6024475  57.7374687   8.5109158
  46.1949081  57.6657829   7.0549769  75.2009125  69.9369812  51.1001930
  75.3913040  69.4545746  50.2956657  74.8755493  69.2719574  51.7069168
  26.1345520  38.4970093  25.7805576  26.3851814  37.9114609  26.4950867
  25.1817551  38.5609283  25.8462887   5.7652287  55.0931931  68.1055908
   6.2478991  55.2468338  68.9177780   5.8723850  54.1571198  67.9367142
  30.0657387  57.6480370  58.2832832  30.9525490  57.6511650  57.9230194
  29.8200741  56.7231979  58.3069077  69.5041046  36.3613396  83.6043777
  69.9904861  35.5849342  83.3271332  70.1692200  37.0451927  83.6830597
  30.2513123  34.4215698  73.9091187  29.4534588  33.9924622  74.2181931
  29.9510956  35.0235519  73.2281494  51.7035103  60.4514236  80.3868179
  52.4527588  60.8953476  80.7840500  50.9614716  61.0298996  80.5628204
  39.3748169  31.7541008  68.8538284  40.3308067  31.7874966  68.8884659
  39.1621742  31.9272690  67.9367523  50.8989410  41.8559990  76.9429779
  51.1825790  42.7675514  76.8732910  50.4562263  41.8070221  77.7902298
  19.9013424  43.3786736  59.0324631  19.9762211  44.1465569  58.4659119
  20.5106983  42.7433586  58.6565781  71.2697220  58.5013390  28.0856018
  71.0594482  58.0648232  27.2600899  72.1106491  58.1264458  28.3473587
  57.3272095   5.3471918  77.1534424  56.5756454   5.0002613  76.6727982
  58.0580177   4.7869949  76.8920441   6.3026466   4.8607454  36.2302628
   5.5847526   4.2395525  36.3526535   6.7225533   4.5840640  35.4157944
  30.5036755  24.1651287  19.9898338  30.5375214  24.7427959  19.2273483
  30.7815819  23.3119698  19.6564846  27.8154297   0.7429416   8.8268795
  27.3959484   0.0178508   9.2900324  27.5738621   0.6130975   7.9098101
  75.8543854  25.2020340  70.5782700  75.3364639  25.8479710  70.0979080
  75.2348862  24.5010281  70.7808533  74.4364777   3.7575064  38.2816010
  73.8473587   3.8676133  37.5352402  73.8681946   3.4650691  38.9941826
  15.4855738  45.1642303  49.8896141  15.1324100  44.2751083  49.8584366
  15.0434856  45.6227379  49.1750793  69.3697815  22.1783676   2.7023525
  69.7693100  22.3691578   3.5510035  70.0062485  22.4950581   2.0613739
  11.5192146  69.5213013  82.6508789  10.7999697  69.6136780  82.0260696
  12.1390219  70.2083664  82.4058990  16.5515957  58.7062378  39.1877708
  15.6825514  58.4340820  38.8929443  17.0457306  57.8898544  39.2624588
  43.7015533  48.4458809  82.2873611  43.0134506  49.1088486  82.2306061
  43.4695702  47.8020096  81.6181412  53.9271622  38.3477592  33.1602058
  54.2458000  38.2539101  32.2624893  54.4097023  39.0974846  33.5084839
  18.9084015   2.7693238  13.1906099  18.9394379   2.2086728  13.9658127
  18.7627373   2.1644206  12.4632139  19.2588463  61.1400108  78.8615265
  20.1928139  61.0248680  79.0366821  18.9233589  61.5896492  79.6370926
  69.0417633  66.0933380  55.7208481  69.4397049  66.0995560  54.8503151
  68.2710342  66.6545792  55.6358986  22.8591080  69.9775925  16.7988415
  23.3517342  69.3532944  16.2661152  22.1750546  70.3039322  16.2141972
  58.4653168  66.8354797  46.1354027  57.6314011  66.6517639  46.5679092
  58.5016632  67.7904434  46.0810471  41.7202835  22.7049961  80.7643433
  40.8952217  22.2462769  80.9227142  42.3899384  22.0246944  80.8349380
  63.9925652  10.6086130  20.0199547  63.4764938  10.9099941  19.2722416
  64.7518158  11.1912508  20.0373821  22.6091347  61.5400505  66.2727814
  22.5085220  60.8846245  66.9630890  21.8488503  61.4096451  65.7060394
  85.0752716  19.9428062  83.2814484  85.3150330  19.7489891  84.1876450
  84.7034225  19.1246834  82.9518585   6.3672562  41.2635918  28.1675224
   7.0380197  40.9315910  27.5707970   5.8888502  41.9132843  27.6524849
  66.5218124  18.8728352  77.8756561  66.0865631  18.4859905  77.1159592
  65.8932190  18.7696495  78.5901184  26.8972378  61.0094261  54.5861626
  26.3423405  60.8793602  55.3551903  26.2809486  61.1334381  53.8643303
  61.4747086   7.6725454  22.9724216  62.1123695   8.3809404  22.8841286
  61.9955368   6.8720431  22.9078846  14.7093410   1.9582332  83.8929138
  15.1712580   1.1753818  83.5929031  15.4054537   2.5730484  84.1245651
  62.0081825  38.9955673  54.5133438  61.7660027  39.5084000  53.7422485
  61.5155487  38.1798706  54.4228859  75.5172882  26.0156956  80.6518402
  75.6394424  25.1103134  80.3661957  76.4055405  26.3626919  80.7344666
  55.8322792  56.4122086  30.0959892  56.6413727  56.0743408  29.7120037
  55.7747307  55.9828644  30.9495602  53.0053177   0.8022886  31.7616100
  53.5538330   0.4644948  32.4696045  52.9759636   1.7472426  31.9113846
  44.4558868  59.6066437  65.1311035  44.9140320  60.4467621  65.1542587
  43.5345001  59.8393707  65.0165787  41.7831573  34.3637009  82.1051102
  42.2278633  35.1938019  81.9336472  41.3964043  34.1209412  81.2638474
  85.1396484  58.6917458   9.2195330  84.4766235  58.5687332   8.5402021
  85.2293549  57.8295937   9.6255817  12.3383551  47.1048279  12.2418394
  12.3101549  46.5207405  11.4840260  13.2100754  47.4987946  12.2082796
  59.3893318  56.4657707  77.8151855  59.2518539  56.4687538  78.7624588
  59.6070786  55.5570679  77.6076279  72.7640381  33.6680756  86.5869141
  72.7629547  34.2630920  85.8371201  73.6728287  33.6630821  86.8874054
  29.7297707  53.8794670   7.3357320  28.8835773  54.1241684   7.7103128
  29.8856716  54.5298843   6.6509786  72.4419250  33.5730324  60.4720840
  72.3753357  33.8739586  59.5658569  71.5751724  33.2190399  60.6712112
  34.0809326  13.1085520  77.7259521  33.8641357  12.1763315  77.7119904
  33.2503128  13.5502949  77.5494232  26.1819115  56.1724281  63.1605492
  25.7654190  55.6435547  62.4800644  25.9115639  57.0697136  62.9655495
  62.1594582  33.1914520   4.4334087  61.4903908  33.3423958   5.1010866
  62.3804779  32.2642555   4.5211325  45.9789162  55.8229675  21.2994919
  46.3832664  55.3803749  22.0457096  45.4398422  55.1493874  20.8848572
  26.1799583  59.6272736  64.4093933  25.2719841  59.3243332  64.4157562
  26.5332947  59.3427467  65.2522659   6.7480893  25.4724979  12.8758335
   7.2910824  25.6512451  12.1080837   6.1902013  24.7416248  12.6097174
  30.7852364  16.4018688  78.2926407  30.7821445  16.9850540  79.0516586
  29.8596001  16.2738934  78.0851517  38.6263733  25.7889118   4.1391487
  38.9495506  25.1887913   4.8111920  39.3063889  26.4589367   4.0693130
  34.9268265  20.3038425  14.7543907  35.3470879  21.1638298  14.7605429
  34.3216324  20.3277016  15.4956083  79.6278610  20.5141411  42.9985313
  79.4808731  21.3732986  43.3941002  79.0610046  19.9224911  43.4933510
  58.2652893   0.3772303   2.0420644  58.9708138  -0.2668606   2.1021838
  58.7150269   1.2175337   1.9534174  47.8437004   9.3663788  34.5930443
  47.1352196   9.0329847  35.1436195  47.5306244   9.2401505  33.6973419
  13.9332218   8.9171991   0.6866631  14.5459309   9.6204958   0.9015891
  14.4918985   8.1760054   0.4526880  16.8055897  35.7855606  19.1654034
  17.5838947  36.3385925  19.0973701  16.9334106  35.2906799  19.9747143
  26.6834774  69.3578568  24.9771442  26.9878845  68.5901566  25.4610882
  25.9021358  69.6446762  25.4498768  67.9302368  44.8055344  28.7773037
  68.8158493  44.5107498  28.9894772  68.0196762  45.2423134  27.9302750
   9.0171347  52.1287460  70.8379517   8.0806208  52.2191963  71.0139999
   9.4226570  52.1058235  71.7047043  58.1083374  70.3063889  65.6688385
  58.2142754  69.9030609  64.8072510  57.3160095  70.8374786  65.5888901
  21.1299076  28.8620338  69.3287048  22.0168953  28.8465061  68.9692001
  20.5697823  29.0524769  68.5762329  14.9130135  64.3889465  17.6860943
  14.2475586  64.3473206  18.3728752  14.7639189  65.2324677  17.2589378
   7.5537982  56.9669991  32.0999680   7.5140629  56.4110565  31.3217754
   6.7758031  57.5212212  32.0383644  48.4552727  59.3278503  52.4845428
  48.0963402  58.9041901  53.2642288  49.1411858  59.9051399  52.8199463
  52.6619530  29.4870586  61.7850037  52.9662895  29.1764221  62.6377144
  53.4346046  29.8872795  61.3861771  35.4476166  48.3263283  43.8299446
  36.1057205  47.9931564  44.4399681  34.6234627  47.9483910  44.1368103
  59.0795364   8.3866863  25.0555134  58.2071266   8.0107088  24.9381351
  59.5792732   8.0720711  24.3021793  74.4250870  25.4757557  86.6079865
  74.5321350  25.1991463  87.5180740  74.0378342  26.3491268  86.6670837
  30.3872375  68.2977295  31.6160564  29.6163540  67.7424850  31.4991226
  30.6210423  68.1918182  32.5382004  21.3067913  33.0727921   9.9926081
  22.1397324  32.9391708   9.5402966  20.8956261  32.2084122   9.9976530
  73.3405914  46.4913559  82.1413651  74.2306137  46.1459312  82.0722504
  73.4582062  47.4329567  82.2670135  85.7791672  58.7971306  35.8706398
  86.0501404  59.1446228  36.7203751  86.4907837  58.2107773  35.6136894
  84.8728867  16.3322506  31.5897636  85.5489883  16.0519485  30.9728756
  84.3679199  15.5389538  31.7684212   0.1122749   3.2707777  27.1858444
   0.0312976   3.2434990  26.2324657   0.9166347   2.7863846  27.3718567
  62.3986969  68.2818451  45.9814491  62.2309151  69.2192688  46.0779457
  62.7284775  68.1883011  45.0877304  86.5453110  18.2169914  76.9885330
  86.1243286  18.6811314  76.2649460  87.4003677  17.9603043  76.6432495
  16.5840302  31.7048759  76.6591873  16.1381989  31.4701309  77.4730453
  16.5341015  30.9141521  76.1220703  15.5017633  46.9196815  21.7878742
  16.0426769  46.9356880  20.9983253  14.9201326  46.1695290  21.6645641
  81.4716492  23.7167740  23.7776394  80.9024124  22.9841461  24.0131378
  81.6380234  24.1666908  24.6059647  82.2200928  44.5938568  13.9604759
  82.8881531  45.0990677  14.4238253  82.7129440  44.0594139  13.3378201
   8.4959278  64.2854767   6.5981560   7.8838754  64.8939514   6.1841650
   7.9539804  63.5406418   6.8584280  81.8978653  47.2225189  19.5436478
  81.4671936  46.4177933  19.8320370  81.2641907  47.9144554  19.7331486
  51.6536140   7.2274776  76.3277664  52.4491272   7.7117662  76.5488052
  50.9395370   7.8213763  76.5593033  38.2292595  40.1401520  28.2915916
  38.1897850  39.8882408  29.2142048  39.0009232  40.7031364  28.2298317
  85.3037949  45.1553917  57.8144302  85.0541840  45.9102287  58.3474884
  85.9723663  45.4934807  57.2186623   8.4081478  17.5087967  53.2430916
   8.2725391  16.6098442  53.5426369   8.5670700  18.0070019  54.0448227
  85.7225342  17.4062958  87.6310196  85.7674332  17.4172382  88.5871048
  85.6529236  16.4787445  87.4051132  25.0963078   0.7804592  65.4654541
  24.8453503  -0.0817796  65.1341019  24.3870239   1.0242314  66.0602036
  46.5421638  48.0738029  10.6219435  47.1638298  47.4813385  10.1991568
  46.0068016  48.4114342   9.9038734  56.8785210  23.8831902  38.9853096
  56.4314842  23.6563015  38.1698875  57.7865143  23.6156960  38.8431053
  84.9794922  24.6353168   2.9821553  85.8224945  24.3135986   3.3016508
  84.9072800  25.5184021   3.3443406  61.9643707  66.2663727  33.1734543
  61.0296516  66.0943756  33.0596619  62.3679161  65.9377518  32.3700905
   8.6511259  34.4442215  29.4119663   8.3847942  33.5972404  29.7696266
   9.0127840  34.2372818  28.5502167  20.6679249  54.1489754  31.5609417
  20.0631485  53.6131592  31.0477371  21.3616161  54.3841019  30.9447117
  46.1884613   9.3251028  78.1871338  46.2083893   9.4602413  79.1345367
  45.7885590  10.1224031  77.8398285  17.4997234  59.5249939  32.5962486
  17.0867119  58.7638893  32.1883583  17.0977478  60.2772141  32.1617203
  44.9375534  47.0745087  57.9535484  45.5657005  46.7228813  57.3226585
  45.4046822  47.7915115  58.3824158  17.0380993  61.1319237   8.8753414
  17.2081032  60.2563972   8.5278006  16.5752792  60.9770470   9.6987753
  34.3096275  55.1704903  53.3489418  34.6043816  54.7372818  54.1499939
  35.0708160  55.6694183  53.0524750  39.8955383  52.5455513  83.8556747
  39.5061684  52.0182190  84.5532074  40.3649788  53.2416763  84.3153152
  37.3235283  24.8061733  12.4541054  36.8181610  24.4263287  11.7353888
  36.7423935  24.7479687  13.2124777  83.7790680  13.4486961   8.7065725
  84.6230469  13.0834627   8.4409838  83.5912704  14.1196918   8.0502729
  38.0319901  33.8866997  62.6109200  37.5733604  33.8984871  61.7708282
  38.7626801  34.4937553  62.4934349  63.8999176   2.2167079  80.5608902
  63.9667625   2.1262796  81.5114670  64.7595367   2.5389781  80.2899170
   9.9143457  68.3618622  67.1979523  10.7711325  68.5860062  67.5611496
  10.1125946  67.9123383  66.3764572  36.8049889  50.0925255  71.8994904
  36.2660675  50.5269394  71.2383728  36.5329361  49.1754303  71.8654175
  74.7883301  60.0007401   2.8282864  73.9122543  59.7347794   2.5490315
  74.9168396  59.5584183   3.6673756  62.4066811  54.0880966  12.7802935
  62.4272537  53.1960487  13.1267900  61.5801163  54.4500885  13.0996485
  25.0365734  44.0385132  80.4713211  24.4482212  43.3973160  80.8699951
  25.2694130  44.6282692  81.1884003  61.3847275  11.1883011  24.1014061
  61.8441124  10.3795967  23.8751373  61.3057213  11.1601276  25.0549240
   9.4529858  45.7135468  56.8536415   8.5233412  45.7123909  56.6256256
   9.8253832  46.4282570  56.3371735  74.4470444  69.1044083   1.1391298
  73.7646027  69.4885635   0.5887354  74.4672318  69.6599350   1.9183713
  72.8873138  65.7083588  35.3866234  73.4229736  65.3861389  34.6617203
  72.3144226  66.3636169  34.9882965  27.5695076  43.2266693  39.1760559
  28.0471287  44.0211029  39.4147835  28.1553459  42.7664833  38.5750160
  86.7440643  38.7658501  88.1663666  85.9087906  38.3030090  88.2321396
  87.3201065  38.1560860  87.7052917   8.3582668  56.1501541  57.7015152
   8.1989574  55.6849747  56.8802605   7.4853830  56.3033295  58.0632362
  39.6520424  31.8287125  18.2511902  39.0790977  32.1075516  18.9654846
  39.3949623  32.3770866  17.5099564  69.7193146  57.3202667  30.1143417
  70.2699356  57.5319252  29.3605137  68.8593445  57.1333618  29.7378445
  45.7921791  28.8213482   1.7318512  45.9849281  29.0366402   2.6443903
  44.8368301  28.8443565   1.6769818  10.4293022   9.0689230  17.4495430
  10.1983004   8.2428131  17.0247917  10.0211048   9.0162516  18.3137379
  46.2982101  30.5567608  26.0586739  45.5285530  30.2612915  25.5723038
  47.0405731  30.2969875  25.5131035  59.6304512  25.7966480  37.3731003
  60.5653839  25.7635918  37.5756721  59.3877525  26.7122593  37.5108871
  68.0134277  26.3071842  26.4496250  68.8954926  26.2456856  26.0830078
  67.7330704  25.3978176  26.5529690   0.8914245  27.3110065  76.2509918
   0.9007691  26.4132843  76.5830154   0.9956952  27.2172699  75.3041153
  17.4308510  37.3895493  75.5733185  17.1772652  36.8753662  76.3398285
  18.2035122  36.9414101  75.2292252  59.5047112   2.6137245   9.7523441
  58.6052742   2.8572581   9.9712934  59.4140015   1.8517942   9.1800985
  14.7114077  61.9887924  40.8110466  15.6596117  62.0877571  40.8967743
  14.5915442  61.5503349  39.9686584   0.8424028   8.1230297  85.0853958
  -0.0787718   7.8640571  85.0608521   1.2493610   7.6281242  84.3742828
  18.9737988  20.8577900   7.1964211  19.2542858  20.1831532   7.8148251
  18.6855659  21.5842972   7.7489963  23.7621174  67.4189758   4.6512957
  24.1440887  66.6013947   4.9704924  23.0018787  67.5640945   5.2145100
  24.7233315  50.3760338  27.3596439  24.3741169  49.5708961  27.7417946
  24.7498970  50.9954185  28.0889492  50.7413521  34.4345474  84.2806625
  51.3441315  34.1917419  83.5778580  50.3914146  33.6008186  84.5947800
  66.6633377  19.2674561  49.9807358  65.9966812  19.1237392  49.3090630
  67.4675674  19.4323826  49.4885483  48.3760948  45.9330482  30.6567268
  48.9572830  45.8860016  31.4158325  48.2757263  46.8701935  30.4896374
  70.1353302  71.5293579  69.6592407  69.6511688  70.7169037  69.5117950
  70.8909607  71.2659302  70.1844559  42.1394997  17.8376904  13.6246367
  42.0653038  17.6246281  12.6944046  41.2498436  17.7407494  13.9642572
  10.0270281  60.9703484  49.0612793  10.0245771  60.9270515  50.0174942
   9.2149181  60.5363731  48.7997894  72.4686966  22.5087662  63.3514366
  72.3685989  22.8599300  64.2362518  73.3639374  22.7385044  63.1024284
   9.9201250  57.2264671  19.2261600   9.4267673  58.0390739  19.1143761
   9.5203285  56.8063660  19.9876804   3.5025098  62.7983246  70.1544952
   3.1406338  62.4900780  70.9853210   2.9368923  62.4088631  69.4876938
  55.7532730  33.5071106  55.0427666  56.1444778  32.8664207  54.4488754
  56.5010490  33.9571190  55.4359055  43.3482361   5.5962963  67.3491821
  43.3679543   6.5530305  67.3267441  44.0146675   5.3580475  67.9936523
  26.8460369  47.8947983  52.7289429  27.1227951  48.7923393  52.9134979
  26.1274261  47.9895058  52.1037560  28.7737350  69.1757507  53.6461411
  29.0699673  70.0845413  53.5953636  28.0614700  69.1913681  54.2854080
  26.1313190  45.4657364  89.4509277  26.7300377  45.4833298  88.7042923
  25.2591648  45.4330902  89.0578461  73.5328674   4.0271363  64.5796432
  73.0975647   4.8393059  64.3205566  73.3861313   3.9673510  65.5236359
  12.7812433  42.7888641  40.8545685  12.1749458  43.4425964  41.2028084
  12.2856646  42.3452301  40.1662216  13.9662476  42.3050423  54.2743492
  14.4946547  42.1942635  55.0647583  13.1684847  42.7379646  54.5782967
  51.0724144  28.5586681  14.5274191  50.8601189  28.8037796  15.4280205
  51.7301178  29.1980667  14.2538719  35.6359444  51.9051590  45.6198959
  34.9054680  51.7471504  46.2179527  36.3965836  52.0057907  46.1922035
  54.1933823  59.1006279  68.2794113  54.5039787  58.2028770  68.1619034
  53.5546303  59.2268486  67.5777740  58.5306168  50.2535439  20.0275021
  57.7137527  50.6939468  20.2620506  59.0877724  50.3554344  20.7991390
  37.8764038  65.3784027  31.7452507  38.3877716  66.0955963  32.1199074
  36.9672165  65.6685715  31.8188114  43.8650932  49.8845978  56.8442688
  43.4775543  50.1713486  57.6711998  43.4260864  49.0568848  56.6483078
  70.9476700  35.3036194  28.3744926  71.8565369  35.3999939  28.6589203
  70.4441147  35.2728577  29.1879539  69.6249924  56.9445992  14.0725288
  68.7609024  56.7966881  14.4568529  69.7477417  56.2112503  13.4697304
  27.4627934  31.9208508  79.8950424  27.4213543  31.0590992  80.3096466
  27.8801460  31.7596912  79.0488281  43.4245949   3.9872136  56.6732368
  43.9729729   3.2116139  56.5551033  42.7745247   3.7239604  57.3246498
  22.2009029  31.5331249  23.7597446  21.6429787  30.7555466  23.7417145
  21.6955318  32.2013092  23.2967529  49.8676414  37.3104401  73.7966080
  49.8400192  37.9442596  73.0798492  50.6190720  36.7529831  73.5945511
   5.9931645  13.7718611  19.6243362   5.9917927  14.2167740  20.4718513
   5.2874060  14.1915216  19.1323795   9.9627953  38.9268227  12.5596266
  10.4342346  39.6476898  12.9771509   9.1942673  39.3395882  12.1656466
  59.8074989  18.3024445  71.6386261  60.1799431  17.8425121  72.3909378
  58.8732567  18.3679428  71.8364334  11.9975653  33.7110825  35.3470116
  11.5119543  32.9617805  35.0021057  12.5445013  33.9990120  34.6161308
  47.1880951  48.9001122  40.0654907  47.9402237  48.3125610  39.9925804
  46.7711182  48.6540642  40.8912163  37.4085960  52.7410622  59.1145363
  37.0114670  52.3832130  58.3205185  37.0295525  52.2244835  59.8256645
  27.3230762  30.3703918   5.0057616  27.7134228  30.8178425   4.2549963
  28.0232830  29.8108578   5.3417130  78.1189804  44.1270561  20.3321247
  77.7196503  44.6246529  19.6185684  78.0313950  43.2122192  20.0644722
  36.3361588  34.6575165   8.6570253  35.7825813  35.3793259   8.3590775
  37.2079468  35.0435371   8.7419138  56.0193787  26.6373310  88.2958984
  55.2469673  26.4017849  88.8098297  55.7761536  27.4530659  87.8581238
  39.0245285  17.1173878   5.0993619  38.8302536  16.1849747   5.1947389
  39.9329643  17.2035561   5.3884125  38.3037109  35.1447563  67.7440796
  37.7573509  34.5343437  67.2489777  39.1580086  35.1043358  67.3142242
   8.4438000  53.5160217  60.8370361   8.3419046  52.7434921  60.2811127
   9.3080616  53.8605919  60.6121941  18.1837730  45.4193420  63.8109322
  17.2624683  45.6774635  63.7826614  18.4957142  45.5464134  62.9149551
  74.7084808  37.5496674  45.1430702  75.5115433  37.6631355  45.6514473
  74.0110168  37.8464584  45.7276115  21.2592010  14.3468094   5.4091048
  22.1775093  14.4967394   5.6337447  21.1367474  13.4037991   5.5185046
  68.7642059  24.3017788  29.1630802  68.0012131  23.9926319  29.6514454
  68.7552643  23.7888489  28.3549614   9.7235346  51.1735802  16.6046925
   9.5295734  50.6389923  15.8347387   9.4122458  50.6509476  17.3437366
   8.7378063  53.5982742  38.0568848   8.2898188  54.4046898  38.3122864
   9.5930853  53.6541405  38.4830399  51.6767426  22.5661163  37.4810600
  50.8535194  22.1383934  37.2452965  51.9888840  22.9523945  36.6627769
  71.6780014  70.8504028  34.4609070  72.0260925  71.6960068  34.7437744
  71.0724945  70.5956497  35.1571083  67.2353134  54.8525620  62.0090714
  66.8039246  54.2181282  62.5814629  66.5740051  55.5281067  61.8589134
  36.3615532  12.5229406   6.1486092  35.8281097  12.3268757   5.3783960
  35.9376221  12.0451450   6.8615079  75.6634140  59.5121040  70.9157562
  75.5943604  58.6071167  71.2198257  75.7252274  59.4406738  69.9632339
  36.3902702  61.2613983  53.0798416  36.3575859  61.7807579  52.2764549
  35.9002571  60.4660950  52.8710060  77.2408218  37.8926964  38.3112259
  76.6543045  37.7071877  37.5778656  76.6686096  38.2470627  38.9918365
  42.0918083  17.1129665   5.0190415  42.7333984  16.5229626   5.4146290
  42.5698891  17.9312477   4.8845520  66.4884796  61.6795082  39.3104744
  66.2843094  62.6122780  39.2434769  66.3085327  61.3316040  38.4370804
  37.7090836   7.9214706  83.7998123  38.4985886   8.4381914  83.9607773
  38.0286217   7.0273948  83.6783447  20.4830170   6.5842347   6.0319538
  20.4479237   5.6500301   6.2375321  21.2972946   6.8874235   6.4335265
  81.4788513  63.8318863  64.2507172  81.8202972  63.4953842  63.4222221
  82.1895905  64.3677902  64.6026993  27.6719189  27.9973907  77.0350266
  27.4302902  27.5482788  77.8450546  26.8964443  28.5088768  76.8042679
  40.3298073  43.7126961  68.8797226  39.7850800  43.9970131  69.6136627
  41.2137222  43.6610489  69.2434006  13.8045788  61.0178299  63.2002754
  12.8905773  60.7772484  63.3517799  14.2972097  60.2197762  63.3917236
  13.1596613   7.1383915  68.5842667  13.2630615   7.6505294  69.3862991
  12.2594280   6.8151708  68.6208725  61.2465591  17.9085426   6.5892100
  60.3891945  18.3340073   6.5773678  61.7587090  18.4191914   7.2162442
  50.3088570  57.1042633  23.8355370  50.4044685  57.7116699  23.1019516
  49.9713974  57.6436424  24.5506783  61.8209190  29.8683548  40.8035355
  62.3511276  29.0893860  40.6352577  60.9451523  29.6327076  40.4973755
  74.8202972  10.3551168  85.4491501  75.4238586  10.2258663  86.1807556
  75.3188019  10.8713512  84.8157272  25.8061218  39.6454277  39.6907959
  26.1293659  40.3619041  40.2370605  26.2381439  39.7743187  38.8464165
  73.4769516  23.1076374  29.0146217  73.1374741  22.4153767  28.4473858
  74.3377457  23.3147869  28.6508141   6.9651923  50.7565956  32.2998924
   7.7289209  51.3116798  32.4574852   7.3296328  49.8836403  32.1537361
  59.4826584   3.0496013   4.6593318  59.2068291   3.3258367   3.7853503
  60.0982628   3.7262135   4.9412179  39.7437630  48.8419151   7.4227214
  40.2240372  48.8906479   8.2492752  39.1308365  49.5762863   7.4581985
  55.1498833   9.9393997  21.4925594  54.5041695  10.3199482  20.8971882
  54.8261566  10.1557140  22.3669968  52.0113678  66.4660034  15.2872658
  52.7912445  66.9631042  15.0404587  51.5873947  66.2567291  14.4549875
  68.0851288  63.1216316  10.0454426  69.0185165  62.9124146  10.0101442
  68.0036392  63.7299805  10.7799540  37.8870850  47.9527588  46.4029312
  37.2552910  47.7899208  47.1033287  38.7260513  47.6697083  46.7665825
  66.8582840  46.8786163  23.6789417  66.2397308  46.6919785  22.9726906
  67.3564072  46.0677071  23.7815914  27.8995247  64.4213486  14.4614239
  27.9161530  63.8751984  15.2473459  28.0729198  65.3067017  14.7812948
  48.1713333  16.0691700  43.6172714  48.8183784  16.0351467  44.3218307
  48.4712677  16.7800350  43.0507545  62.6386871  52.1407433  73.8184509
  62.4485168  52.3339691  72.9004517  63.5075302  51.7393341  73.8037109
  73.1452789  64.2413635   4.4440060  73.1195984  64.7325592   3.6228487
  72.9718552  64.8961716   5.1203094  10.2203741  21.7431374   8.3146477
  10.0707541  21.1616611   7.5691748   9.5464706  22.4177685   8.2312212
  31.3148918  57.5632858  69.3151855  31.3584194  58.1749840  70.0501480
  31.5758610  56.7213974  69.6884842  24.9595108  61.5844040  28.5271072
  25.6876564  61.0165558  28.7792683  25.3766499  62.3361778  28.1063175
  75.7551575  67.3637619  80.6948166  75.5214310  67.7128983  79.8347549
  76.0204391  68.1316376  81.2010040  20.8637409  45.5294571  65.8086166
  20.7622013  46.4727516  65.6816788  20.6813049  45.1510353  64.9485321
  12.7801485  56.9437981  82.7706528  13.6216736  56.7703362  82.3487778
  12.5512295  56.1179390  83.1970215  61.7828369  49.9294968  85.3415909
  61.0555954  49.3592682  85.5909729  62.3539772  49.3720322  84.8131332
   7.9741163  14.2752733  55.5918541   7.8217325  14.4225683  54.6584091
   7.1793590  13.8386002  55.8982964   0.6082246  51.9930916  36.3584442
   1.0843560  52.7713737  36.0689583  -0.1885040  52.3363838  36.7629280
  31.4766560  40.4391937  61.7857857  31.5809555  41.1485596  62.4199409
  31.4167519  40.8817024  60.9391251  15.8227749  63.1336594  32.9544144
  15.3314695  63.7589149  32.4215813  16.2388687  62.5518723  32.3183174
  56.5102348  69.9077759  17.2507210  55.9470406  69.1338043  17.2541313
  56.5561638  70.1665115  16.3302994  55.8045959  61.6002464  84.1404724
  55.3528709  60.9319878  83.6250992  56.1346283  61.1298409  84.9059982
  61.1524353  21.1620026  55.1294861  60.5549278  21.7689056  54.6925812
  61.2602119  21.5236340  56.0091667   1.3408402  62.6325760  22.1479797
   2.2946320  62.5547638  22.1693859   1.0888547  62.7424164  23.0648594
  46.2618904  42.4103050  61.1806374  46.3431053  42.7418976  60.2863884
  46.5168762  43.1486015  61.7339325  54.6831551   2.3888707  13.8849859
  55.3479233   2.6069982  14.5382347  53.8599968   2.6865890  14.2722940
  12.0106945  69.3425980   3.0164132  12.7942781  69.8805008   2.9028711
  12.3201609  68.4430847   2.9098952  42.2485542   4.6978354   8.9282370
  42.6768074   5.3485198   8.3719635  41.6512108   5.2070127   9.4760962
   4.3263893  67.1120453  39.1216393   5.2330823  67.3707657  39.2865677
   3.8895798  67.9228897  38.8609581  42.8942642  39.5348930  54.3117638
  42.7616806  40.0781631  53.5349045  42.0096283  39.3280869  54.6132278
   3.8617060  37.7594032  49.4469147   4.2141237  38.6307411  49.2657928
   3.6003716  37.7932625  50.3671265  10.5878735  45.5405807  83.3959656
  10.3152180  44.6524963  83.6266174   9.8287745  45.9158859  82.9497070
  70.6010361  30.2142792   2.7018714  69.7394714  30.1235027   2.2948172
  70.7803574  31.1541748   2.6759338  12.9072943  68.9655304  85.9176865
  13.2709751  68.1559753  85.5590973  11.9627419  68.8127060  85.9440842
  15.6221743  35.7374573  70.8896637  15.7442799  35.9084625  71.8235168
  15.1414185  34.9103355  70.8584824  63.5129814  41.9366951  74.7307739
  62.8090858  42.5812645  74.8035355  63.3243103  41.4666672  73.9185486
  33.2716484  18.4441833  85.5486298  33.8239288  19.2008400  85.3519363
  33.8098831  17.8970184  86.1205978  81.1180649   1.3880967  33.1866951
  81.9611664   1.8410295  33.1705666  81.1314545   0.8860177  34.0015373
  62.4227905  26.3120213  23.4202747  62.0977211  27.2116032  23.4565048
  61.6373978  25.7782040  23.3001404  79.8854446  62.4519463  13.2204895
  79.2878952  62.4029808  13.9666576  79.3111877  62.4798775  12.4551926
  42.6498260  49.8160706  59.5418968  42.0724182  50.1642036  60.2213364
  43.0109940  49.0151482  59.9217834  53.9127769  59.4154243  35.7718010
  54.0362816  59.8034096  34.9055176  52.9673615  59.2834625  35.8425636
  34.6126328  32.3083687  74.9374771  34.6657524  33.0251389  74.3053055
  33.6751060  32.1972466  75.0953598  20.7757301  57.2351303  40.7998657
  21.7197704  57.2907295  40.6517715  20.5008183  58.1418571  40.9358864
  60.1234093  38.0595284  82.9598083  59.8152008  37.2289200  83.3221970
  60.5442467  37.8192368  82.1343384  16.7013588  61.3686714  37.6137161
  16.5310917  60.4645653  37.3494644  16.8037949  61.3250885  38.5644188
  24.1450253  51.4225616  16.5219898  23.8115025  51.0888176  17.3548222
  23.4374905  51.2598648  15.8981667   5.5051355  45.8234596  42.1901321
   4.5998755  45.6755180  42.4637184   5.8986826  44.9509392  42.1825294
  59.6529083  14.5718403  38.7826538  59.7277832  13.9273138  38.0789413
  58.8132133  15.0031185  38.6240921  13.7276745  63.5884438  24.6484661
  14.5203705  64.0993500  24.4846249  13.5932732  63.6514931  25.5940857
  33.5742264  39.0683784  28.4205017  33.4836426  39.9670830  28.1037083
  32.6841469  38.7167816  28.4012642  64.3808975  20.8794174  59.3819885
  65.0027390  21.5462799  59.6732597  64.8364182  20.0493984  59.5226936
  19.2248440  58.9099579  51.9125252  19.2817116  59.3107376  52.7799187
  18.3829250  59.2061234  51.5665665  52.2029533  21.4255352   7.4196172
  51.9886208  21.9435253   6.6437440  53.0132980  20.9716377   7.1882162
  34.7614670  27.8870277  80.4549942  35.4153557  28.4407597  80.0283279
  34.6627502  28.2634277  81.3295288  36.0447044  49.6394958  81.0965424
  36.0630302  48.6902275  80.9749603  36.9593925  49.9092407  81.0139542
  11.6503019  62.5087166  12.2949305  12.2235250  61.8522873  11.8990126
  10.9724112  62.6628571  11.6369514  20.2310410  55.0029984  79.4579163
  21.0588913  55.0773048  79.9326553  20.2880878  54.1603737  79.0074081
  25.9809151  71.2921295  13.8060760  25.6014347  70.4770584  13.4776087
  25.3792324  71.5762329  14.4941845  80.5529404   4.1253953  54.1075668
  80.9276276   4.9353118  54.4538002  79.8195953   3.9319499  54.6915321
  78.5914688   8.0261631  17.7508736  77.7522583   8.4243631  17.5198154
  78.7016068   8.2223864  18.6812477  17.7150536  57.7405014   3.3183234
  17.7207088  58.5076180   3.8908064  18.0485916  58.0637779   2.4813788
  53.8462334  10.6845112  23.9338036  53.4270630  11.5320864  23.7849941
  54.4919853  10.8538170  24.6197891  83.0772171  15.3306398  70.3369293
  83.1950150  14.7386255  69.5940475  83.8769913  15.2294302  70.8530121
   5.1452565  62.1058540  49.9548721   5.1190391  61.2590523  50.4003716
   4.5340261  62.6542587  50.4466858  28.2473202  46.6788940  62.7823029
  28.7775078  45.9241905  63.0383415  27.5893974  46.3187256  62.1876221
  32.4198799  26.8539104  71.9204102  32.6618919  26.0103207  71.5382919
  32.2001991  27.4034367  71.1680832  21.2452202   3.1866012  24.8720837
  21.4661789   2.2836258  25.1002159  21.6541233   3.7139349  25.5583401
  46.5433388   0.3463764  81.8928986  46.1316032   1.1398420  81.5506744
  45.8204956  -0.1548068  82.2704544  49.8586426  30.9648056  72.4629898
  49.6151886  30.9274158  71.5380249  49.0448799  30.7814159  72.9324493
  67.0596924   0.1916034  20.0459785  66.7221527  -0.2993310  20.7951660
  67.1193390   1.0944030  20.3584328  59.4966316  39.6748734  55.7760124
  59.5063133  39.8388290  54.8330078  59.6145706  38.7283211  55.8557663
   8.0768566   2.4787853  84.0740509   8.9838095   2.2136283  84.2268906
   7.8746104   2.1473284  83.1991425  46.5990486  60.4166222   0.1174339
  46.0146904  60.4329605  -0.6405171  46.0185013  60.5303154   0.8699439
  75.8522720  37.9382629  70.4595032  76.4685898  37.7747002  69.7456131
  76.3006058  38.5686455  71.0232773  62.8467484  60.0793877  39.0701370
  63.4627075  59.5370979  39.5628281  63.0373001  59.8848686  38.1524849
  22.0896130  64.0494614  57.2173538  22.5978470  63.4035110  57.7079468
  21.8100586  63.5851860  56.4283524  86.5696259  53.2269135  85.6342545
  87.3388901  52.7547035  85.3156891  85.8256531  52.7306404  85.2930145
  47.1313286  26.0538349  30.2150421  47.5989456  26.6078396  30.8400593
  47.6304703  25.2372417  30.1986103  58.9818306  42.0426674  89.1627808
  59.5631943  42.7530212  89.4341660  59.4563942  41.6004524  88.4588852
  46.3137512  36.1568108  54.5133667  46.5970497  35.3677177  54.9752197
  45.4921608  36.4015961  54.9391594   9.0177898  49.1633873  73.3881607
   9.4389992  50.0062790  73.5565338   8.3107071  49.1162071  74.0316238
  30.6484680  67.4687347  70.2210464  31.4273205  67.7588272  69.7462158
  30.2266693  68.2789993  70.5070343  49.9077950  67.7397842  50.5567055
  49.8952484  67.4113235  51.4556961  50.3149376  68.6035461  50.6229591
  73.8975220  52.6245842  78.9513016  74.1360626  52.5444946  78.0277710
  74.5769730  53.1848030  79.3264542  83.1979828  71.3034286  27.8840714
  83.5167007  71.7457275  27.0972900  82.2536621  71.4598770  27.8808746
  74.0073242  16.8132744   3.0734963  74.3994293  16.6032524   2.2259245
  74.0400314  17.7686653   3.1223779  70.0745392   3.9550464  74.5188675
  70.9348602   3.8424370  74.9230957  70.2489929   3.9453483  73.5777435
  84.2149506   9.0909939  54.9278297  84.0116425   9.1898737  55.8579521
  83.3943710   9.2969513  54.4800949  34.4101219  10.7651663   1.3189321
  34.7758331   9.8993006   1.1379242  33.4962463  10.5960674   1.5480018
  82.3788986  43.5861092  59.1388702  82.8377686  43.4975624  58.3035088
  82.6830139  42.8424683  59.6591949  86.6956177  55.0566521  53.0120010
  85.7777252  55.2121964  53.2345123  87.1030731  54.8026199  53.8400574
  56.8126144  70.8695221  -0.0571010  57.1796303  71.4847488   0.5777423
  57.4511948  70.1576157  -0.0975015  29.0625153  51.2947845  63.5538597
  29.0473728  50.3810577  63.2690697  28.4190540  51.3358536  64.2613220
  12.0147676  46.7869377  85.5575714  11.5258274  46.3293457  84.8736343
  11.6578588  46.4444656  86.3770599   4.3293777  23.8789711  18.8721542
   5.0290098  24.5241585  18.7697849   3.6851182  24.3112125  19.4328041
  80.4305878  64.1294785  46.1901169  81.2723694  63.7510605  45.9362869
  80.0882339  64.5147781  45.3835411  40.7614822  43.7243690  24.3419056
  40.0434723  43.6228676  24.9667149  41.5453606  43.7930222  24.8869343
  20.8585281  36.6767502  16.9171543  21.2777729  35.9769478  16.4164104
  20.4880676  37.2578011  16.2527981  66.4582138  69.1902542  76.4638367
  66.3921585  68.5473633  77.1699142  66.1959457  68.7107468  75.6780090
  17.0079994  10.1037979  19.8362179  16.7188568  10.3245707  18.9508419
  17.8812752   9.7304649  19.7168751  85.5944901  70.7717972  59.8952522
  85.9864349  71.6306610  59.7372932  86.2049942  70.1526489  59.4950409
  23.1045361  52.9985619  27.0281048  23.6645088  53.5254555  26.4579716
  23.0175648  52.1617966  26.5714989  84.7125320  36.1873322  19.8031654
  84.9346619  35.9529610  18.9020767  84.4250565  37.0987740  19.7496605
  39.4065857   5.7357373  82.8915405  39.7543526   5.0400062  83.4494324
  40.0780487   6.4176011  82.9123688   7.6345778   6.1047096  65.9088135
   6.6849465   6.1951599  65.9878845   7.9336548   5.9300036  66.8011551
  62.2296295  47.7603683  57.5453949  61.4717598  47.2353668  57.2880249
  61.8567581  48.5922432  57.8372536  80.9229584   7.7270408  36.8809204
  81.0486069   8.3251009  37.6176491  80.0664749   7.9627938  36.5244255
   5.0368280  66.6366501  77.7416077   4.7997041  67.5635223  77.7113266
   5.9397535  66.6306763  78.0592880  20.2392998  67.6454926  53.5082474
  20.3474083  68.0910110  54.3485184  20.0760441  66.7314911  53.7410126
  71.6277237  41.9883003   9.2974701  71.6659775  41.0722313   9.5723944
  71.8785934  42.4831390  10.0774908  61.4784508  40.1748085  22.5063705
  61.5097771  40.6747398  23.3220425  61.6782684  39.2761269  22.7684345
  62.1106644  14.6957092  60.9802322  61.2192116  15.0257711  60.8679848
  62.2265549  14.0707273  60.2645531  15.7967682  67.2245255  81.1126633
  15.8838415  66.3389893  80.7598419  16.3122482  67.7705917  80.5190964
  12.9248676  15.4208975  80.2844391  13.6826401  15.3005428  79.7121429
  13.2971973  15.7120838  81.1167984  50.5523834  68.2895966  20.0774994
  50.9350433  67.6818848  19.4446545  51.2813148  68.5304718  20.6492233
  22.1775265  38.9711113  81.4329834  22.7573528  38.2515297  81.6824570
  22.5694618  39.3294258  80.6365967  22.9596939  51.8675423  46.5853615
  23.0197315  51.8451843  45.6303101  22.0360928  51.6983795  46.7713127
  63.6035461  54.7083931  15.8942537  63.2345009  54.4522552  15.0490131
  63.9047318  55.6072388  15.7616072  74.3893890  42.4958382  17.8702068
  74.0351868  41.8431358  18.4741573  73.6190262  42.8676186  17.4406090
  25.0074997  30.3739643   7.0464144  25.7796307  30.3389492   6.4817719
  24.5073128  29.5907497   6.8170233  55.3703461  59.5044365  65.3776321
  55.2934151  59.4549446  64.4248123  54.4660301  59.5020256  65.6913834
  39.6460800  44.8999557  88.4142914  39.2283669  44.0438919  88.3199463
  39.8005524  44.9887390  89.3547668  46.1298256  47.5481262  67.4652939
  45.3124733  47.8684158  67.0837402  45.9027328  47.3294983  68.3690948
  62.4648781  58.7112503  47.1528854  61.5436249  58.8275223  47.3852806
  62.4469757  58.1568832  46.3727646  77.7638092   0.1388531  30.4867458
  77.7315292   0.1842594  29.5311680  77.9513397   1.0359436  30.7629566
  78.0093307  37.9211807  26.9549160  78.9307556  37.7513046  26.7591114
  77.7951584  38.7003937  26.4418945  80.2679214  21.2740250  23.9241638
  80.7370148  21.0931320  24.7386932  79.6260986  20.5672245  23.8553638
  70.8461304  60.8598671  40.8563080  70.3240204  60.2500687  40.3349838
  71.6647339  60.9517250  40.3687820  83.2709961  56.5958328  27.4911919
  83.4056091  55.7363586  27.0919228  82.6588211  57.0394363  26.9040928
   9.6064787  48.0899048  28.4998817   9.0214176  47.5604324  29.0417290
   9.0338554  48.4794617  27.8391418  81.1146088  21.1826458  15.3528061
  81.6218491  21.4325027  16.1251431  81.1627274  20.2268486  15.3335676
  31.9876003  60.4908714  23.1522541  32.3768616  60.7851715  22.3287907
  31.2509651  61.0852318  23.2948685  39.6166992  52.7746353   1.5992665
  39.3109589  52.1793861   2.2836878  40.3580589  52.3196449   1.1997625
  37.2820396  42.8394089  25.2562599  37.1252480  43.7509499  25.0098057
  37.4654617  42.8732872  26.1951122  57.7673187  12.3032503  53.8890915
  57.7055702  12.7515450  53.0456161  58.0040741  12.9923630  54.5098152
  21.7713108  53.0757408  57.9181366  22.5433006  53.2948418  58.4399185
  21.0580883  53.0265770  58.5546303  51.9813881   7.5356092  13.0715990
  51.7322540   7.8038177  13.9560366  51.7268448   8.2731037  12.5170345
  51.6813927  22.8199520  24.6381760  51.6661682  23.6978245  25.0194111
  50.9030762  22.3909168  24.9936790   1.3522474  32.1117859  52.7440529
   1.6803041  32.6803551  52.0473900   1.1194342  31.2971401  52.2986488
  48.7465706  67.2240829  16.8373699  48.6156960  66.3046341  17.0691528
  48.7559967  67.2308044  15.8802404  50.9652290  10.8905306  15.1879320
  51.0603828  11.0349169  14.2464809  50.1439323  11.3264322  15.4152927
  52.5952721  32.5518837  69.7660217  52.9026794  32.5844955  70.6719284
  52.4047470  31.6267509  69.6109085  24.5527534  52.2301941  88.8584518
  24.0949478  51.3965302  88.7505035  25.0075798  52.1469078  89.6965561
  63.1567726   0.7022027   0.2223978  63.9149513   0.1330519   0.0902546
  63.5076447   1.5896711   0.1481036  82.2015457   3.7726712  61.7902374
  82.8966827   3.4429426  61.2207603  82.5043106   4.6395998  62.0604286
  15.2450905  61.2509041  58.1622887  16.0307426  60.8008308  58.4728012
  15.2159328  62.0608063  58.6716385  62.6196899  68.1097641  38.2284775
  62.7141838  68.1279221  39.1808319  63.1691589  68.8300705  37.9194946
  20.4619026  57.8049431  30.2001953  19.9898262  58.5123749  29.7609711
  21.1788483  58.2436485  30.6581860  45.5749207  43.5589180  35.8813972
  46.0795708  44.2512093  35.4544373  45.5283241  43.8275948  36.7989349
  72.9556961  40.6604996  85.2324600  72.7194519  40.1994171  86.0373383
  72.4383774  41.4654922  85.2569275  78.1279221   7.3782821  44.0160751
  77.5338898   6.7595692  44.4409866  77.7470169   8.2378702  44.1956558
  80.6151657  65.7428589  28.8176422  79.7941437  66.2344513  28.7954445
  80.8102417  65.5607910  27.8983898  58.8000069  36.4218636  67.7006149
  59.6932602  36.3498802  67.3642349  58.6103897  37.3598175  67.6779251
  80.7368851  65.0294189  15.6990719  80.4475479  64.2427292  16.1612854
  80.0088348  65.6437225  15.7928629  33.3431587  58.5945320  74.7683029
  34.0640984  58.0332756  75.0537415  32.7448196  58.6142693  75.5151825
  50.1015282  40.4740562  83.5287628  49.3820000  40.0581627  84.0036850
  50.2170944  41.3198471  83.9617920  41.1771317  55.5614014  50.1023788
  40.9609070  54.7829857  49.5890083  40.9468994  55.3269615  51.0014114
  15.8821974  62.4415627  20.3802414  16.2450829  62.9225807  21.1239948
  14.9338722  62.5199890  20.4839706   7.3433976  30.9778023   8.0207777
   7.4548941  31.6409798   7.3396049   6.5442872  30.5124874   7.7735214
  46.8592529  57.3607101  23.7133770  47.2914848  56.5163193  23.5852642
  47.4323616  57.8340874  24.3164463  51.3405800  31.2778244  59.6496696
  51.0131836  32.1173820  59.9724503  51.8508110  30.9236984  60.3780174
  72.5323334  31.6821918  45.4026718  72.3279266  31.0142002  44.7482758
  72.6677322  31.1904564  46.2126694  11.4136868   6.0765615   2.3526461
  12.3420105   6.0315099   2.1236999  11.4018650   6.4556952   3.2314804
  40.3103180  70.1055450  30.1407318  40.3218079  69.1711655  29.9332695
  39.7718010  70.1691437  30.9295216  31.2751026  14.4610748  84.0117264
  31.0636253  14.5018196  83.0790710  32.0590553  15.0025892  84.1034393
  82.1839600  30.3972530  29.5082855  82.4760666  30.8286667  28.7052994
  82.4671478  30.9821720  30.2110691  27.4756851  65.9603195  76.2923889
  27.4404964  65.3480225  77.0272903  28.4035587  66.0041733  76.0613861
  32.8434105  18.1264038  71.2530289  33.6643333  17.7913494  71.6136627
  32.3108940  17.3451557  71.1036606  31.3741684  40.7735176  76.9956665
  30.4560280  40.7141457  76.7316132  31.8656101  40.5478630  76.2058563
  83.6618729  69.0468140   0.2189474  84.0073776  68.5377808   0.9522546
  83.1938248  69.7730408   0.6309581  23.0153446  69.0025406  22.4970131
  22.0649776  69.0053864  22.6111469  23.3635578  68.9803314  23.3883514
  31.6455097  64.9945755  65.9911575  32.0758247  64.7821503  65.1629486
  31.5035114  65.9403610  65.9516144  59.9958305  24.2756920  27.1102619
  59.5031319  24.8623714  27.6840992  59.3893013  23.5594463  26.9222488
  37.5185776  54.7303047  24.1967297  37.4670906  55.4996681  24.7638817
  37.7133560  55.0848579  23.3292122  26.2982349  50.0864372  19.5900574
  25.9625797  49.7385330  20.4162102  26.1981430  51.0349159  19.6713066
  33.0443573  54.8618469  82.5162888  32.6026726  54.0258446  82.3671570
  32.4202576  55.3740921  83.0304337  17.0544491  33.8817368   9.9826384
  17.7627602  33.9505196   9.3424854  16.4297009  33.2756691   9.5843878
  71.8387680   1.2578026  30.0303993  72.5022278   1.7065045  29.5062714
  72.2738037   1.0768666  30.8636074  67.4398499  62.1473618  75.2971725
  66.5794601  62.4847145  75.0478668  68.0390244  62.5164108  74.6483078
  17.5709248   0.4625392   6.2141595  17.1933689   1.2567152   6.5922704
  17.2409344  -0.2460551   6.7666378  24.7315407  64.0056915  54.2571220
  24.7186794  64.9257278  54.5209351  24.6357975  64.0281830  53.3049850
  24.9222775   5.9750118  80.6306686  24.1631641   5.6173596  80.1701660
  24.5701580   6.7018008  81.1445007  83.3047714  28.1601887  84.2335587
  83.3647079  29.1151047  84.2057037  83.2365494  27.8976059  83.3156128
  55.2690201  44.1987343  84.2495117  55.7675896  44.2554398  83.4343796
  55.9340019  44.0966492  84.9303970  75.5937500  28.5479221  61.5725632
  75.0563660  27.7758274  61.7495346  75.6409454  28.5931206  60.6175957
  42.3612556  17.5762100  64.9353561  43.2578659  17.2420826  64.9093246
  42.3356628  18.2468567  64.2528610  82.0052032  46.1428146  80.2452774
  82.8086014  46.6397667  80.3996201  81.4864883  46.7002144  79.6652145
  35.9222450  32.3947678   7.4205213  35.4163284  32.5413704   6.6212783
  35.9913216  33.2607269   7.8224835  12.0125685  64.5867996  64.6214752
  12.7442837  64.3922653  65.2071152  11.5741491  65.3351822  65.0263748
  58.1769409  60.7201920  35.7518272  58.1040192  60.8996201  34.8144264
  58.4981613  61.5395584  36.1282425  59.9368668  59.0771179  74.1979141
  60.0878563  58.3293877  74.7761307  58.9958229  59.0590019  74.0237198
  60.2828522  29.5457592   7.2250066  60.9643250  29.7104073   7.8767090
  60.0829010  30.4094696   6.8640962  71.5654297  31.7571583  80.5241013
  72.4332962  31.3860283  80.6831894  71.7037354  32.7042160  80.5378647
  53.2599220  35.9644852  14.8176680  53.5487709  36.7201233  14.3059940
  54.0682983  35.5866241  15.1640520  35.5409431  31.6364098  78.8517761
  34.6785355  31.3994637  78.5106888  36.1565895  31.3023071  78.1994095
   1.2705914  26.6201000  51.2795906   1.7132777  26.4306355  50.4523277
   1.9082727  27.1274662  51.7817574  77.4415207  33.6498756  56.4594002
  77.6761856  34.2553444  55.7561378  78.0761490  33.8306503  57.1527939
  22.7667828  57.4695435  51.6115227  23.6435490  57.2062607  51.8911591
  22.5962944  56.9430504  50.8305168  31.1645851  22.3145142  13.4416037
  31.1261711  22.1271763  14.3795061  30.7141380  23.1537113  13.3463373
  11.7604551  40.8199120  57.5792465  12.4843760  41.1172791  58.1303749
  11.1109428  41.5205307  57.6383820  32.6138229  47.4143867  40.6031227
  33.5257912  47.1964912  40.4105797  32.6623535  48.0064011  41.3537178
  44.6074600  58.9938774  38.7482681  45.0050926  59.8441048  38.5605469
  44.2393799  58.7115135  37.9109993  55.6883049  54.4798584  57.1447372
  55.1098633  54.2628517  57.8758659  56.5653954  54.2627106  57.4606361
  15.5564823  27.9297104  72.2258224  15.3628454  27.1477528  72.7428131
  16.1819077  27.6314182  71.5654449  40.8943939   2.4705565  76.1480942
  40.6181335   1.6038916  76.4460907  40.3114395   3.0776627  76.6039658
  73.3318100  20.6585312  31.8048744  73.0176620  21.0002155  32.6420097
  74.2404480  20.9546967  31.7511044  85.8076630  39.8259697  72.2795029
  85.4909058  40.6112442  72.7258682  85.5628586  39.9560432  71.3633270
  48.9645691  18.5276775  84.0986786  49.4918671  17.7984085  83.7725525
  49.5907097  19.2419968  84.2166901  80.7707901   3.6588807   0.1780807
  79.8724976   3.3284082   0.1680652  81.2717743   2.9772685   0.6260207
  76.8815460  63.9636307  60.1054077  77.6231613  64.3683548  60.5553436
  77.2725067  63.2669525  59.5781326  83.0323181  70.3402100  78.6621780
  82.2179184  69.8795776  78.4601822  82.8465424  71.2564545  78.4567413
  42.9368248   6.8901463  22.1465893  42.7262039   7.7913299  21.9021759
  42.1740761   6.5918469  22.6420288  59.6025925  33.4004669  41.1485825
  59.6067543  33.9925499  41.9006805  60.3778229  32.8524742  41.2708626
  62.3033943   3.0215757  84.8684692  63.2173615   2.7506917  84.9551773
  62.3405151   3.9766655  84.8169250  20.2583294  12.4950666   7.8162909
  20.8025150  12.7816982   8.5497332  19.4336739  12.9673090   7.9310164
  52.6073723  45.5701485  82.4964294  53.4235992  45.6426544  82.9911499
  51.9210701  45.7500916  83.1389618  10.3950071  35.3282013   9.3871965
  10.7003613  35.8031006  10.1601524   9.5087748  35.0463448   9.6138687
  55.5393143  66.1011505  26.5613365  55.1208229  66.8785019  26.1914463
  54.8134384  65.5088959  26.7577381  78.2231598  21.8687458  54.3171654
  78.6654816  22.0536823  53.4886818  77.3568115  22.2638969  54.2195587
  21.9872494  42.2876053  63.0704918  22.1148720  42.1324883  64.0063782
  21.9124088  41.4121933  62.6906395  80.8015213  20.1552010  72.6140671
  79.9750061  19.7348423  72.3765793  80.6275482  20.5635262  73.4621429
  66.7261581   1.3933171  25.3637447  67.5656586   0.9510239  25.2378235
  66.0882263   0.6825727  25.4278526  58.7474480  44.5870781  19.3626156
  57.9415932  44.7305489  19.8588448  58.6967278  45.2104607  18.6380100
  23.4277782  46.2087402  35.8094711  22.5385189  46.5604630  35.7677650
  23.9926949  46.9684372  35.6681900  75.1364288  54.5007210  61.1647148
  75.4305954  54.2278328  60.2956734  75.4577866  53.8166618  61.7521019
  24.5188007  54.6669846  29.8701649  24.9974270  55.1990891  29.2345448
  23.5974655  54.7954521  29.6446247  71.0349655  60.8838806  63.1821518
  71.2676392  59.9856224  63.4171600  71.7787018  61.1970711  62.6673698
  20.8820190  27.6295204  74.7425461  21.3395729  28.4168434  75.0375061
  20.5961056  27.8377113  73.8530884  75.2386932  23.0395088  80.7164459
  74.5223923  22.5781765  81.1527100  75.9759369  22.4303894  80.7573013
  18.6613464  21.9318657   2.5496266  19.0186005  22.7607136   2.8683953
  19.4301949  21.3822975   2.3977094  74.6080399  33.2667198  81.1712952
  74.3117447  32.7031059  80.4566116  75.3718033  33.7217674  80.8165817
  42.8718147  57.5967293  75.7210922  42.1540070  57.7330627  76.3394775
  43.6257744  57.3861771  76.2719498  10.5895481  26.5430622  75.6566467
  10.8263798  26.5512962  76.5840530   9.9594898  27.2576771  75.5639954
  81.3681259  24.3376350  63.2392159  82.2888718  24.5489712  63.3935165
  81.2956314  23.4086781  63.4583397  56.0406151  52.0419540  30.7225895
  56.4997864  52.7928734  30.3464012  56.6227188  51.2995605  30.5606174
  20.7263737  55.5281181  18.5667744  20.1098347  56.0734215  18.0781517
  20.2583771  55.2977142  19.3693504  45.0774155  42.0936661  26.2401485
  45.3437614  42.6112328  25.4802704  45.9005699  41.8404427  26.6579075
  33.6907806  56.3965759  59.6774788  33.4324112  55.5150871  59.9466553
  34.3132248  56.6788597  60.3476372  74.5940475   4.2683249  44.2357597
  74.6469879   3.3471797  44.4905548  73.7379608   4.5557933  44.5531158
  41.5334320  58.4696541  78.5280838  40.8445854  58.5966148  79.1804581
  42.1322708  59.2035217  78.6661530  29.6550293  59.5687523  73.9474716
  29.4691868  60.5017776  73.8418503  30.1184196  59.3246384  73.1462784
  72.6310730   9.6561022  70.1407623  73.3137512   9.3824902  69.5281296
  73.0604782   9.6500072  70.9962158  10.1167488  17.3984394  11.8965368
  10.2048817  16.6304989  12.4611025   9.3646126  17.2004585  11.3385696
  62.9210396  36.5571785  87.4126816  62.0901566  36.1213188  87.2232361
  63.3413849  35.9979134  88.0659561  61.9854813  49.1898308  75.6651611
  61.8017159  50.1266632  75.5958557  61.1356201  48.7924576  75.8550720
  64.9375076  51.0338516  60.7583427  64.2720337  51.6724243  61.0144730
  65.7175217  51.5592232  60.5800476  19.5078239  47.3754921  71.0520477
  18.7436848  47.9357605  71.1877747  19.5970287  47.3184128  70.1007309
   3.1581109  30.9009838  31.9992161   3.0402653  30.7858505  31.0563011
   2.3280644  30.6154556  32.3809586  33.5599327  66.9047089  82.4354019
  34.0022583  67.7500763  82.5123749  32.6953735  67.1178589  82.0842056
   4.7478132  33.5226440  15.2429609   4.7041044  33.8051224  16.1564846
   4.5705991  32.5825119  15.2742252  63.2894249  16.2854500  57.3778992
  63.4394112  17.1365147  56.9662857  62.8866844  15.7546654  56.6906586
   2.2216048  60.6181564  31.9673843   1.6292590  61.3613319  31.8531513
   2.8961384  60.7447433  31.3001423  35.5650826  47.0161934  51.4524155
  36.4959068  47.2176094  51.3563614  35.4100037  47.0448685  52.3965340
  60.0931587   2.5750175  66.0599899  60.7578049   2.7558951  66.7246475
  59.3831215   2.1497262  66.5408325  24.9742317  68.2982178  15.9498711
  24.9312344  67.4932022  16.4659367  25.6011295  68.8496399  16.4180241
  10.9208441  62.6724243  56.7579689  11.2131758  63.3195267  57.3998680
  11.2941151  61.8458633  57.0640717  57.8873482  19.0105152  75.2785034
  57.5866776  18.2474384  75.7720032  58.8408127  18.9270000  75.2657242
   7.2726202   4.1853137   5.5308299   7.4566131   4.2122288   4.5918655
   6.4367051   3.7238257   5.5979648  36.2799568  17.8724766   7.8448915
  35.5751343  17.9143009   8.4911947  36.9879150  18.3898563   8.2287445
  35.4792061  37.1685753  29.0841217  36.1744308  37.1877365  28.4264545
  34.8493347  37.8247871  28.7859936   0.7335464  32.5393143  81.0725784
   0.2567548  32.5907173  81.9009857   1.6439109  32.3918495  81.3289413
  49.5607872   2.3975949  33.8188591  50.4606895   2.4219308  34.1441612
  49.4437180   1.5009100  33.5050392  14.9837437  34.3249245  21.6089535
  14.9281044  34.5872269  22.5278301  15.9147711  34.1564445  21.4639206
  54.5278549  59.9005318  47.7379532  54.8762474  60.7307739  47.4130669
  54.6390953  59.2919121  47.0075874  70.7298050   8.2382488  79.0730362
  70.0839233   7.6107593  79.3975754  70.5132141   9.0571308  79.5188522
  82.6491623  29.7624645  11.0380058  82.5413055  29.1188316  10.3377657
  82.1835632  29.3848343  11.7842255  78.4145508   6.8331890  32.8682518
  77.9631119   6.1883006  33.4128227  78.0511551   7.6750426  33.1429482
  65.3455276  33.2012749  16.6481476  65.2213287  33.1035347  15.7040834
  66.2073364  32.8204994  16.8170414  24.1247787  55.5537910  56.5671234
  24.0049858  54.7347031  56.0865250  24.1975021  55.2856026  57.4831047
  61.4222984  40.2649345  66.9512939  60.9685211  40.6884804  67.6799393
  62.1720276  39.8293457  67.3567581  70.4568100  28.0029621  18.4698563
  69.9703674  27.6905594  19.2327518  70.0003281  27.6192188  17.7211304
   7.5272474   1.8696212  38.0181503   7.0410051   1.5357656  38.7720337
   7.8346243   2.7329392  38.2946167  50.4739761  62.6170044  42.7861633
  50.8886414  61.8348236  43.1501312  51.1667252  63.2775574  42.7865753
  69.1623383  26.3326187   8.9654541  69.0439529  26.3109264   8.0158510
  70.0297089  26.7178535   9.0899448  24.9882126  19.2560692  78.6453400
  25.9026680  19.0582428  78.4431839  24.5057449  18.4823418  78.3541260
  50.8017273  50.8643990  52.3125801  51.0602608  51.5832253  51.7357979
  51.4043922  50.1535149  52.0942421  38.8285866  67.1277466   4.2235460
  39.5793457  67.3200073   4.7853575  38.0711479  67.4318771   4.7235746
  75.4774780  63.2530556  15.9387636  75.8276672  63.3076782  16.8279266
  74.6499863  63.7326431  15.9773693  28.0840378  18.3269215  16.7302761
  28.9260807  17.8902912  16.6016369  27.4328537  17.6463013  16.5601406
  25.9032230  40.1701012  56.7273102  25.8797760  39.3322487  56.2650452
  26.5301952  40.6986122  56.2335358  80.9880524  25.4912796  75.9400864
  81.1934280  25.5555763  76.8727798  80.2520294  26.0903358  75.8150558
   1.8204212  27.4516373  31.2991238   1.0186697  26.9527340  31.4557133
   2.5177829  26.9033508  31.6587067  62.4846306   5.1683683  33.7309761
  62.1783638   4.2639580  33.6640663  62.8993149   5.2177134  34.5922699
  41.4101601  56.9061317  47.8450050  41.2498131  56.2587776  48.5316315
  42.2073326  56.6023521  47.4108734  63.0165062   9.5326948  65.3434906
  63.5606155   9.8913841  64.6424026  63.3439369   8.6420288  65.4689331
  48.2277679  65.6243286  14.2915163  47.7464371  65.2562561  13.5505180
  49.1486435  65.4766083  14.0761118  76.5004807  30.3181343  86.4786606
  75.6013107  30.6066532  86.3221970  76.4262466  29.3766060  86.6343613
  57.2329216  14.8260365   0.8035985  57.2743759  15.2994833  -0.0272814
  56.8646164  15.4578543   1.4211668  27.4730587  60.5300903  29.1591415
  28.2943840  60.8474350  28.7837086  27.7216663  59.7489967  29.6534290
  64.1320724   7.9156947  20.0754147  63.2378807   7.6012483  20.2087402
  64.0535126   8.8696594  20.0788555  44.8734550   8.7646360  60.7618065
  44.3609238   8.4160318  61.4912033  44.9522247   9.6998777  60.9498253
  49.4078827  28.1728973  67.2315140  48.5994682  28.1821327  67.7439728
  49.3800812  27.3430672  66.7552338  78.3831940   4.0268064  55.8037567
  78.4420242   3.2421944  56.3488770  78.1773071   4.7308288  56.4187355
   9.8633718   1.4059067  78.6677322  10.2654896   1.9866606  79.3136902
  10.5978956   1.0833485  78.1455612  58.0454712  12.9722242  41.3689880
  57.1970978  13.0022850  41.8112450  58.0154724  13.6964560  40.7438316
  80.9957275   9.0212526  45.9388847  80.2070999   9.5626097  45.9740028
  81.3791504   9.0996475  46.8124275  57.2545090  32.6835403   3.6338444
  57.7972717  32.8280449   2.8587568  56.3627014  32.8690033   3.3397117
  42.3969536  37.3018417  62.4546547  42.7290268  36.4098701  62.5563698
  43.1818504  37.8385124  62.3444176  31.3098946  35.4075813  18.5707970
  31.5816135  35.5819092  19.4719143  30.8764687  36.2138863  18.2910824
  65.7515488  45.4324379  34.1008911  65.9176559  46.3329163  34.3797722
  66.5523376  44.9597893  34.3279762  34.6099434  23.3929806  12.3437214
  34.5310783  22.4989758  12.6765404  33.9152107  23.4671345  11.6894436
  86.4102402  63.4021568   7.5225153  86.0130157  62.6339340   7.9327297
  86.5088501  64.0312271   8.2372055  21.3207970  65.1005096  59.6661034
  22.2589359  64.9835205  59.8159065  21.1723328  64.7467499  58.7891541
   8.4217243  54.5744019  10.3679743   8.2563972  53.9045868  11.0314846
   7.7823911  55.2613487  10.5566206  84.1585312  33.5258026  80.8518066
  83.7271423  34.3779030  80.7880707  85.0867767  33.7165985  80.7169266
  45.9133720  38.2436981  42.4684486  45.9483833  39.1198997  42.0846825
  46.8104057  37.9165993  42.4008636  34.6625938  29.5744972  75.7716522
  34.8108940  30.2956905  75.1600037  34.0654564  29.9352360  76.4270401
  51.5105247  59.5258217  33.0731506  51.2147903  58.6443367  33.3006554
  51.0126305  60.1025009  33.6526108  53.2713814  16.8324165  26.3505688
  53.8402443  17.5675507  26.1220818  52.4299774  17.0463600  25.9474621
  17.1879539   3.5527933   3.4905694  17.5934296   2.7608886   3.1374290
  16.3188400   3.5758545   3.0901434  55.1602211  29.7117939  25.9316788
  55.1550980  30.1643391  25.0882282  54.9465446  28.8036537  25.7175350
  61.2023659  56.4832306  74.7471237  62.0241852  56.6558113  74.2877121
  61.4633026  56.0012169  75.5318604  42.8874435  33.6061287  23.8599033
  42.1148682  33.8586197  24.3654804  43.4845657  33.2301521  24.5066757
  64.4611282  43.1540947  52.0511131  63.8484840  42.8460617  51.3832703
  65.3064651  43.1878891  51.6033440  10.1623363  16.2648373  81.8218460
  10.9328222  15.7448463  81.5933914  10.5193224  17.0855236  82.1613617
  80.5313339  56.5295067  60.7107430  79.7012024  56.3808365  61.1635208
  80.4109879  56.1258354  59.8512077  41.2070732  42.8841209   4.8395128
  41.9579620  42.3707657   5.1376128  40.8042374  42.3458405   4.1581841
  58.0608177  10.8577356  85.5590515  58.7176285  10.6920042  86.2353363
  57.6165009  11.6551695  85.8470001  48.4962769  35.6110573  27.2586079
  47.5694542  35.7113380  27.4757996  48.5252495  34.8508530  26.6776733
  54.5055771  54.3783455  59.5739784  54.1132545  53.5237579  59.7528534
  54.9043045  54.6374474  60.4047089  82.2812271  59.7552757  15.7113180
  81.3429794  59.8913612  15.8432570  82.5868149  59.3777847  16.5361500
  77.7701569  20.0172405  76.5991364  78.3723450  19.5831757  75.9948273
  77.8346024  20.9457817  76.3757706  65.9099503  37.9683533  65.7177200
  66.1765594  37.5198135  66.5201874  65.9225769  38.8975525  65.9472046
  33.0441437  34.8108635  83.6212692  33.9678230  34.5864639  83.7339325
  32.8472328  35.3911629  84.3565979  50.5213089  25.4537544  73.2784805
  50.3666687  26.3567257  73.5558929  50.1673012  24.9205589  73.9902496
  12.7385845  53.4333229  65.1655884  11.8583202  53.7752037  65.3220673
  13.1903076  54.1382027  64.7015610   1.1787598  12.9527245  67.0206680
   1.9037787  13.5400171  66.8069687   0.7896800  13.3298063  67.8097534
  61.2408867   7.1588678   9.5805655  60.3929367   7.5599661   9.7711840
  61.1742706   6.2748761   9.9416113  63.3536110   2.4376087  25.2781372
  63.7437515   2.1197989  26.0923996  62.7876625   3.1602035  25.5497780
  56.1856804  24.4000378  54.6610260  56.9452019  24.6044197  54.1155128
  55.9427605  23.5090618  54.4092636  17.6486797   9.7570171  11.3423443
  18.5024376  10.0120487  10.9926443  17.5984993   8.8137550  11.1875181
  15.7939949  48.3356628  53.1023483  16.2980003  47.6055679  52.7429466
  16.0957069  48.4123764  54.0075111  51.7268677  15.8763170  63.1204033
  52.4322853  15.5209980  63.6611137  51.2640877  15.1049318  62.7932434
   0.7721596  17.8259697  29.2695198   0.1205106  17.1441288  29.4328518
   1.2891415  17.4924583  28.5362186  18.7266827  69.9953537  19.0832424
  19.0724010  69.4335785  19.7768688  19.3701324  70.6993637  19.0021973
   9.1186037  23.2232151  26.2484875   8.7777834  23.8116703  26.9221287
   9.6114464  23.7939663  25.6589279  79.6657104  23.4385948  65.6647491
  80.1869507  24.1038799  65.2153702  80.0518951  23.3817692  66.5387421
  50.1022301  53.5738754  57.5180168  49.3346748  53.8605461  58.0129013
  50.7138176  54.3077469  57.5782166  74.6697464  46.0855942  15.3303461
  73.8355179  45.9459343  14.8822517  74.6893539  45.4160652  16.0141430
   2.7994132  41.7955475  66.1915512   2.0412784  41.2326660  66.3484726
   2.4391885  42.6821251  66.1703949  38.7203751  55.2033806  12.9056511
  38.1499367  54.7058182  13.4915400  39.2477341  54.5383797  12.4630499
   4.8583450  67.4374313  47.4078331   5.7908602  67.4467010  47.6236153
   4.5932856  66.5258102  47.5299950  55.9183540   3.0434885  87.7848206
  56.8182983   3.2216849  87.5117340  55.9659691   2.9780915  88.7385941
  33.0817299  56.7592239  22.1256943  32.8642807  56.1727867  21.4011002
  32.2396889  56.9541473  22.5370331  47.4686317  32.1967163  27.9251862
  48.3175964  31.7609787  27.8502064  46.8526802  31.5946217  27.5076752
  37.5888138  56.8013649   8.7393837  38.1602783  56.6425285   9.4906693
  37.5014725  57.7538414   8.7020378  70.4075470  34.8829041  70.4110794
  70.4241257  34.0055237  70.7933807  70.8142319  34.7771416  69.5510483
  75.3093262   4.3478956  88.7681732  75.8996277   5.0979981  88.6966324
  75.5162277   3.8067601  88.0062027  32.5639496  54.4785042  47.8808136
  32.7111168  54.3996506  48.8233376  33.4190331  54.7190857  47.5241852
  33.5311050  60.5167084  18.9427242  32.9338188  60.9192505  18.3122978
  33.1829681  59.6346283  19.0729866  13.4273176  61.1169472   8.0965652
  12.6976280  61.5675354   7.6714158  13.1110077  60.9298477   8.9804068
  51.4464378   1.7127703  67.1960144  51.5123940   2.6676948  67.1949997
  50.7040062   1.5245757  67.7701263  17.4109154  25.8626232   4.6965094
  17.9601097  26.5630951   4.3444400  18.0325279  25.2112560   5.0213952
   5.4512558  59.6801147  67.1969910   5.0828834  58.8093567  67.3463669
   6.1380472  59.7662811  67.8581390  70.1447067  22.1297760  31.4122696
  70.5670547  21.8962784  32.2389069  70.5470505  21.5499859  30.7655888
  58.5688667  18.2638302  42.5296135  58.4026985  18.0840702  43.4549828
  58.0592995  17.6022034  42.0618324  84.6014404  61.4002800  14.0608864
  83.7354126  61.5304642  13.6745272  85.1820450  61.9547691  13.5396652
  44.9927826  56.7437859  77.2309189  45.6684303  57.3337631  76.8967667
  45.2290039  56.6040382  78.1479263  65.1937714  59.5179291  57.3283806
  64.9267349  60.1670113  57.9792366  65.4948883  58.7705231  57.8450470
  80.1140823   5.8629732   1.6548234  80.4583359   5.1248722   1.1519016
  80.8102417   6.5192146   1.6240844  41.8132782  22.8345699   9.0905447
  41.2839775  22.2619381   8.5354176  41.2215385  23.5467930   9.3330631
  72.3642273   0.9621084  43.0627670  73.2142105   0.9570240  43.5029297
  72.5306625   0.5484661  42.2157516   9.0241175  37.4848404  20.0722275
   8.2490587  37.9850960  19.8167648   9.4420843  37.2509117  19.2434864
  49.4491386  29.4077129  59.1223335  49.9898987  30.1173496  59.4690704
  49.9311447  29.0905075  58.3586044   1.2854030   6.6664047  28.7532539
   2.0573943   6.8283186  28.2109928   0.5449294   6.7976480  28.1610489
  36.2130318  50.1280289  54.2939377  37.0141602  50.0310020  53.7791481
  35.7023125  49.3439865  54.0922623  16.2287445  67.8089752  27.5068569
  15.4998455  67.9862213  28.1014347  15.8937292  68.0421829  26.6410561
  59.3391190  17.4885750  51.3189583  59.2469444  17.2950325  52.2518463
  58.4604568  17.7459564  51.0397835  74.3746948  65.2768860  21.7217102
  73.6693878  65.7316360  22.1821270  74.2925797  64.3644638  21.9991570
   2.4706807   0.4080172  74.3285217   3.1699781   1.0229151  74.1069031
   1.6930959   0.7647437  73.8991776  71.1943130  42.9812584  80.2332993
  71.5469818  42.1994476  79.8082962  70.3240814  43.0903854  79.8498764
  43.9353600  58.3947487  41.4167900  43.8331985  58.6304398  40.4947014
  43.5521622  57.5202026  41.4843407   5.4074697  36.9754944  87.9217758
   5.8104725  36.1377449  88.1498108   5.4426274  37.0058327  86.9657059
  49.2186012  62.4736366  18.9385452  49.9414825  61.9153252  19.2248440
  48.4400444  61.9249573  19.0335903   5.9838371   4.5768070  28.3127823
   6.3861499   5.4446888  28.2787628   6.6675553   4.0096803  28.6693344
  60.8608894  14.9915752  30.3567219  60.1650238  15.6205893  30.5473614
  61.6396179  15.3629274  30.7713470   9.9458361   9.5543461  76.2612610
  10.2102947   8.9857540  76.9844513  10.5847578   9.3767729  75.5709915
  73.0847168  60.7140846  39.3706703  73.4776917  61.5611687  39.1603203
  73.2609863  60.1709061  38.6024780  46.8636742  66.0070114   5.6635423
  46.8518944  66.9393845   5.4472685  46.8836365  65.9832916   6.6202402
  12.6274548  65.5117264  85.4605560  12.0234566  65.3134613  84.7449417
  12.0637922  65.6206665  86.2264862  41.7036934  36.8439217  25.3359890
  41.1096382  37.5335617  25.6321754  41.5440979  36.7783737  24.3944664
  69.0093307  59.3331909  80.9633484  68.6270370  60.0574646  80.4678574
  68.3319092  59.0910645  81.5947800  30.4451504  61.9334335  17.8658504
  31.1798668  61.6082916  17.3455563  30.8053493  62.6755753  18.3513508
  83.3923111   6.7546487  59.3477516  83.5170670   7.4795570  59.9602699
  83.8543472   6.0190887  59.7498894  41.1644402  19.0637875  75.2950745
  41.1840248  19.3657188  76.2031937  41.3665237  18.1297073  75.3488235
  74.2873535  12.2280636  39.1810837  73.9878006  11.3903799  39.5343361
  74.6666412  12.0073795  38.3303986  12.8071804  69.8808212  15.1741762
  13.4789820  69.5628738  15.7773514  13.1945066  69.7724686  14.3055744
  33.0936127  64.1562881  47.7228355  33.4647751  63.3344994  48.0439873
  33.3451881  64.8055649  48.3796349   2.1998310  66.2840729  56.5808372
   1.5362021  66.1162567  57.2499199   1.8600072  67.0313416  56.0885582
  51.2946205  59.9982452  37.0555420  51.3990555  59.0924034  37.3467026
  50.7293396  60.3985176  37.7162056   9.4039278  18.7273674   9.1511974
   9.5076485  19.5608273   9.6103449  10.2982149  18.4523354   8.9491072
  85.4046783  45.5883636  41.4770699  84.8687363  46.2717743  41.8795013
  85.9475784  46.0534744  40.8405457  77.7397690  35.5199280  51.3759537
  77.5723038  36.0546227  50.5998802  77.7829514  34.6231117  51.0441589
  86.3855743   9.9978313  64.2393494  85.8570251  10.3001814  63.5008049
  86.3276596  10.7057381  64.8810272  78.7652817  25.5923252   5.3597012
  78.9020996  24.9469719   6.0532651  78.7904892  25.0826130   4.5498924
  74.2610321  45.6109085  64.1843643  74.9584885  45.0888443  63.7878380
  74.1004105  45.1929016  65.0303574  70.8534546  29.9305496  43.5543861
  70.8558426  30.8457794  43.2740631  70.3023224  29.4845276  42.9113007
  68.6008377  58.4955978  64.1773224  68.8316650  58.3612900  63.2581329
  69.1351471  57.8601799  64.6537552  54.4182434  70.0939178  48.1784363
  53.9328537  70.7734528  48.6462593  55.3003922  70.4528122  48.0823402
  32.1912498  60.1792564  59.4435387  32.6162949  59.6916618  58.7379761
  31.6426907  59.5313644  59.8857536  19.8041458   5.6181931  70.1721268
  20.1985111   6.4844007  70.2740631  18.8672676   5.7909942  70.0792236
  56.5788498   2.7481539  59.2858543  56.7230453   2.6097996  60.2219620
  56.8201637   1.9151945  58.8806648   6.4617600  38.6472511  81.4488297
   5.6553025  38.9727135  81.0489120   6.4208927  38.9544144  82.3544846
  79.3703842  19.9718590  64.2356491  79.0924606  20.2669106  65.1027908
  78.5939789  20.0786514  63.6860847  18.3723621  54.5176926   1.8849409
  18.6454411  54.6021461   2.7984655  18.3059769  55.4193192   1.5704689
   1.3354738  16.7111778  60.9243507   2.1271071  16.7772751  60.3903313
   0.6865171  16.3153095  60.3426514  73.6000443   8.7898769  82.6114883
  73.0759888   9.5635862  82.8188019  73.7190323   8.3487825  83.4526215
  20.6093750  14.9345942   2.5325923  20.7186909  14.8116779   3.4755523
  19.7539539  14.5513439   2.3386731  83.1733704  30.3194160  43.8351021
  83.0726166  30.7372265  42.9798164  83.9539032  30.7270832  44.2103500
  85.3823929  59.3956184  15.7136755  85.1702118  59.6006050  16.6242752
  84.9482269  60.0814476  15.2063551   6.7362180  56.0483742  29.6700325
   7.0484858  55.6518173  28.8567276   5.7822504  55.9966087  29.6108856
  70.6537552  15.0561256  -0.1346260  71.4580536  14.6142282  -0.4067711
  70.3088760  14.5114679   0.5729329  36.9537277  71.0476532  10.4824820
  37.5056152  71.4163284   9.7927504  37.5537300  70.5274200  11.0168839
  40.4361420  29.0642376  55.3236389  40.6612625  29.7725811  54.7204781
  41.2496452  28.8828259  55.7943192   4.9339190  46.2925339  58.4879951
   4.2495685  46.5550346  57.8723755   5.0040631  47.0283470  59.0961800
  84.6266174  40.4593849  39.3798294  84.0376740  40.7694283  40.0677643
  85.2677994  39.9175148  39.8397064  11.9957733  70.4679489  78.9142914
  12.2243376  69.5903549  78.6079865  11.0740805  70.5716934  78.6777573
  59.9443665  11.6860104  42.7147141  59.6123352  10.8413324  42.4105644
  59.3567162  12.3304567  42.3202744   9.8057795  42.4925003  22.6410046
   9.0840683  42.6307068  23.2544079   9.3791943  42.2391243  21.8224335
  64.3144913  39.8300972  45.1152420  64.3314209  38.9281006  44.7953224
  64.5148163  40.3613548  44.3446121  48.0623932  54.1957283  30.7366505
  47.2999725  54.4627304  31.2501259  48.6154938  54.9763298  30.7055092
  79.9556046   5.5495329   8.5445843  80.3644485   6.3084526   8.9606600
  80.4983902   5.3767858   7.7753158  33.4139595  45.0045776  55.5345688
  33.6267395  45.8324432  55.9653816  33.4872894  44.3482361  56.2274399
  22.2332706  20.0919094  78.5067978  23.1538334  19.8526669  78.3992844
  21.9426003  20.3276501  77.6257935  58.9668846  21.6263409  67.2253036
  59.2281876  21.5656357  68.1441498  59.4484253  20.9214725  66.7922821
  63.8723679  50.5607376  82.5821609  63.9279671  51.4334412  82.9714279
  62.9338188  50.4045105  82.4775085  33.3664703  70.4170074  56.0447655
  33.7627983  70.0064926  55.2762413  32.4256744  70.3949585  55.8696823
  26.7478199  64.8090210  48.0959511  27.4291992  65.1016235  47.4906921
  26.6856785  63.8652802  47.9485359   1.6651458  13.6270695  79.2948456
   1.8643730  13.0883551  80.0605621   1.8915619  14.5175943  79.5630493
  78.0977936   7.8763113  36.5905037  77.4817505   8.5491190  36.3005943
  77.6070175   7.3625779  37.2319450  70.1733704   2.9011981   3.9759071
  70.8878326   3.5218949   4.1191454  70.5143509   2.2900627   3.3228514
  85.4904404  16.9387093  56.2536507  85.1095200  17.4827118  56.9429970
  84.7485275  16.4509697  55.8960114  58.5507965  56.2165985   4.2416062
  57.7749481  55.8339005   3.8319280  58.2788887  56.4054489   5.1397352
  51.7159424  65.8775635  33.7556992  52.1775208  65.9429398  34.5917015
  52.1406593  65.1483154  33.3039932  79.5672226  24.9338856  16.8018112
  80.4698029  24.6152897  16.7936916  79.0495377  24.1796970  17.0836582
  45.8306808  28.6618767  66.9549713  46.2788925  29.0353680  66.1961288
  46.4604340  28.7467308  67.6708221  55.4155426  22.5959854   0.2568041
  56.0156822  23.1371479  -0.2562336  55.7034378  22.7115402   1.1623392
   5.1763644  45.3723984  29.3433628   5.1339612  44.8832016  30.1650200
   5.8193769  46.0620499  29.5081253  11.0848541  31.3248615  34.5762024
  10.4348841  30.8770332  35.1177025  11.6811991  30.6310177  34.2948036
  58.3711586  22.0200977  21.2358990  57.6647301  22.6655083  21.2105980
  59.1159401  22.4641838  20.8305378   5.8924909  12.9887886  72.6263580
   6.7780590  13.1635466  72.3078308   5.3205762  13.2824669  71.9172058
  47.2089233  61.1370544  13.6206179  47.7485619  60.6828003  14.2676678
  46.3262444  60.7949448  13.7622795   5.2853231  69.5417557  64.7819901
   4.7919092  69.2649002  65.5540848   5.9802217  70.1007919  65.1296005
  50.8997040  29.9674835  20.2621193  51.5977020  29.3351288  20.0913582
  50.1077385  29.5459671  19.9284344  83.9921875  42.3391342  69.5666962
  84.2129135  41.4232597  69.7360535  84.7981873  42.7190399  69.2170258
  14.0416899  47.1248360  29.5180626  14.2833710  47.4195824  30.3960991
  13.5629196  47.8629494  29.1409645  27.3449020  14.7023754  81.2923431
  26.8637238  15.4457932  80.9289856  27.8359871  15.0707922  82.0267410
  66.3579330  29.0370445  15.6183043  66.5194397  29.6458321  16.3390865
  66.9605942  28.3108521  15.7785530  29.4563293  29.8726215  15.6476650
  29.7017632  30.7761192  15.8468742  30.2013512  29.3507690  15.9457369
   1.8941153  24.5674877  29.5339756   1.1210673  24.7630043  30.0635052
   2.6193082  24.5701542  30.1587315  15.7388039  55.7795830  87.0268478
  15.2237892  56.2790909  86.3932190  16.4356709  56.3787003  87.2945480
   0.3776014  36.1889954  81.7569275  -0.2695911  35.7396240  82.3004761
   0.5719713  35.5690193  81.0540161  29.5669613  45.1822281   5.1160302
  28.8977394  45.6179962   5.6437445  30.1905136  45.8755341   4.8998389
  84.7261429   2.0846629  42.4557190  85.4535370   1.9363720  41.8514481
  84.7889709   1.3676299  43.0867119  20.9225273  12.5818272  76.0466995
  20.9284153  11.7538776  76.5270081  21.2717361  13.2213221  76.6674500
  79.7260590  11.2302141   2.6913331  80.2163696  11.7648897   2.0668747
  80.1935654  11.3398018   3.5193777  57.1229095  21.9293098  24.2989063
  57.1759529  20.9739323  24.3248100  56.4007301  22.1128922  23.6980839
  56.5242348  56.7775497  40.0636024  56.1915932  56.4318695  40.8919029
  56.3493538  57.7175484  40.1088829  56.7788963  67.6170883  11.1600285
  56.4635506  67.7215881  10.2623262  57.1582184  68.4676361  11.3811779
  44.4613914   9.1043882  48.1918030  45.4065971   9.1022806  48.3428497
  44.1774673   9.9773951  48.4628677  52.9544716  38.3899994  84.5561523
  53.6397209  38.7719498  85.1045837  52.6356430  39.1212845  84.0271912
  77.2034836  49.0804939  71.2812881  78.0507889  48.6537056  71.4083786
  77.0273743  49.5163422  72.1151047   1.4209594  14.6731958  52.5901527
   1.3336774  15.5388126  52.1910019   1.5816534  14.8517981  53.5167122
  74.9461288  64.6954727  29.9426937  74.3566742  64.2822189  30.5735626
  75.6686249  65.0304184  30.4737682  46.8384476   8.3290930   0.4021996
  47.3118668   7.6950483   0.9408021  46.6262016   9.0429792   1.0034897
  71.4574051  18.9780769  23.3300343  71.7111588  18.2192497  22.8046551
  70.7757797  19.4091873  22.8145142  42.5110016  35.3052139  58.2900543
  43.0850716  36.0658112  58.3804131  41.9992676  35.2939377  59.0989037
  75.8938065   2.7405362  63.5591354  75.6807938   2.5684321  62.6419449
  75.0587692   2.9872286  63.9567375  18.2015533   5.5428638  67.6051254
  17.4817734   5.7829041  68.1886749  18.4259586   4.6472087  67.8574677
  23.0180302  43.8114853  34.2685127  22.5768375  43.2142067  34.8725357
  22.9241943  44.6738586  34.6731567  11.6902847  10.4221907  23.1308041
  11.4237471  11.0972948  22.5067654  11.6546526  10.8563757  23.9831219
  57.3731346  53.9406471  52.7126045  56.8490982  54.3154869  53.4204979
  56.8757820  54.1343040  51.9180183  49.9533195   6.5703406  79.6300430
  49.5407295   6.3678579  78.7903976  50.7314262   6.0134244  79.6550369
  53.6821480  57.7454948  43.4767456  53.8162270  58.6930885  43.4945908
  54.4160347  57.4094048  42.9622650  36.8186073  69.7455521  62.7054176
  36.8855972  70.6446533  62.3839149  37.1343536  69.2074585  61.9794807
  85.9744797  68.7960968  47.5736504  86.5004959  69.2457199  46.9123039
  85.5486145  69.5013046  48.0610352  12.5772533   4.6096888   9.2957592
  12.7867851   5.4887042   9.6114483  12.6615953   4.6705027   8.3442240
  83.9206467  66.5766525  33.4759140  84.7875290  66.1752014  33.5357437
  83.7075882  66.5486526  32.5431480  85.8728714  15.1818352  15.7484713
  85.8274689  16.1078892  15.9863672  86.5262756  14.8135328  16.3431549
  73.8099289  13.0197468  72.3539505  73.6714935  13.9163332  72.6592407
  74.4067459  12.6371889  72.9971390  18.6947689  36.3562012  63.4375992
  19.5745678  36.0312080  63.6288223  18.1252460  35.5985947  63.5714188
  62.1189728  44.4135742  85.6800613  62.6819191  45.1207390  85.3650284
  62.5869827  43.6122551  85.4453506   3.7389936   8.2180557  50.6772079
   4.2463036   7.4490376  50.4174385   3.1820571   8.4041214  49.9212761
  70.3143539  55.0322380  56.1027870  70.6263199  55.9352760  56.0442009
  69.8644485  54.9885292  56.9465332  55.2457504  46.3347740  79.9409485
  55.0653572  45.6450195  80.5796432  54.7423401  47.0870476  80.2522278
  81.4608078  26.4722538   7.5102820  81.9413300  25.7474251   7.1103473
  81.0574417  26.0908775   8.2900772  54.9171143   0.5602687  28.5547485
  55.4309692   0.0208795  29.1557827  55.1030197   1.4603642  28.8221416
  15.8306942  39.2816772   5.1107054  16.7684593  39.2771263   5.3025613
  15.7808666  39.3994904   4.1620908  12.2934217   1.7305763  13.6016779
  11.7463455   1.6993742  14.3865128  13.1862230   1.6162388  13.9273539
  20.6957283  64.0621490  21.5611839  21.1652603  63.2280579  21.5534859
  21.3780632  64.7198715  21.6955357  79.2930756  12.9930763   9.1154737
  79.4916077  13.1199903  10.0432177  79.6067734  12.1096592   8.9220781
   8.1854782  40.6671104  26.2722778   8.1111393  39.8801155  25.7325153
   9.0500584  40.5989342  26.6773529   0.9061024  67.3515167  68.0110474
   1.0943345  67.5513229  68.9280396   1.4417323  66.5818634  67.8187866
  21.4685688   5.0648823  27.4310417  22.2408257   5.6200132  27.3229675
  21.7465305   4.3846345  28.0444202   1.1625683  18.7592182  62.5838203
   0.9740762  18.2674541  63.3831177   1.3522117  18.0877132  61.9285736
  82.1839600  67.6569595  47.3123856  81.4341049  67.1437454  47.6133194
  81.8106613  68.5018082  47.0611763  22.9521103  49.9049072  54.9650078
  22.2968712  50.4667664  55.3787804  22.6103516  49.7463264  54.0850754
  65.6012650  43.2835732  21.5027676  64.7603073  43.7395058  21.4689236
  65.7746811  43.0332298  20.5953045  72.5890121  25.7357121  17.8798161
  73.2703476  25.6291656  17.2159901  72.0617905  26.4704704  17.5661221
  70.4231339  40.9423218  64.8539124  71.0690384  40.2871094  64.5898361
  70.2521744  40.7519455  65.7762833  58.9139633  26.6841679  70.5599976
  58.1585693  27.2484665  70.7248688  58.9530373  26.1073151  71.3228531
  46.5186577  41.2504654  32.1144180  46.4340858  41.3717270  33.0601311
  47.4553833  41.3478432  31.9432774  53.5382500  30.9024963  77.5201874
  53.0616455  30.0778503  77.4251251  54.4157257  30.6411800  77.7994385
  53.1862373  14.8661156  56.8035660  53.3871002  15.4502697  56.0723686
  53.9709854  14.8892555  57.3511658  59.3773727  12.9670887  83.5632553
  59.1923027  12.0391731  83.4185028  60.3293495  13.0102425  83.6533127
  13.7670822  70.8538132  68.9972610  13.2685452  70.7780991  68.1836472
  13.7845173  69.9645844  69.3511124  77.5226135  69.4851151  58.9303322
  76.5904465  69.5148163  59.1457634  77.6660690  70.2555084  58.3806534
  21.9031696  44.4355316  77.9968796  21.3751621  43.6525841  78.1531906
  21.2650909  45.1463776  77.9353638  51.5928879  55.3277512  60.3535004
  52.3054390  55.2488785  60.9877625  50.8025093  55.1280327  60.8551445
  19.5211716  18.5453854   1.8392613  20.1019039  18.0696888   1.2453786
  20.1057911  19.1105461   2.3442822  30.5473537  44.4124832  63.4432869
  30.7744465  44.1985588  64.3482132  31.1052017  43.8415718  62.9149895
  46.7595482  42.8538628  68.3876495  47.6694031  42.5977554  68.5386658
  46.8189240  43.6391869  67.8436203  54.0868683  13.9858952  83.8928223
  54.1261444  14.5461607  84.6679306  54.1305084  14.5942488  83.1551056
  84.1054993   4.4277816  34.9101295  83.6431046   3.7054155  35.3351135
  84.7724533   4.0015554  34.3718605   4.5473042   5.2335720  50.1467972
   4.6344094   5.1261444  49.1996422   5.0555363   4.5120673  50.5174255
  44.4113121  56.4543076  28.0949707  45.1065140  55.8059425  27.9829655
  44.3698387  56.9087906  27.2535686   3.3094888  21.9016533  76.3552551
   3.3574712  22.8407974  76.5339661   4.2075200  21.5901680  76.4681702
  77.8321075  19.7340164  71.4329605  77.5295639  19.8793545  72.3293839
  77.7377396  18.7910538  71.2982407  62.8781738  40.1447449  79.8007584
  63.8345985  40.1169510  79.7740860  62.6514359  40.9811249  79.3941956
  67.8237991  41.7814369  22.9114666  66.8815308  41.9031410  22.7950459
  68.0202560  40.9703217  22.4427109  78.2750397  66.3137817  16.0279427
  77.7699661  66.5553207  16.8043404  77.6144028  66.0870514  15.3734283
  75.7490997  27.1833324  65.8217163  74.8214340  27.3967876  65.7211685
  75.8378143  26.3124561  65.4344940  75.8970108  15.3359842  45.6281395
  76.6572800  15.6394081  45.1320038  75.8714066  15.9038305  46.3982887
  70.7314835  51.8864403  77.5902100  70.8421936  51.2533569  76.8808594
  71.4841843  51.7386589  78.1627808  49.7523384  67.4680405  32.7366562
  50.5486832  67.0350800  33.0442429  49.8467674  68.3759384  33.0247955
  54.3483963  61.6860657   9.4904175  53.8224106  61.4777870   8.7182856
  55.2519608  61.6754799   9.1746712  75.8784943  62.1289749  82.6033325
  76.5406342  61.4416199  82.5302353  76.0515594  62.5391083  83.4507294
  86.6486053  19.3648853  31.2993450  86.9051285  18.8838902  30.5125351
  86.4869690  18.6851196  31.9535828   4.4417191  30.8170586  15.6659079
   3.5449696  31.0544300  15.9019737   4.8053141  30.4319096  16.4632111
  69.1429520  16.2534046  69.3054962  69.9522171  15.7422667  69.2978363
  68.4919510  15.6654940  69.6886292  16.9264870  17.7543144  71.4716187
  16.0032635  17.7708092  71.7238464  16.9329739  18.0645905  70.5661240
  59.4329033  24.2639732  32.1550560  58.8275414  23.8569012  31.5353317
  60.0822144  23.5846119  32.3369789  48.4244308  38.5287895  10.5930376
  47.7373505  38.1629410  10.0359859  48.4718628  37.9307175  11.3388863
   2.0878854  26.3990383  72.4791183   1.9274608  27.2661819  72.8513565
   1.2171761  26.0683193  72.2583923  65.9690094  68.4534073  33.6281586
  65.1442261  68.3866653  33.1469994  66.2849045  69.3372803  33.4405365
  25.7052994  45.4841080  62.6957436  26.3442993  44.8470688  63.0152588
  25.6796532  45.3435516  61.7492676  85.1473236   4.6442223  60.5162811
  85.2764664   4.4066277  61.4344864  85.7269440   5.3934956  60.3789558
  43.8787422  29.5392075  10.0632639  44.6220512  29.4447842  10.6589184
  43.4754486  30.3704815  10.3134127   1.6611452  49.2223587  80.2312393
   1.8688327  48.6384735  79.5017319   1.5101799  50.0738983  79.8209686
  71.6074600  53.1370811   7.9604874  70.6734238  52.9789925   8.0976639
  71.8887558  52.4258804   7.3849030   9.9800310  11.9540071   9.8538256
  10.8304501  11.5226622   9.7703943   9.7607336  12.2255459   8.9625301
  36.4258118  67.1581955   5.4893947  35.5251808  67.4112549   5.6920133
  36.3416176  66.5192871   4.7816291  82.6035690  18.3892708  51.8416023
  82.9463806  17.9889469  51.0425682  81.8549576  18.9081573  51.5473785
  66.9984512  29.5185585  46.2633438  67.7444916  30.0951214  46.4283295
  66.9207230  28.9935513  47.0599365  75.9866180  29.9851170  37.1921768
  76.2473526  29.0741177  37.0567856  75.7603531  30.0339832  38.1209641
  23.3137627   0.7511706  29.7444916  22.7361240   0.8040144  30.5059185
  24.1746273   0.5483252  30.1105518  27.2889023  11.8228264   4.4826717
  27.1124897  11.1703482   3.8048935  28.0759430  11.5031519   4.9238138
   7.1598201  33.5825958  61.7157745   7.4458270  34.2835045  62.3015747
   7.6183538  32.8041344  62.0319633  18.1584148  25.7308064  13.2197962
  18.5222073  25.1450634  12.5558739  18.8141918  26.4215431  13.3150368
  20.9384823  39.1882210   4.8606057  20.8050213  38.8012733   3.9953353
  21.8861618  39.1595840   4.9921985  81.4122849  35.1725388  51.6692963
  82.1779633  34.6044807  51.7546196  80.8187332  34.6897011  51.0941467
  30.1974735  30.0261383  81.5429459  30.5487652  29.3221893  82.0881805
  29.2603493  30.0350552  81.7377548   5.1800861  21.2218857  18.0921688
   4.4680996  20.9314976  17.5220985   4.8002019  21.9348297  18.6056175
  40.4635658   7.5483489  50.1984558  40.1877022   7.8999534  51.0449219
  40.6806450   8.3213215  49.6772842   9.9415874  38.3155861  85.9474716
   9.2782784  37.6783142  86.2123032  10.7754221  37.8716660  86.1020203
  60.8012505  11.5019665  46.8628960  60.7182541  11.9803820  47.6877975
  60.0955505  11.8452892  46.3148537  29.0378017  66.8209305  41.2470055
  29.1125774  66.7017822  40.3001976  29.8901997  66.5528564  41.5902023
  79.7330170  30.8916988  55.2593193  78.8563461  31.1638470  54.9879761
  79.5954208  30.0622997  55.7169151   1.5730276   9.2682972  70.9601746
   2.0531452  10.0227652  71.3014908   1.0228714   9.6290646  70.2649002
  43.1852455  60.3144417  25.5119839  43.4823914  60.5346451  26.3948460
  42.3050232  59.9597549  25.6370296  30.6035442  62.8829193  40.0265121
  29.8424416  63.4405441  39.8652382  30.9946079  63.2365990  40.8253937
  45.8766289  50.4521599  47.8756332  45.3786621  50.5975113  48.6800804
  46.4088936  49.6782379  48.0599594  48.4675179  23.3342571  36.3523064
  48.0687027  23.5014629  35.4983597  49.1306915  24.0182476  36.4449844
  43.9094734  44.9546852  17.3952332  43.5959358  45.8500137  17.5229664
  44.2767296  44.7062073  18.2435341   6.9162154  43.6609077  80.2265320
   7.0709281  43.0600967  80.9554520   6.4102893  44.3773460  80.6099167
  49.1710396  12.3933811  79.3364105  49.0844612  11.5030384  78.9957809
  49.9388390  12.3579569  79.9069061  39.2305031   4.3391309  18.6493969
  39.6516342   3.5081217  18.4296150  38.2932777   4.1603041  18.5728302
  14.0537958  47.3478661  84.0846863  14.8338804  47.5427094  84.6040497
  13.3403044  47.3277779  84.7224655  14.7687502  55.3260994  64.0266724
  15.3018866  55.8247566  64.6458130  14.9206791  55.7516365  63.1828270
  67.3923874  24.1227894   2.5739191  67.9405518  23.3422527   2.6545682
  67.5172882  24.4107990   1.6696622   1.5003455   6.2241549  67.7534256
   1.6779368   7.0674210  67.3367767   1.3186731   5.6305494  67.0248260
  13.2864046  63.6649895  30.9312477  12.7281914  63.3349457  30.2271862
  13.9006290  62.9515457  31.1043282  77.4040375  30.1157455  40.2898674
  77.4873886  29.5744438  41.0748978  78.2732086  30.4981365  40.1692162
  58.4126129  17.8544254  17.0540905  57.6067963  18.3013153  16.7948952
  58.1161690  17.1132164  17.5822601  75.2003326  59.3211555  29.1828289
  74.6060410  58.7113838  29.6201191  74.8730011  60.1881027  29.4225941
  44.3000374  64.4138489  31.2257252  43.6842728  64.8338699  30.6251869
  44.8007774  65.1383133  31.6007462  83.6382828  11.5228014  49.3458099
  83.8194275  11.6410494  50.2782440  83.4971848  10.5812540  49.2467499
  71.4647141  67.0202332  80.9596710  70.9642563  67.6404266  80.4294586
  70.9498215  66.2136993  80.9346542   7.5156512   2.6604548  21.2680893
   8.1484194   2.0902345  21.7047634   7.5692940   3.4880524  21.7460403
  69.6402359   6.3546915  76.7327576  69.7212448   5.6196914  76.1249390
  69.9818344   7.1056547  76.2473831   2.6050363  29.4925156  18.5253143
   3.3857644  29.1515541  18.0889187   2.8616157  30.3630657  18.8295231
  65.7431335  16.2510757  34.9253731  66.4831772  15.8540325  34.4661102
  64.9702454  15.8924990  34.4891510  24.2345505   8.1333714  86.0588837
  24.3549175   9.0677462  86.2282562  24.4407005   7.7103577  86.8924332
  33.7111130  42.0830765  40.4742966  34.6525688  42.2146530  40.3621254
  33.6358109  41.5596733  41.2721748  67.6688385  46.7595940  83.5956116
  68.3557510  47.4165840  83.4827271  68.0548782  45.9496956  83.2620468
   8.9514847  64.4968033   1.8161916   9.8647776  64.7019119   2.0163300
   8.5990667  65.3071823   1.4483428  20.0255013  68.9870377   3.8136716
  20.8418961  68.7252350   3.3880081  19.7446060  68.2075500   4.2929611
  85.3945541  54.4215889   7.1798353  85.2805481  53.9876709   6.3342876
  86.1552658  54.9894485   7.0569959  77.9290237  37.7679024  53.2292595
  77.8674088  36.9638557  52.7135620  78.8614197  37.9843597  53.2249260
   6.0270495  33.1907654  71.5922394   5.8147926  32.3471451  71.1928864
   6.8049736  33.4896927  71.1213837  51.9274826  47.3921814  31.5603104
  51.2729454  47.1929016  32.2297096  52.1524963  48.3102493  31.7111511
  46.8249245  18.4465790  86.0261078  46.6779671  17.7571774  85.3785324
  47.5191994  18.9862747  85.6480331  77.6793060   9.4810495  53.5502586
  77.0260239  10.1657753  53.6937981  78.4341354   9.7574615  54.0699310
  65.7621307  62.8007164  71.2513199  65.3535919  62.3594513  71.9960403
  65.3054733  63.6397285  71.1900864  37.7877541  52.3870926  47.3927116
  37.7800751  52.0692673  48.2955742  38.0958481  53.2908859  47.4595604
  41.2807274  42.0735130  82.4934921  41.2354813  42.4202843  83.3845215
  42.2105370  41.8948097  82.3529587   3.9895599  28.9857731  88.2829437
   3.5346713  29.3794651  87.5384140   3.7121816  28.0696716  88.2759247
   1.9821237   3.0164878  35.1468048   1.5489135   3.0407178  34.2935905
   2.9121549   3.1216722  34.9462814  20.4561119  60.1824875  42.0595360
  20.0654545  61.0282173  42.2794418  21.2045135  60.4014511  41.5043945
  48.9122353   2.9485137  38.9779816  48.0795860   3.3136499  38.6786461
  48.6634903   2.2414253  39.5732841  18.2466927  20.7593613  86.0658112
  18.9610920  21.3955631  86.0991516  17.5766621  21.1209888  86.6459122
  56.5407143  21.5149288  57.0558548  56.5517921  22.4148159  57.3819122
  55.7070580  21.1590042  57.3633690  40.1797333  17.2680225  18.7912750
  40.6973114  17.9273014  19.2535477  39.6336250  16.8725986  19.4707165
   0.7778270  53.6508369  80.9591751   0.9501171  52.9847870  80.2936478
   1.5847288  54.1642342  80.9987488  66.8715668  27.2417717  57.9306335
  67.1401138  26.4651890  58.4215889  66.1533432  27.6127090  58.4432602
  64.9192352  46.7451172  45.9557381  64.4805527  47.0490875  46.7503395
  65.6816177  47.3173981  45.8691864  29.5913982  46.7432404  57.1594734
  30.3399334  46.1672325  57.3148460  28.8307114  46.2219391  57.4160500
  58.1963577  49.5599251  -0.1748284  58.9601021  49.2265358   0.2961046
  57.5403557  48.8683777  -0.0873366  51.7786102  56.2942047  14.2339716
  51.2964821  56.7578011  13.5492373  52.6290359  56.1011848  13.8393135
  54.1110039  54.1447029  34.0977135  54.0939522  54.8386154  34.7568245
  54.8857269  54.3355980  33.5689468  33.5129089  16.0348358  78.1907959
  32.6101990  16.0711555  77.8745270  33.7785835  16.9516144  78.2626724
   3.8846939  60.2882347  56.8763390   2.9624391  60.2433281  56.6240273
   3.8851981  60.1047516  57.8157883   7.2588305  38.5047836  70.0054321
   7.3764362  39.3692627  69.6116333   7.3580432  37.8935738  69.2754898
  38.1663666   2.5786304  77.8466568  38.5344048   2.2277424  78.6576157
  37.6728630   1.8489310  77.4721909  10.9125214  28.4990654  19.7830029
  10.9016390  28.3631420  20.7304420  11.5311689  29.2174911  19.6511974
  51.5971146  25.9113636   3.7015131  52.5390549  25.7944317   3.8252294
  51.2588501  25.0235729   3.5847421   8.1074715  33.8392868   0.5821918
   8.7961578  33.8270454   1.2468662   7.9701519  32.9177933   0.3625802
  69.5145340  22.7932873  69.4735794  68.6357040  22.6605015  69.1182480
  70.0676498  22.9213333  68.7029343  83.5615005  29.1608524  77.9468155
  82.8065491  28.9201508  78.4837952  83.4798355  30.1072941  77.8292999
  18.1946754  42.7928886  64.5902786  18.2850819  43.7431374  64.5189362
  18.5480442  42.5829048  65.4547272  60.6372643  28.1323204  46.6947441
  60.5516891  27.2329044  47.0109100  61.5366707  28.3778610  46.9115601
  66.0087509  13.0463991  47.1930504  66.9025726  13.0957813  47.5319939
  65.5619736  13.7964296  47.5855713   1.6278185  37.9321365  79.6848602
   0.7986791  38.0934448  80.1351242   1.9477528  37.1111984  80.0589371
  78.5740356  23.8237667  34.1598434  77.8972778  24.4842854  34.0117149
  79.0645447  24.1485786  34.9149170  32.6414337  14.0041447   6.2402411
  32.5916939  14.7026997   6.8927584  32.6710129  14.4625101   5.4004440
  76.0656891  60.8714409  33.2115402  76.6503754  61.2186546  32.5378876
  76.3761902  61.2677612  34.0256348  31.3742104  34.0887451  87.0664749
  31.0626621  34.9706841  86.8631134  30.7318611  33.5078773  86.6587906
  50.6062393  52.4222908  78.3409042  50.4106522  52.9883461  77.5942078
  51.4011040  51.9543762  78.0850220  77.7329254  35.2794189  74.2369461
  77.2197876  36.0796432  74.3490524  77.5112000  34.7440147  74.9987946
  50.0578308  49.3056870  13.8414831  49.3502769  49.2940941  14.4860506
  49.8824615  50.0803146  13.3072290   2.3909867  15.6926470  37.9606895
   2.9694252  15.5130062  38.7018852   1.5098668  15.5396223  38.3019257
  49.0738907  19.8998318  42.7390213  49.1883430  19.1524353  42.1520538
  49.3899918  20.6502056  42.2357788  59.6545982   8.8167677  76.3806610
  60.5695724   8.5487995  76.2955627  59.6210594   9.2946234  77.2093735
  20.7202110  22.8186703  78.0154648  21.4271450  22.9422588  77.3820648
  20.2528725  22.0433292  77.7045441  68.2544479  18.6267529  26.7183304
  67.5204620  18.9324207  26.1853561  67.8933105  18.5493011  27.6014023
  68.7721405   6.0465612  17.4568520  68.9020233   6.8943729  17.0319099
  69.5658264   5.9144282  17.9753418  39.2155533  65.0213165  11.9203796
  39.0074387  64.2449570  11.4005756  38.6840286  64.9296494  12.7111464
  78.5033340  46.0619240  42.0174828  79.0709152  45.9949913  41.2496262
  77.6154785  46.0616264  41.6597977  85.3724365   0.8711326  68.6999664
  85.0912094   0.0544327  68.2874832  84.6107864   1.4471813  68.6345139
   9.3634672  55.6933136  76.3957214   8.4074230  55.6479034  76.3834991
   9.5599651  56.4600868  76.9339447  71.0561371   1.0941949  74.6713638
  70.9149704   1.3629779  73.7635880  70.6783600   1.8027060  75.1924438
  40.7625923  36.2146034  60.1501198  39.9046516  35.9898682  59.7900314
  40.6349869  37.0722504  60.5555649  63.7714386  63.4918633  26.8928452
  64.0704880  63.8099556  26.0410137  62.8550987  63.2540321  26.7514744
   3.6161585  22.4515400  84.6786804   3.8405771  22.4993629  85.6079712
   4.0727882  23.1941986  84.2834854  17.5240231  67.4610214  62.2482834
  18.2390079  68.0883636  62.1411972  16.7349148  68.0014572  62.2865791
   2.4944339  71.2682953  43.7236404   2.9475303  71.1957245  42.8836021
   3.1107633  70.9062576  44.3602715  62.0153236  60.7997818  73.3993988
  61.3865051  60.0989723  73.5716934  61.5040207  61.6051140  73.4783707
  79.7144089  57.6196823  70.0220184  80.1359711  57.8145180  69.1850281
  78.7878723  57.8083763  69.8731918  15.8830957  70.7178116  73.9190216
  15.1003437  71.1658630  74.2396164  15.5729246  70.1915588  73.1820831
  70.0271454  41.8064346  83.0174637  70.5045624  42.4963417  83.4782562
  70.5517044  41.6332436  82.2357559  79.9104691  14.9509125  20.9198246
  80.7924500  14.9869261  20.5496349  80.0346680  15.1279907  21.8522663
  86.1725845  55.2892990  83.3037720  86.1050339  54.7791977  84.1109009
  86.4183273  54.6492577  82.6357956  44.0639534  13.0134001  87.2099686
  43.1486969  12.7367945  87.1649323  44.4677010  12.4054480  87.8293304
  50.3023758  32.4780540  14.7413864  50.5942764  33.2022972  14.1877623
  50.5815239  32.7233124  15.6235189  17.2557983  61.5173225  30.7054882
  16.9260845  61.1590652  29.8813667  18.1525421  61.7873192  30.5075359
   1.4830747  25.3398609  79.8122482   1.7248678  26.1204929  80.3106308
   1.8928999  24.6164436  80.2865295   2.7010250  25.5125999  69.7261734
   3.1048224  25.8575344  70.5225449   2.1046467  26.2048149  69.4408646
  71.3717804  30.5546741  17.3162003  72.3020554  30.7664108  17.2388687
  71.3493881  29.7707043  17.8649445  85.2806473  36.4380684  41.5875053
  86.0189438  35.9714470  41.1958237  84.6142273  35.7638397  41.7198982
   9.3713942  21.0196323  10.7789946   9.8262711  21.4218140  10.0390139
   8.4548168  21.2689724  10.6608973  16.7954636   2.4413877  66.4538803
  16.4386749   2.8531435  65.6668701  16.0259552   2.2214365  66.9789658
  34.6757126  40.0108490  59.2972641  34.6220093  39.0658073  59.1549759
  34.7753143  40.3799095  58.4197083   0.6252456  45.5389786  49.1159668
   0.7866660  45.5951157  50.0577850   1.3120525  46.0774040  48.7227364
  37.9895210  11.7348948  78.3335800  38.3745308  11.5352983  79.1869049
  38.5879250  11.3363256  77.7016907  32.2889137  33.4136925  17.2522564
  33.0326843  33.2061577  17.8179111  31.8754883  34.1702385  17.6681328
  32.2635880  12.0019064   2.8492410  32.6613579  12.8578272   2.6898372
  32.2773438  11.9049921   3.8014228  70.2913055   4.2467570  14.8588543
  70.8220139   5.0428271  14.8879986  69.8992004   4.2521319  13.9856644
  24.8102303  42.2907028  63.2901306  24.8781452  41.3596878  63.0783958
  23.9712105  42.5606575  62.9167633  19.7361679  14.3002539  69.6743317
  20.5044212  14.8708000  69.6520920  19.2564754  14.5748034  70.4558334
  55.3544884  39.7065964  68.1445389  54.7703247  40.1154518  67.5059280
  56.1878586  39.6151009  67.6826324  81.9809418  37.3216362  61.8782272
  82.8644638  37.5047913  61.5587387  81.9212189  37.8002319  62.7050362
  11.2475004  41.4463005  52.6185265  10.5922165  41.1930656  53.2686844
  12.0776300  41.1392212  52.9829712  36.4760056  49.7882690  60.3711662
  36.0158119  49.0945053  59.8987808  37.3928566  49.5133171  60.3671112
   5.8998885  52.0330582  40.4284325   6.8097386  52.1455536  40.7036552
   5.7191687  51.1041832  40.5725479  76.9101562   4.4428692  71.3955917
  76.7013550   4.1614718  70.5048294  77.7157516   4.9515500  71.3034363
   5.5274048  30.6634407  70.3963776   4.9514685  29.9896240  70.0351257
   6.3832707  30.2392292  70.4577713  62.5402756  24.8484631  75.8925095
  62.0585594  24.5166702  76.6501999  62.9905701  24.0808315  75.5400696
  69.2312927  17.9168110  67.0746078  69.9217148  17.4539795  66.5999069
  69.0469360  17.3607407  67.8315887  49.1593132  32.9463158   7.6687698
  49.9285622  33.2428551   8.1551418  49.5183487  32.4799919   6.9138727
   3.2848489  42.8036423  70.6225586   3.3090506  41.8736610  70.8479156
   3.8531792  42.8792152  69.8560638  58.1728706  63.5868225  21.6213799
  59.1041870  63.6640587  21.8285503  58.0177002  62.6440392  21.5637951
  55.1729431  68.5600128  24.8372383  55.2855911  67.9835205  24.0814648
  54.6484222  69.2891006  24.5062637  17.0795879  15.1712494   4.5838261
  17.4269505  15.1248589   5.4745665  17.2702465  16.0648632   4.2986326
  49.2876968  49.8043976  19.3103867  48.8630867  49.3819809  20.0570488
  49.7223320  50.5709496  19.6841774   1.2538880   6.9956865  53.8345795
   1.4402612   6.6438513  52.9641151   1.7180680   6.4109974  54.4336700
  68.4978180  56.8892403  41.7781792  68.7403870  56.0123062  42.0754623
  68.3077774  57.3710022  42.5831795  64.4264679  27.8191376  75.5068970
  64.3971405  27.0537529  76.0809708  65.1041565  28.3779831  75.8872375
  30.0920906  46.3610268  84.0457153  30.4660416  47.1917610  83.7519913
  30.0618229  46.4359169  84.9995041  58.1094475  18.2171974  47.7575111
  57.3231697  18.4310722  47.2552605  58.3086853  19.0177383  48.2429695
  10.2731066  68.1201096  70.9877090   9.5069752  67.9275665  71.5282593
  10.4544973  67.3000412  70.5285645  49.3306198  22.6648350  32.6107712
  48.7901001  23.1854134  33.2049675  48.8540955  21.8403645  32.5137825
  11.0608473  66.0514908  39.8200912  11.1957922  66.9989929  39.8036308
  10.3275566  65.9244232  40.4220619  81.2528763  22.3782120  84.3378067
  81.2209549  21.4508514  84.5727844  81.9154663  22.4280357  83.6487961
  84.3843842  27.8573112  36.8451729  84.6507492  26.9443588  36.9537849
  84.6544571  28.0812778  35.9545937  69.3225555  65.8349686   4.0395494
  69.8208084  65.0240326   4.1412930  68.4229813  65.5925217   4.2591481
  83.0766830  19.0408249   5.0711999  83.0879669  18.7948551   4.1462116
  82.1509171  19.1800022   5.2707510  26.1286335  15.8965607   9.6821928
  26.5354767  16.4426174   9.0094872  25.2310619  16.2230949   9.7452154
  67.9495926  46.8367691  73.4305267  67.3795624  47.1277161  72.7187347
  68.4305191  47.6230316  73.6888580   7.3925395  71.3126907  24.3561993
   7.1353073  72.0655441  24.8884335   7.8976097  70.7594681  24.9520893
  83.3493042  30.8416557  83.8609238  82.4408417  30.9607716  84.1379395
  83.7892990  31.6482086  84.1294556  55.6587296  36.8947029  65.8774719
  55.9654083  37.7983322  65.9525528  55.1038208  36.7654114  66.6466217
   4.6804399  51.2386360  79.7777328   4.9152746  52.1639786  79.8471832
   3.8042364  51.2421646  79.3923874  13.6974669  35.7242393  19.7609234
  14.1988220  35.1786308  20.3668823  12.9817057  36.0751915  20.2907810
   8.2699614  30.1560860  33.7003593   8.9297514  29.9291039  33.0450821
   8.7416086  30.1333923  34.5329819  49.1881523  15.4463749  60.3666573
  49.7156296  14.8796883  60.9295654  48.2831764  15.2063761  60.5657806
  83.6352615  22.3825569  68.9016418  84.3635941  22.8947754  69.2529221
  83.0391693  22.2743435  69.6427155   3.2173412  46.7150040  51.2958603
   2.9674520  46.9273262  50.3965797   4.1722016  46.6529884  51.2708206
  52.1175423   9.1407433  63.5942879  52.6654587   8.8332739  62.8721504
  52.6814919   9.0803957  64.3653564  55.3527985  34.9089317  59.4783173
  54.6628799  34.8710251  60.1407433  55.0745697  34.2861176  58.8068123
  73.2210846  28.2744293  71.1959991  72.6805420  27.8935909  70.5038910
  73.8258133  28.8558350  70.7350235   3.7167103  64.8943024  72.7101288
   3.3098993  64.0876389  72.3938599   4.5693192  64.9188385  72.2757416
  21.2958908  17.7126255   9.9266109  21.3835869  17.4922276  10.8539543
  20.3511219  17.7413731   9.7755632  19.5724449  67.8332062  13.5625172
  19.6946468  67.8219299  14.5118179  18.6394367  68.0106888  13.4432259
  37.2041168   2.0173843   5.0938168  36.5697784   2.1962104   4.3996496
  36.8678856   1.2342602   5.5295906  37.7559052  64.6433029  21.1145554
  37.4189377  65.0825424  21.8954201  38.3879662  65.2607193  20.7464123
  78.3377457  16.9899960  28.8004360  77.9336243  17.4758892  29.5193424
  78.4359436  17.6354713  28.1004715  54.2169571   9.2290850  86.1421661
  54.8275566   8.9006414  85.4822235  54.0730400  10.1441545  85.9009933
  55.6545372  56.4329720  53.0113144  55.6246490  56.4401283  52.0546074
  56.5157127  56.7910385  53.2267227  53.9541740  11.7545557  10.4216509
  53.6759109  10.9943228   9.9109182  54.9102554  11.7340345  10.3801785
  11.0290909  42.7044106  68.8698730  10.7199993  42.3424606  69.7003479
  10.2459173  42.7478371  68.3212509   4.5850668  37.8782272  69.6085968
   4.1177144  37.8477097  68.7738037   5.4665027  38.1724930  69.3790054
  76.5516663  10.2820511  81.3315277  77.3428421  10.1774378  80.8030167
  76.5449677   9.5169764  81.9067230  61.9726830  39.9263916  75.8905106
  62.6340942  40.5643883  75.6226959  61.2564354  40.0479584  75.2672577
  60.0356789  34.2265015  16.9222794  60.3458099  34.7136154  16.1588821
  60.2076645  34.8075714  17.6632347   6.4343839  44.9568405  53.3653870
   6.1092520  45.6490135  52.7896957   6.3935118  44.1629524  52.8321877
   1.9453923  57.0305901  85.3483200   2.2188449  56.1491089  85.6021881
   0.9994692  57.0393486  85.4945526  71.5375671   9.5848627  48.5742226
  72.4926758   9.5274830  48.5477753  71.3461761  10.0091553  49.4106293
  85.6927032  43.0067024  52.0024567  85.0157852  42.3693123  51.7749939
  85.9357758  42.7872543  52.9018974  79.7165375   9.0060186  30.6669102
  79.4272232   8.0938721  30.6895962  80.5848389   8.9919634  31.0695171
  83.9430466  39.0070381  20.0979328  83.3515930  39.6731224  20.4482803
  83.8228989  39.0550079  19.1495152  10.0295944  46.7227707   9.5545683
  10.5673628  46.0482178   9.1398191  10.6412325  47.4346581   9.7425747
  77.8474503   0.4675448  27.8154087  78.0719376   1.2229604  27.2721004
  77.1847687  -0.0028095  27.3095837  50.8741570  61.9224052  57.8159637
  51.5782814  61.2787399  57.7376099  50.7838058  62.0650597  58.7581520
  82.1681519  11.1329947   7.1260028  82.6076736  10.2925816   7.2554512
  81.9962234  11.4523182   8.0118380  74.3252106  44.1732445  34.6397057
  73.5921326  43.6213264  34.9121361  74.0817566  45.0534782  34.9263306
   3.5216141  35.3011894  32.5618324   3.6552694  35.1621056  31.6242676
   3.6783135  36.2367477  32.6899109  73.7675781  47.5244598  49.3716774
  74.3933105  46.8066902  49.2742615  74.2774429  48.2357330  49.7594337
  24.8360176   1.8149197   9.3856859  25.2124958   1.8539593  10.2648745
  25.5456963   1.4829863   8.8357687  78.7749176  64.3760986  77.6939850
  77.9027557  64.7126923  77.4883881  78.7873764  63.4966164  77.3163757
  36.1168633  50.9301033  40.0429344  37.0015984  50.6929054  40.3208008
  36.0620689  51.8731728  40.1973610  53.3923340  12.8175650  76.9619904
  53.0226364  11.9376049  77.0342560  52.6507645  13.3692102  76.7130051
  69.9413910  40.9627838  56.1362076  69.6914749  41.4384880  56.9283447
  70.7661591  40.5339890  56.3645020  62.9392929  37.0491028  41.3675613
  63.8281136  37.2925186  41.1087608  62.5443459  36.6999321  40.5686073
  30.4965725  58.3943443  76.1031570  30.5440960  59.2744293  76.4765472
  30.2502117  58.5350113  75.1889648  50.9828072  68.3829727  83.3368912
  51.1313362  69.2032623  83.8073120  50.9002991  68.6443787  82.4197769
  47.9207726  68.3726501  66.6757355  47.0894318  68.8466034  66.6974945
  48.5849762  69.0475769  66.8155594  35.2165794  26.8823452  75.9133530
  34.9877815  27.7875595  76.1242294  34.3899231  26.4833794  75.6418762
  25.4221325  59.5762672  35.0566177  25.7804794  59.9113007  34.2346840
  24.9492970  60.3189926  35.4321442  17.2610703  33.2488747  68.2926025
  18.2082233  33.3839149  68.2626266  17.1218376  32.4243126  67.8268280
  56.8632545  29.7357483  87.3743210  56.0082245  29.4448414  87.6913834
  57.3554115  29.9430790  88.1686935  36.7252388  68.6368790  16.3017349
  36.6683540  69.4972992  15.8862000  35.8144875  68.3787308  16.4435940
   0.0874732  12.2170954  40.1786194   0.4152783  11.5790634  39.5448303
  -0.4736405  12.7982178  39.6651230  56.0742722  26.1265507  76.2351990
  55.1221390  26.2248592  76.2322311  56.4029121  26.9854164  76.5008621
  14.8064861  30.6257133  78.7889709  15.6404085  30.1843414  78.9502106
  14.4859514  30.8579044  79.6605072  46.2820435  41.7624359  51.7209473
  45.7449036  41.7827644  50.9289246  46.3241043  40.8360367  51.9581070
  72.2333298   7.2924933  33.0696564  71.7172852   8.0249243  33.4065170
  71.5914917   6.6004052  32.9106255  54.1861801  55.8023643  47.9958305
  53.3778038  56.0531654  48.4428825  54.0063400  55.9605217  47.0690765
  22.7585411  47.3187485  40.1260948  23.5634136  47.7245712  39.8040428
  22.8721027  46.3855553  39.9458580  39.8452644  62.8411064  84.2501221
  39.4897003  62.3064117  83.5402603  39.7077560  62.3152733  85.0380478
  55.9146042  68.2101212  30.4074116  55.1901703  68.4249649  29.8198109
  56.1188927  67.2957458  30.2113991  45.4997101  68.2704849   3.7873521
  45.7925797  68.9608154   4.3822498  44.5442581  68.3231735   3.8112020
  84.2522659  47.5453491  59.1370163  84.0490875  48.4729385  59.0164680
  83.8073120  47.3064041  59.9501305  48.8959236  52.0684586   7.3297520
  48.4501266  52.5687027   6.6461935  49.4532051  52.7095947   7.7709007
  54.9966736   6.3179765  12.2539759  54.6334915   7.0197616  11.7137651
  54.6317825   6.4730945  13.1251965  83.3426361  21.8582726  45.0858040
  83.0825882  21.6972046  44.1787949  83.2956085  20.9988708  45.5046692
  18.9996796   4.3741689  73.9084015  19.9491081   4.2980299  74.0033875
  18.8149338   4.0044355  73.0450363  10.4594793  29.6053333  75.9567719
  10.4824438  30.0077038  75.0885544  11.3140392  29.8080521  76.3373795
  43.5454903  36.4140739  46.8842010  43.7607498  36.5659790  45.9639702
  43.1446266  35.5449371  46.8960953   3.8306117  10.4934483  11.7782688
   3.4819295   9.6291161  11.5601349   4.7106705  10.4986696  11.4018364
   4.5997534  49.5926666  52.4632950   3.7305799  49.5421524  52.8610611
   4.8620815  50.5062714  52.5761642  58.0509911  22.3368835  26.9171238
  57.7148781  21.7343502  27.5806122  57.5281181  22.1503811  26.1373444
  70.6752090  37.5749779  71.2096863  71.3101883  37.8728294  70.5582886
  70.6450958  36.6248131  71.0978241   3.9102867  64.5015717  38.6759033
   3.7897034  65.4326477  38.8623962   3.0247104  64.1707001  38.5258560
  50.7079544  66.4014664  78.1440964  51.0619698  67.2831650  78.2603226
  50.7021446  66.2687302  77.1961594  70.8953552  17.1166763  14.4113026
  71.3196716  17.9592991  14.2495193  71.0752029  16.6028633  13.6239767
  30.5647411  46.0147209  37.9281540  30.4032059  45.0734520  37.8637199
  31.4477615  46.1307602  37.5773849  16.0264568  12.0838022  68.1991730
  16.4852238  11.3699284  68.6420593  15.1299677  12.0347137  68.5310287
  35.7099342  27.2863750  85.6558228  36.4552498  27.8868179  85.6414642
  35.2628860  27.4791679  86.4799576  64.4443207  37.6583366  78.0746002
  64.4824448  38.5618210  78.3884354  64.7966537  37.1387253  78.7971649
  63.0201530  65.7761993  65.5546570  63.7565079  65.4660797  65.0275574
  62.6853256  64.9893646  65.9847946  79.1202774  44.6439896  57.9830971
  78.8694382  44.1226768  58.7456856  79.7763138  45.2560310  58.3166542
  72.8886261  53.9899178   3.8431547  73.0703506  53.9658928   2.9036698
  72.8223038  54.9220276   4.0505180  78.6731644  56.3410034   8.3944759
  78.5507126  55.4191933   8.1675329  78.9031754  56.7629585   7.5666595
  55.7741890  69.3812790  75.6751404  55.7364769  69.7846527  74.8078995
  55.9903259  70.1028748  76.2657318  21.3692360  52.1362228  37.7621574
  20.6073265  51.7182617  38.1634483  21.1368599  52.2205009  36.8374252
  11.9597998  59.4534149   5.2757525  11.9954157  60.3341713   5.6488934
  11.4127426  59.5457039   4.4957247  63.5908241  32.3757324  36.6382866
  63.9364281  31.5701237  36.2538605  63.7589226  33.0476799  35.9776344
  68.3265686  45.3039474  81.1013565  68.6603851  44.6556931  80.4812241
  67.5381775  44.9022980  81.4665222  66.5462036  22.8214397  57.2737160
  67.3271561  22.6837463  56.7376328  66.6980743  22.2941952  58.0580482
  65.5881729  69.8841782  12.0695515  65.5939941  70.3284683  12.9173775
  64.6638870  69.8508911  11.8229342   2.8789668  23.2575436  81.1282730
   3.5259130  23.6503925  81.7142410   3.1253829  22.3336487  81.0843658
  43.9560204  20.3794308   0.9473068  43.9925499  20.6946278   0.0442297
  43.1640739  19.8429089   0.9818794   9.0631638   8.5892372  20.1867733
   8.7483625   9.2556448  20.7975388   9.8522997   8.2391033  20.6001778
  23.9202728  55.0207672  47.4377441  23.0496216  55.1898537  47.0777321
  24.4210873  54.6727905  46.6999588  41.5929718  59.5775833  54.6304054
  42.0875778  58.7588234  54.6654320  42.2625160  60.2600670  54.5839233
  33.0335350  62.0496788  61.4341011  32.3552704  61.6392975  60.8976517
  32.9393425  61.6399231  62.2940178  51.3738670  52.4630356  31.7049255
  50.5254593  52.1436996  32.0122719  51.5135841  52.0096359  30.8735752
  54.5948448   1.9992043  44.4036903  55.2774925   2.0246828  45.0741920
  54.6597939   1.1207775  44.0290184  54.1317787  58.0515251  32.2721214
  54.7597313  58.5238113  32.8187943  53.2752075  58.3338432  32.5927696
  10.9728241   3.0808487  63.4976158  11.6101093   3.3708830  64.1502838
  10.5442343   3.8859150  63.2070808  31.1413746  69.7328491  34.5964813
  31.7623405  69.9612045  35.2882080  31.1276112  70.4999695  34.0241547
  27.5180206  66.6906433  25.6910172  27.1128159  65.8784027  25.3871861
  28.1339645  66.4121170  26.3687115  11.2328844  37.6873131  61.5394669
  11.6814184  36.8850784  61.8068085  10.9412403  38.0836372  62.3605080
  23.8317738  62.3982315  63.8249779  23.3098450  61.9472313  64.4886246
  24.5529385  62.7931519  64.3150711  71.1218338   5.5045161  52.1318092
  71.0375137   6.0118837  51.3245277  71.8399124   5.9248710  52.6049843
  19.6054726  36.0647278  74.2605972  19.7937603  35.2506142  73.7937012
  20.3854923  36.2215309  74.7927780  67.1586304  71.0591202  15.7284174
  67.7959213  70.6454239  16.3106117  67.5495148  71.9044647  15.5074406
  14.3790693  33.4437065  88.0847855  14.1575699  33.7345009  87.2001343
  14.7495384  32.5694351  87.9637909  52.1417389  57.4032364  41.0955772
  51.8805923  56.4826393  41.0724335  52.6362610  57.4915047  41.9103699
  76.4317627  66.3014374  74.1008530  76.7339935  67.0666351  73.6116104
  76.7986526  66.4173050  74.9773254  52.2302895  50.5479622  67.9242859
  51.5352631  51.0436897  67.4913635  52.0184288  49.6318817  67.7450027
  55.6603889  16.8031006  61.7214394  55.8141785  15.8797369  61.9213943
  55.5754776  17.2226467  62.5775986  26.5601158  62.6188393  73.4958954
  26.2983589  61.7138863  73.6655197  27.4951668  62.6398849  73.6995316
   0.6607703  52.4869003  43.5858536   0.2986864  52.9424248  44.3458672
   0.5985975  51.5586243  43.8109550  46.6810493  19.3890038  82.4140472
  47.1890068  19.1356049  83.1847610  46.5604019  18.5733166  81.9279099
   9.6120071  34.7476196  60.4852295  10.1360941  35.1834145  59.8131790
  10.0115023  33.8826256  60.5769920  51.1000366  58.2259026  46.2484970
  50.2632904  57.8911133  46.5709915  51.6658478  58.2401390  47.0204353
  43.4402008  51.3679123   6.3121734  43.4637489  51.1416016   7.2419367
  42.6570396  50.9299889   5.9788356  56.9321365  66.6658325  65.7139511
  56.0102692  66.4788208  65.8912048  57.4028473  65.9156723  66.0771713
  15.1647797  40.9070091  36.9938889  14.2239857  40.7587013  36.8982658
  15.2295589  41.7341461  37.4712524  15.9170084  10.4736652  73.8489838
  15.4693136   9.8221083  73.3092880  16.1341610  10.0075674  74.6563492
  56.6138000  32.6028252  19.7341652  55.7955399  32.1159058  19.8320942
  56.3420296  33.5188408  19.6768112  72.5405579   4.4805541   3.8704412
  72.6499023   5.4311352   3.8445444  73.2974014   4.1657801   4.3647461
  58.0817909  30.0692196  80.2298813  57.2764626  30.3853912  79.8203506
  57.8596878  29.1956558  80.5520401  66.6047134  14.3585577  26.9273548
  65.7146378  14.0140095  26.8546677  67.0981369  13.6589508  27.3555031
  78.2336502   5.9697571  47.6264992  77.4790115   5.8372741  47.0527344
  77.9470901   6.6384668  48.2485504  35.9793854  17.4434376  15.1503315
  35.3048668  17.5121536  14.4746580  36.4354973  16.6258087  14.9511499
  85.2456284  20.0182686  86.6041641  85.3986816  19.1061897  86.8509750
  86.0887680  20.4491177  86.7445984  80.0197983  45.4107971  77.5089340
  79.3929977  45.3019867  76.7937393  80.5991821  46.1136589  77.2147827
  43.0847626  36.7650185  81.8347168  43.6002274  36.3486099  81.1439667
  43.6985626  36.8693581  82.5617599  52.4041481  54.7990570  18.4979343
  52.4084015  54.8338814  19.4544907  52.5785294  55.6997032  18.2246971
  13.0538645   5.9982600  63.0611458  13.0693293   6.0440087  64.0171280
  13.9414206   5.7333956  62.8196449  75.0325775  29.1803761  13.2525377
  74.1096573  29.4342365  13.2509117  75.2233810  28.9651203  12.3395815
   1.6508585  61.8214111  72.0485840   1.4196644  60.9862099  71.6421204
   0.8228615  62.1587410  72.3904343  85.9851379  49.5725937  28.1756802
  85.8071823  49.4689751  27.2408924  86.7537613  50.1419563  28.2114964
  13.3919430  59.8068314  42.1754036  13.7644682  60.6547470  41.9335518
  12.9072895  59.5278015  41.3985596  69.2200928  25.2365608  66.7722397
  70.0629196  24.8583412  67.0228958  68.8606796  25.5830402  67.5889359
  47.4751396   4.7040181  27.1591835  47.1128235   4.1381698  27.8409271
  46.7490654   4.8409233  26.5506554  50.0108604   1.4856168  36.9797440
  49.7332649   2.1027720  37.6567154  49.3154755   1.5218014  36.3229599
  32.5255470  12.2985334  10.9337311  33.4748344  12.3707838  11.0330734
  32.2425652  11.7944412  11.6966496  71.3763657  10.9076815  63.1040497
  70.5370483  10.9461946  62.6454697  71.8225479  10.1510038  62.7238007
  56.5321503  50.3657112  16.5807915  56.7845802  49.4890594  16.8706036
  57.1065636  50.9544640  17.0703335   2.1515489  15.3922863  55.3299942
   2.1675143  16.2370491  55.7798309   3.0362077  15.0444136  55.4422226
  83.3764114  22.0010834  82.0468445  84.0310516  21.5858707  82.6083374
  83.7036362  22.8908997  81.9150162  85.5303802  12.2783918  51.2541771
  86.2224121  12.1638470  51.9054832  85.9958420  12.4880600  50.4444771
  68.7310944  56.4964981   3.4319513  68.9355850  55.7864647   4.0404501
  68.4655457  57.2244797   3.9938767   7.6189466  25.1700363  31.1723251
   7.1880097  24.4829807  30.6639156   6.8997960  25.6572514  31.5744152
  19.9350147  46.6155777  23.6648502  20.7374630  46.4810066  24.1690331
  20.2294979  47.0225677  22.8500671  83.0657043  64.8160248  72.0015793
  83.7761078  65.3636093  71.6673508  82.3581772  64.9276962  71.3666229
  60.0884743  30.4563637  87.0425339  59.3492851  30.3497257  87.6412506
  60.6383858  29.6892738  87.2019119  47.5811615  55.3576698  27.7686462
  48.4804001  55.0361099  27.7038021  47.6724091  56.2711449  28.0396996
  81.3115768  44.6122894  65.0420151  80.7546387  45.3900452  65.0081100
  81.2399445  44.2281380  64.1682129  30.1563988   9.3072157  84.4202805
  31.1059074   9.2231236  84.3331528  29.9644966   8.9629030  85.2925491
  61.1164436  50.0151329  47.4716263  61.7990570  50.2563133  48.0978088
  61.5190430  49.3385468  46.9272156  25.0905533  13.2510900  82.0921936
  24.4038124  13.8978853  81.9300995  25.9078560  13.7297249  81.9537811
  51.7724724  27.1574917  55.2007713  52.3980255  26.4861031  55.4730759
  52.3061867  27.8157253  54.7556801  49.9778404  70.1932144  22.5591755
  49.1527138  70.6237335  22.7828808  49.9081001  70.0142975  21.6214352
  80.0794830  61.8311195  39.9354286  79.4413910  62.4673309  40.2583885
  80.9217758  62.2806129  40.0042419  43.4087448   6.2378879  62.4509201
  42.8969002   6.9892077  62.1513138  43.0337448   5.4911103  61.9840927
  39.8687592  24.4314480  79.2526474  40.6531105  24.3295479  79.7917557
  40.1017799  24.0345764  78.4133453  45.7512321  33.4133034  80.6182327
  45.8509254  32.9185600  79.8048935  45.4841614  34.2878876  80.3353729
  57.0611687  50.9411392  40.5254402  56.3794975  50.5601578  39.9718971
  56.9070854  51.8847580  40.4799042  79.9496231  33.3851089  75.8110275
  80.8285217  33.4874077  76.1761398  80.0893250  33.3140678  74.8667450
  31.5892525   8.1961718  79.5581284  31.2660675   7.7486472  80.3401184
  30.9309998   8.8670444  79.3768387  23.4122715  50.0153961  71.5621262
  24.0047836  50.0229568  72.3138657  23.2617626  49.0868225  71.3851242
  68.5362625  18.5024567  75.2790222  69.2289734  19.0794048  74.9572830
  68.8075943  18.2752914  76.1684113  84.1477509  27.5668163  23.2419491
  83.8331909  27.5038128  24.1437893  83.4442368  28.0163651  22.7737579
   0.1996685  48.0152702  31.9745903   1.0159614  47.9648819  32.4719429
  -0.2998527  48.7098541  32.4038506  69.9417267  51.3820801  11.9325085
  70.0031891  51.2648163  12.8805075  70.8370667  51.5787277  11.6569510
  77.3281021  41.1249466   6.1041908  77.0561447  41.9114494   6.5771418
  76.6264496  40.9712944   5.4714942   0.8305196  60.4512177  41.4377518
  -0.0716968  60.4662895  41.7571449   0.9467947  59.5669823  41.0901299
  67.5086975  67.5408173  50.5292778  67.3734131  68.4057007  50.9164619
  67.1636124  66.9301682  51.1806297   0.8051855   5.5480247  70.3385010
   0.9328713   6.0026464  69.5058823   0.4682977   6.2211971  70.9297485
  80.9054871   3.5869067  30.8808784  80.5455246   4.2505627  30.2924747
  81.6742172   3.2502418  30.4205093  76.4134903  50.8179398   1.1611755
  76.4448471  51.7641220   1.3025334  77.3310394  50.5570755   1.0818683
  85.0265350  21.3388786  16.0523777  85.5022354  20.8272781  16.7067528
  84.4374695  20.7086773  15.6375532  62.7251701   4.3027582  16.0445938
  61.7845383   4.1351709  16.1025276  62.8241043   4.8449311  15.2619743
  75.1263885  50.6808891  34.7585220  75.3364105  51.5020485  34.3137589
  74.3610001  50.3448563  34.2921486  31.9843483  44.6353035  85.6862335
  31.1074657  44.9340134  85.9272308  32.0919952  44.9168053  84.7777176
  63.5764923  47.6010628  24.8131485  64.3075867  48.0884018  24.4333687
  63.9891930  46.9757614  25.4088898  26.0841751  11.2705393  10.6514988
  26.9276543  10.8627930  10.8477554  25.6605892  11.3670874  11.5044260
   1.0793039  27.5340214  28.6670074   1.4906322  26.7291279  28.3520660
   1.3882313  27.6239853  29.5685062  74.3413162   3.4019563  32.3007507
  74.3707809   4.0306268  31.5795441  75.0062637   3.7116029  32.9157219
  17.3999710  25.2793827  84.0514984  16.5640182  24.8344727  84.1910477
  17.5882149  25.1494541  83.1220322  74.3372879  29.5984077  69.0666046
  73.6865692  30.2565212  68.8223114  75.1480026  30.0942211  69.1812744
  63.5742302  20.6160240  53.5811234  63.8292160  21.5148792  53.7891502
  62.6657791  20.5505409  53.8755074  53.1489754  14.6891651  46.7145081
  52.6236267  14.3564405  45.9868164  53.5215874  15.5075293  46.3863716
  20.2104130  55.2256508  53.1111374  19.9855213  56.1556244  53.1395760
  21.1166210  55.2076836  52.8034058  75.3571701   1.6426275  44.7741356
  76.2048264   2.0815673  44.7030487  75.3729172   0.9783430  44.0851440
  12.5618162   3.4962804  85.4524155  13.3266716   4.0061789  85.1855240
  12.8983927   2.8844914  86.1071396  18.9414978  26.8753357  76.8730469
  19.0431862  27.3868599  76.0704041  18.3001461  26.2013817  76.6479111
  80.1642380  71.1513672  19.6372967  80.5333328  71.7227020  20.3107815
  80.4624329  71.5315170  18.8109798  30.1442280  40.0435104  12.3906050
  29.7736645  40.7011261  12.9792099  30.3017883  40.5155373  11.5729284
  14.0305490  15.5974731  20.8955517  13.5079250  15.1674175  21.5724182
  14.9118252  15.2423677  21.0116768  56.9180260  37.7401581  23.7358646
  56.8074150  37.6846008  24.6850281  57.3408318  38.5869789  23.5931644
  51.1696587  47.0946579  15.1695662  51.5446472  47.4772797  15.9627972
  50.9609566  47.8472748  14.6161757  57.4105759  45.6363945  71.8453140
  57.4588509  46.2145653  72.6066360  57.3898430  46.2300034  71.0946884
  72.6484375  62.4066238  36.4238358  73.4795074  62.8018723  36.1604958
  72.1248169  63.1410561  36.7442474   2.9463401  27.1263580  81.4567413
   3.7975905  26.6889915  81.4390030   3.0943966  27.9570351  81.0047607
  47.1102982  24.6846390  60.2515068  47.7575073  25.1822224  59.7517433
  47.5692787  24.4312515  61.0523605  24.0616932   8.1941338  70.5443573
  23.4567528   8.7479296  70.0508118  24.6218700   8.8114100  71.0148926
  52.3781815  34.4960518  75.6360397  52.2631912  35.0107193  74.8372116
  52.0426369  35.0587730  76.3338852  53.8985558  48.5677605  34.3972664
  53.4757500  48.0056953  35.0465317  54.7529869  48.7719841  34.7773666
   3.6066508  65.4265366  11.2553387   2.9006655  65.8464813  11.7467279
   4.2045307  66.1414032  11.0368376  41.0953941  52.6734352  41.6874695
  40.2793961  52.6899223  42.1875725  41.7704048  52.9127769  42.3225365
  41.1722336  69.0143280  73.5687790  41.0060921  68.7432098  74.4716187
  40.3113823  69.2606201  73.2303925  67.2100983   6.3992038  59.0194397
  67.0005035   7.3256283  58.9009590  67.8865585   6.3913851  59.6966248
  70.9386520  34.4373474  43.1779938  70.4302216  33.6339569  43.0671425
  71.7942047  34.2333908  42.8002815  75.5876465  63.3002510  68.6345978
  75.8299026  62.9996529  69.5104904  76.3310928  63.8315506  68.3495712
   6.2268248  33.7940445   7.1282592   6.1847968  34.5723152   7.6839228
   5.5523438  33.2125130   7.4791555  68.9780426  37.9482803  64.4984818
  68.6016083  37.1233597  64.1918411  68.4086075  38.2182236  65.2189713
  13.3665390  54.7161140  17.5370216  13.8643408  54.7356987  16.7196827
  12.7512178  53.9914436  17.4253902  17.2623177  17.7620773  53.6378555
  16.3551884  18.0121574  53.4623337  17.4048157  18.0044117  54.5528412
  63.2150345  53.5137444  60.6502228  62.5016403  54.1494179  60.5934944
  63.1455078  53.0030785  59.8436089  40.6479797  40.8860207   2.9006433
  40.6637383  39.9291954   2.9224401  39.8864326  41.1008110   2.3619905
   6.2208471  56.3807945  10.9248009   5.7170005  56.8040733  11.6199322
   5.5668068  55.9121971  10.4062653  48.1053391  18.4025440  17.2837772
  48.0173721  17.5461178  17.7021389  47.3044395  18.5009842  16.7688961
  86.2295837  22.8548851  20.7905827  85.6825943  22.9311924  21.5723820
  86.4217224  23.7594585  20.5434761  36.4064369  34.0327225  39.6658821
  36.9518318  34.5757675  39.0967751  35.5150032  34.3465157  39.5138588
  25.8652782  15.0489349  12.6391191  25.8035297  14.8132343  11.7134495
  25.8015099  16.0039692  12.6478653  24.1543941  46.0852165  78.3752823
  24.9375153  45.6791954  78.7468948  23.4614258  45.4394341  78.5130997
  20.1530647  61.2903175  85.1910858  19.4057980  61.8738365  85.3227234
  19.8432198  60.4340668  85.4861450  71.7169266  43.5402298  20.5385437
  71.9269485  42.6819496  20.1704731  72.5300064  43.8284149  20.9533672
   6.3507528   1.4381727  35.8444519   6.6700873   0.6075668  35.4918175
   6.9012237   1.6005949  36.6105003  29.0719490  20.6630840   1.7114043
  29.3027039  19.9853439   2.3467410  28.1435452  20.8338661   1.8699328
  80.3846664  13.6120081  58.1402664  81.0225754  13.1375027  58.6733208
  80.1575623  14.3795462  58.6651878   5.8064895  31.3962784  32.6539993
   5.9321060  31.7660999  33.5278893   4.9093637  31.6341991  32.4199219
  55.5173683  53.4790535   9.3214197  55.5679741  54.3938293   9.0441923
  55.0536423  53.5077057  10.1583004  51.9949646  55.5426102  66.5072403
  52.0826378  55.8074303  67.4228897  52.4014320  54.6768723  66.4683304
  67.6340027  32.5717430  26.1007786  68.5821381  32.5353699  25.9745178
  67.5113983  32.4238129  27.0384979  44.7498207  45.6679993   5.5323882
  45.2388039  45.1348686   6.1592073  43.8657303  45.3012924   5.5444207
  67.7071304  50.2156525  44.5729103  66.7521820  50.2789917  44.5900803
  67.9287567  49.7232819  45.3632774  56.5368500  41.1124649  21.6717014
  57.2843323  40.8351898  21.1419601  56.5842819  40.5670509  22.4568825
  23.5991917  15.1852131   3.5367823  23.5348988  15.1048880   2.5851281
  23.9741249  14.3521929   3.8226719  24.8670940  68.8048782  -0.2225474
  25.2380257  68.8032684   0.6598571  24.1812706  69.4719620  -0.1928490
  64.3227158  36.8333778  46.5908699  64.7524033  37.6260567  46.9122086
  65.0349045  36.3029099  46.2336349  59.4146843  16.1534901  75.7814102
  59.9884644  16.8822937  76.0177383  58.5628586  16.3906918  76.1479645
  19.4603558  17.6490231  82.4835358  19.8741894  16.9249649  82.9533386
  20.1921158  18.1515560  82.1254578  34.7960434  48.2457695  14.5729256
  34.3557091  47.7652435  15.2739468  34.1214027  48.3661575  13.9046450
  18.2819366  66.7481766  49.3321304  18.0536232  65.9998016  49.8835258
  19.0140076  66.4383240  48.7989311  24.3221226  33.2284431  65.4525452
  24.5606403  33.8728905  64.7861938  25.1472187  32.7970886  65.6747665
  63.8603630  70.7649155  21.8851147  64.0493774  71.1856766  22.7238426
  62.9692116  70.4289627  21.9811325  71.4691010  53.1511803  67.0139999
  72.1092377  53.5002098  67.6341782  70.6202011  53.3441048  67.4119720
   5.3817201  29.4976177   9.9056883   4.4697995  29.7681141  10.0127611
   5.7542238  29.5576591  10.7853851   0.3334335  41.9874039  82.8932037
  -0.6072155  41.9800377  82.7161255   0.3982201  42.1272202  83.8379211
  61.7384300  31.3314476  43.4343300  61.6052551  31.1620388  42.5017014
  61.8591423  30.4639568  43.8204918  75.5524826  28.3596706  15.9987917
  75.1306839  28.9566822  16.6167698  75.3186493  28.7030754  15.1364536
  44.1973801   5.7857294   6.9006600  44.9074440   5.5853372   7.5104842
  44.3760185   5.2375512   6.1365781  59.9462280   5.9381785  37.6793518
  59.3775826   5.6775103  36.9548340  60.5618057   6.5588160  37.2893486
  33.0705490  59.0740814  80.3812943  33.7360191  58.7245369  79.7886734
  33.0740128  60.0168877  80.2159576   2.1386635  44.5707130  58.7953033
   2.2522819  45.3762245  59.2997589   2.9088347  44.0438728  59.0086250
  41.6994820  41.3474617  41.1820717  40.9646721  41.4929390  40.5861511
  41.7053871  42.1194496  41.7479630  35.4868011  23.3893490  72.2863464
  36.2911339  23.3398228  71.7697906  35.7851944  23.3790970  73.1957855
   4.3404574  23.9923534   0.2345154   4.9440680  24.5694332  -0.2333152
   4.7769403  23.8138008   1.0674818  12.7349482  21.7324810   0.9136600
  11.9890814  22.0809288   1.4020226  13.3459196  21.4365616   1.5884769
  36.1479568  34.3251953  83.4013443  36.2034416  35.2705536  83.5408249
  37.0555267  34.0478630  83.2763062  65.6389618  70.6361618  59.7928658
  65.8731537  70.3959656  60.6893539  66.4773407  70.7014008  59.3356018
  47.6490936  13.5093374  11.5148067  46.7689743  13.8329649  11.3227425
  48.2260170  14.0492811  10.9745731  11.8832216  42.0659523   6.4182811
  11.9581852  41.3340187   7.0305629  11.7947483  41.6519585   5.5597849
   2.2676182  50.9215164  31.0002270   2.7725005  51.7136154  31.1843510
   1.3779004  51.2363243  30.8404503  42.6886406  68.9437866  33.6462173
  41.8818016  69.1499634  34.1181641  43.3862534  69.1114883  34.2798119
  70.1361084  71.6487045  40.4910202  71.0874100  71.6700821  40.5949135
  69.9295502  70.7224121  40.3663025  33.8867493  18.2279034   0.8660204
  33.3565559  17.4852867   0.5767992  34.3740196  17.8951893   1.6197436
  84.3416595  38.5009422  56.3192215  84.3436737  39.2594757  55.7353973
  83.4721146  38.5089340  56.7192917  43.3778496  51.3213806   9.0072737
  42.6251564  51.3721390   9.5964355  44.1063652  51.6736946   9.5185175
  84.6657410  39.2856750  69.0343933  84.1587677  38.8849983  68.3282318
  85.5582504  39.3325806  68.6916809  32.1863174  64.1611023  88.0662766
  32.2329407  64.9794388  87.5719299  31.9137497  63.5074654  87.4223022
  79.0847626  60.6707954  21.2329006  79.7770386  60.0184975  21.3400593
  78.6912155  60.4652863  20.3848896  17.9423943  13.6752958  15.1954079
  18.8604736  13.6491642  14.9258127  17.9482307  14.1642542  16.0182800
  69.2381210   8.2430048  16.0224552  69.7555008   8.9132118  16.4689636
  69.4019623   8.3945770  15.0916424  69.2995300   3.7755761  35.0015602
  68.3685303   3.6831834  35.2038879  69.7098083   3.9687603  35.8445206
  55.1937447  59.0572968   6.6193867  54.9843369  59.9236336   6.2703314
  56.0946655  59.1367264   6.9328547  34.2146149  23.4275303  17.9534283
  34.5122910  23.4266987  17.0436916  35.0157089  23.5287342  18.4674702
  67.6296539  21.9603558  32.2074585  68.5312500  22.0557137  31.9004402
  67.2073593  22.7860451  31.9705276  68.8074875  59.6298332  39.3761711
  68.1599655  59.0861244  39.8248672  68.3486557  60.4507523  39.1978340
  84.2021179   6.7143726  87.5499573  84.6126175   6.2157655  88.2564392
  84.8077164   6.6293530  86.8135681  62.8760490  60.8954201  62.9922409
  63.6147194  61.4452248  63.2536087  63.1024590  60.0221519  63.3121986
  23.6206284   4.0599132   8.1687183  24.1522007   4.7521219   8.5617933
  24.0817585   3.2502127   8.3877516  17.4687881  35.2839355  21.6746349
  18.2634468  35.1428185  22.1892548  17.2066460  36.1813393  21.8800182
  85.9376221  51.3317795  74.5176010  85.0074692  51.3382683  74.2917480
  86.3237991  50.6879845  73.9237823  79.4325714  19.8150635  82.5427094
  79.0024872  20.6422138  82.7596893  80.1264648  19.7272701  83.1961899
  81.9546127  26.3637104  15.0992641  81.8827133  25.6374607  14.4798908
  82.3532333  25.9756298  15.8781891  48.1667938  42.2162476  75.8316956
  48.9867363  42.0419731  76.2938156  48.2503510  43.1202202  75.5282440
   2.4955842  25.2335777  63.7868576   2.1894996  24.3396053  63.9396935
   2.2976003  25.4002666  62.8653107  49.7689743  44.0561218  68.7262955
  50.5983200  44.5127525  68.8673859  49.2575226  44.2394638  69.5143509
  13.2703800  47.4472847  69.1368713  13.6533337  47.7932396  68.3307114
  12.9126492  46.5956688  68.8858566  20.9548340  52.3028183  86.6520767
  21.8759155  52.2108116  86.4084091  20.9406567  53.0417480  87.2603607
  55.1775017  19.2307072  71.2061386  54.9478607  20.1040993  71.5234451
  54.3367729  18.8217869  71.0007248  39.3864975   1.1222461   9.6470575
  39.7277870   0.9718012  10.5286016  40.0001488   0.6657274   9.0715084
  80.7159271  21.5844555  39.7997856  80.5495529  20.6423550  39.7681541
  80.3319855  21.8677483  40.6295815  29.5304585   6.3578873  19.9545441
  28.7847919   6.7446876  19.4956303  30.2341595   6.3519425  19.3056984
  45.1046066  70.4258423  23.2441902  44.1475296  70.4124222  23.2369747
  45.3583374  69.7554474  22.6098194  40.8888702  64.1690903  59.6031075
  41.8057175  63.9107742  59.5088005  40.5805702  64.2902374  58.7050514
  67.7138214  35.2555351  17.5881920  67.5468140  34.4280510  17.1369610
  68.0481491  34.9968147  18.4469814  80.6833267  66.8533478  34.8651009
  80.0833435  67.3736115  34.3307076  81.3789749  66.5942230  34.2608147
  29.2643147  66.5579147  19.3806267  29.2813187  66.5718002  20.3375759
  30.1796246  66.6682205  19.1231880  34.5690575  68.6959839  44.4027596
  34.9178467  67.8868790  44.0286903  33.7000084  68.4560394  44.7243309
  24.5169392  48.2213020  51.1205788  24.2093525  47.3652039  51.4184341
  24.4491501  48.1815414  50.1666069  83.0480270  22.3864651  28.3658390
  82.1102524  22.5585728  28.2810650  83.4522781  23.2540951  28.3598824
  60.8877258  32.9490891  68.4020386  61.1056595  33.0836067  67.4797440
  61.7134972  32.6839790  68.8070755  22.3033695  68.6866531  74.0060959
  21.4264355  68.4761124  74.3268661  22.1823330  68.8563538  73.0718689
   4.3307920  22.5480251  21.8527412   4.4635944  22.9797993  22.6966419
   3.9197938  23.2159958  21.3039894  73.9182358  26.4492054  56.2132759
  74.5632019  26.1474380  55.5736008  74.4210739  26.5793171  57.0172997
  25.4953632  60.6930733  56.9004669  25.5634689  61.5099182  57.3947945
  26.1245632  60.1061592  57.3198357  36.3334618  14.3662357  76.3218155
  36.7553902  15.1580811  76.6552658  35.9506721  13.9544487  77.0964966
   3.1862249  41.2191772  61.7217865   3.1043601  41.4808197  60.8046837
   2.8887691  40.3095245  61.7388039  58.3666115  38.1335297  75.0254974
  59.0095482  37.4249458  74.9976883  57.5192757  37.6895828  74.9913864
  24.4072857   0.6330357  52.5494270  24.9770832   1.3957744  52.6483841
  23.6069813   0.9813089  52.1564217  43.2182617  12.9578733   6.9364710
  43.1420059  13.8888321   6.7273474  42.8132820  12.5114088   6.1929049
  13.9147491  59.2139702  21.9129543  13.8979931  58.3615036  22.3479843
  14.3754091  59.7867546  22.5260963  26.2478352  69.8227539  63.2141571
  26.0548306  69.0660934  62.6605759  26.8095207  69.4755096  63.9070930
  33.7160912   1.1154654  49.6939735  32.7634773   1.1719384  49.7685852
  33.8642616   0.4777236  48.9957161  61.0591316  46.6015320  71.2427368
  61.6144676  47.2476845  70.8064728  60.6100273  46.1501617  70.5280304
  63.9569016  35.5733681  68.4083939  64.9102020  35.6034813  68.3275070
  63.6381645  36.1189156  67.6893539  63.7101479  42.9162750   0.0875028
  63.4285240  43.7364006  -0.3178543  62.9211388  42.5731049   0.5069394
  23.8097286  16.4345551  85.9680710  24.4279118  17.0053253  86.4244766
  23.0415497  16.9853897  85.8173599  60.9144974  60.8206749  26.4248428
  61.4288177  60.6648254  25.6327457  61.0210724  61.7557526  26.5994987
  74.6482010  62.7517700  22.8572063  74.1277313  62.0177612  22.5307541
  75.5120392  62.3760452  23.0270367  52.3896179  63.1102486   5.3058100
  51.9333839  62.3904839   5.7417274  51.7065125  63.5612755   4.8096533
  40.7265015  58.2019005  57.6766243  40.6390686  58.7128410  58.4813118
  39.9801178  58.4697685  57.1405373  79.2552490   8.5589447   6.7538443
  80.1010361   8.4366388   6.3226504  78.7032623   7.8612103   6.4007125
  61.2604179  14.0941896  72.2076187  61.9057465  14.5905542  71.7042236
  60.9177437  13.4497643  71.5883255   7.3416433   2.6912014  64.8596344
   6.6400871   3.3266268  64.7172089   7.9908643   3.1639326  65.3804703
  77.5528030  37.2459679  49.1558571  77.2339478  38.0858307  48.8254166
  78.4082565  37.1345863  48.7410851  47.2829285  26.0921707  27.0373955
  47.2904778  25.1553154  27.2335548  48.1491661  26.3997555  27.3043289
  17.8338680  44.6110764  16.6022129  18.7608109  44.4674149  16.4115028
  17.5395813  43.7885895  16.9935455  30.7509804  37.7806892  79.2422791
  31.5230350  38.1743050  78.8357925  30.6782246  38.2173805  80.0909500
  42.5248795  62.7072372  32.6474571  42.7177544  63.5891418  32.3292236
  43.3764038  62.2708893  32.6747398  60.5126686  35.3377190  88.2959976
  60.3701019  34.3913574  88.3135757  60.6125374  35.5820198  89.2160950
  68.0406265  56.4531250  49.1872673  68.0385513  56.3291130  50.1363945
  68.8476105  56.9366798  49.0106659  53.7355614   7.1758890  79.4236603
  54.0604134   7.1837254  78.5233078  53.6750069   8.1003160  79.6644897
  34.5624161  22.4108124  86.8457947  35.2403946  21.9843464  87.3699188
  34.8969727  23.2948666  86.6949463  60.6770172  25.4594193  47.7019424
  60.0306358  24.7535152  47.7130470  61.3590927  25.1691570  48.3075409
   9.4564934  60.9422035  52.3655357   9.1492710  61.4858017  51.6400375
   9.8531780  60.1805000  51.9428368  84.2456741  31.0750866   6.4971700
  84.3379898  31.9142628   6.9482694  83.7763214  31.2872219   5.6903620
  19.8482780   6.2349720  25.5115662  20.2900295   7.0832071  25.4717693
  20.1933689   5.8221145  26.3032055  12.0605106  59.4773636  28.0143528
  12.1363955  59.8631973  27.1416531  11.7227774  58.5955124  27.8578091
  59.2692146  47.1922874  40.8725624  58.8134270  46.3927612  41.1357079
  59.3541260  47.1177902  39.9220505  46.1020241  67.3303680  24.6948910
  46.9138947  67.6671143  24.3158092  45.7474365  68.0662079  25.1939220
  28.4190712  47.4155006   7.0319986  29.1744118  47.7551270   7.5119400
  28.1471214  46.6436501   7.5285087  16.6978245  42.0179405  49.9780693
  15.8489933  42.1329460  50.4052620  16.9455795  41.1149673  50.1767807
  76.6394272  19.5581684  88.3563919  77.3971176  19.6719685  88.9301376
  76.8230438  20.1193752  87.6030197  85.4009018  31.6328487  74.5500946
  85.0984650  32.2247658  73.8613281  85.9907608  32.1665001  75.0825577
   6.0033340  27.2888889  70.8663483   5.3838325  27.1536789  70.1492920
   6.6279526  26.5684605  70.7822800  36.9640656  46.2314682  89.3015671
  37.7896919  45.7552185  89.3896561  36.9047928  46.4375496  88.3686981
  55.1587486  41.4723244  37.2772522  55.3547897  40.5468521  37.4232140
  55.2499771  41.8755302  38.1405792  65.8230286  39.8092079  54.5170593
  65.3913345  40.6528625  54.3824234  65.3688660  39.4247169  55.2668152
   1.2034972  51.4902840  76.4441376   2.0103371  51.5891457  75.9386978
   0.5029898  51.6221466  75.8052826  73.1609192  39.1472473  49.5917206
  72.3762741  39.0120888  50.1230431  73.7107162  38.3863029  49.7785835
  56.3900261  34.8432655  18.0612106  55.6741524  34.7595825  17.4313297
  56.9133835  35.5745354  17.7332249   3.1540847   7.1590204  27.0188503
   3.9383006   7.5881286  26.6766453   2.9749007   6.4550858  26.3954697
  71.7459641  64.1532211   9.3996105  71.0942688  64.2870178  10.0878105
  71.4760513  64.7435303   8.6961126  10.7681608   3.7816117  23.3850937
  10.5384722   3.6966496  24.3104343  10.4346809   2.9805276  22.9810066
  85.7125854  47.9625816  70.3175812  85.3868179  48.8590775  70.3976059
  84.9419174  47.4138222  70.4630661  36.8892593  64.6870270  40.7861252
  37.2778778  65.5065384  41.0920868  37.1239662  64.6420288  39.8592377
  51.4437218  19.1305695  35.7297935  51.7454758  18.8204536  34.8759766
  50.5330276  19.3864346  35.5835190  71.3271942  39.7605896  28.0739460
  71.2171936  38.9808502  27.5297623  72.2744522  39.8915291  28.1161518
  49.4729424  40.5563087  37.6227913  49.9504509  40.8955498  38.3798447
  49.8879662  39.7143478  37.4354706  71.4932251   1.6835613  14.1179132
  70.8184280   1.0232892  14.2757616  71.1426697   2.4829640  14.5107155
  66.6664200  47.5670395  54.5374260  66.0547180  48.2797012  54.3525734
  66.6876526  47.0540276  53.7295914  59.8510895  12.7465668  49.3663216
  59.5375519  12.3444147  50.1763840  60.3082809  13.5372305  49.6527863
  12.0981169  23.0954418  65.0406952  11.9959993  23.0258350  65.9898834
  12.9718542  23.4674015  64.9204407  24.1476631  36.9452095  81.3061981
  23.9761848  36.0666504  81.6452560  24.7691746  37.3246231  81.9274902
  74.2027740   0.7025973   6.2943072  74.4597473   0.7030554   7.2163672
  73.3374634   0.2934267   6.2870302  67.6020203  36.1387482  11.0720110
  67.0276031  35.4227219  10.8007345  68.0047913  36.4438248  10.2590332
  57.4747849  16.9804268  10.6562376  56.8858528  16.2696304  10.4029388
  56.9729462  17.4928856  11.2900944  63.3204880  64.7070541  11.8988476
  63.1307144  63.7771492  12.0233641  63.5853729  64.7767258  10.9816704
  24.5758228  39.2652969  85.0272980  25.4508133  39.5887489  85.2417831
  24.3648720  38.6572952  85.7358627  25.5413818  46.6037178   5.9709811
  25.2319412  47.2927475   5.3830056  26.2613659  47.0076981   6.4553933
  76.9314728   8.1564465  83.3395157  76.2042694   7.8548431  83.8839722
  77.2351761   7.3690290  82.8878860  25.2602997  48.2406921  39.2660408
  25.6186275  47.4887924  38.7943611  25.6339912  49.0020561  38.8222923
  49.6688385  52.1993866  60.6870804  48.8404808  52.5349922  61.0297585
  49.9135475  52.8206062  60.0011940  77.8577499   6.4301181  12.6647930
  77.7852097   5.4823742  12.7777157  77.0365524   6.7764754  13.0139475
  16.5911255  41.5226593  87.7444763  16.0860500  42.1437759  87.2197495
  16.5489769  41.8714867  88.6348572  82.4026871  71.0471573  36.0366135
  81.6609192  70.5653381  35.6707344  83.0328903  70.3686905  36.2790146
  48.1293068  28.0568752  56.3165283  48.3646202  27.2172203  55.9217682
  47.8646660  28.6035709  55.5767174  68.5448990  16.6809216   2.6913280
  68.5521851  17.5645847   3.0591829  67.8766327  16.2170067   3.1957355
  84.6933365  62.4276886  44.7984314  84.2517624  63.1248856  45.2833710
  85.2418060  61.9923210  45.4510193  82.3090057  37.2018318  27.8272476
  83.2569122  37.2775040  27.7178211  82.1669769  36.2835312  28.0569935
  85.0429688  47.4278679  46.8813705  84.5246429  48.1218147  46.4739265
  84.3947372  46.7961922  47.1928406  51.8083038  65.9384537   1.2106446
  51.0644989  66.5406113   1.1908802  52.5528908  66.4856567   1.4604281
  58.3658562  36.5608864   9.0466881  58.2258606  35.6459351   9.2906027
  59.0164146  36.8788109   9.6727314  27.4488773  34.9723549  70.9665527
  27.1698380  34.8510208  70.0590057  28.1449375  35.6275902  70.9175568
  74.8685684  53.0609703   8.5828419  75.7255707  53.2670937   8.9560575
  74.4912338  53.9131012   8.3643942  63.5373383  67.4603424  75.5177383
  63.3814735  68.3933105  75.3710938  64.3509445  67.2767181  75.0481033
  61.3929214  67.5641937  79.7955399  61.4843445  67.2448883  78.8978043
  61.7280731  68.4603271  79.7663116  31.0949898  36.2013969   3.6680498
  30.2036171  36.3144951   3.9980445  31.5824585  35.8467712   4.4115863
  15.5909109  48.2661858  31.6823063  15.6440954  49.0967255  32.1551781
  16.4570484  47.8732529  31.7902031  43.1750183  40.6906776  45.8431129
  43.8669395  40.3392830  45.2827606  42.3691406  40.3060570  45.4983482
  34.7942696  16.0378323  74.6357193  35.3931732  15.5774441  75.2235870
  34.0611382  16.2956562  75.1945343  69.6019211  34.0396881  22.5715675
  70.3024368  34.6039047  22.2441998  69.5139923  34.2779961  23.4944496
   2.2578628  58.8816414  34.1409149   1.7034366  58.1406326  33.8964767
   2.1248434  59.5213165  33.4413757  26.6205235  70.1283951  85.9332123
  26.4630394  71.0009079  85.5724487  25.7542496  69.7224579  85.9650803
  37.8421021  37.3105278  61.6168938  37.1353264  36.7425537  61.9236679
  38.4437180  37.3665199  62.3592911  38.9354515  37.6331482  79.8686829
  38.4721794  36.9079132  79.4495850  38.9400940  38.3272133  79.2095261
   1.2894791  52.4041100  11.5415173   0.7321173  53.0808258  11.9257488
   1.3855264  51.7509193  12.2345867  57.3720016   5.2163334  32.3350029
  56.9682884   5.5060606  31.5168934  56.7168732   5.4074435  33.0062065
  86.7570801  45.1964493  81.0295029  85.9555893  45.1872673  81.5527344
  87.4634476  45.1318321  81.6722336  44.0130844  43.8959923  79.7393188
  44.8612022  44.2540283  79.4771347  44.2296829  43.1794815  80.3359222
  49.6847534  63.4244385   7.5863733  50.5651779  63.5037117   7.9535251
  49.7507057  62.7042694   6.9592857  85.6326447  47.8691902  62.9426308
  85.6241302  47.6623421  63.8771744  85.3320236  47.0663300  62.5168686
   0.0391036  39.4771004  40.8929176  -0.2658171  38.8795395  41.5756874
   0.7750270  39.0200539  40.4857864  82.9203568  59.5781937  84.1681290
  82.5653763  59.2402954  84.9903488  83.5269089  60.2689133  84.4350204
  66.2487411  15.9787455  41.8396454  66.9700089  16.3919163  41.3649940
  65.4809647  16.1313019  41.2887535  50.3820076   4.6125712  60.9147835
  50.6365585   5.5011544  60.6660767  51.1260605   4.0689292  60.6558037
  80.9753189  14.3681669  17.3882885  80.7031555  15.2487259  17.6466904
  81.3161163  13.9770756  18.1927376  21.2302685  47.4115410  35.1509590
  21.7186623  48.1465073  34.7801170  20.3849945  47.7862587  35.3986130
   1.9281237  50.6115952  13.5427198   1.8208629  50.4669418  14.4828272
   2.8712792  50.5406723  13.3955488  86.1073456  31.2517662  67.2419968
  85.4112167  31.8746433  67.4509583  86.4302979  30.9587650  68.0941010
  55.8459244  66.9362564  47.2851524  55.3161926  67.7209549  47.1442337
  55.8353882  66.8072968  48.2335663  59.1482697  29.2927189  61.7074509
  59.0600243  30.1096363  61.2164421  60.0909805  29.1941032  61.8408699
  68.3115616   5.0901546  62.7505722  68.8801041   5.8356118  62.5574951
  67.4369125   5.3835950  62.4953918  16.0602074  24.6343212   2.4700713
  16.6209373  24.8255424   3.2219021  15.9878120  23.6798973   2.4618762
  66.9200211  14.4809160   4.2643223  67.2763290  13.6958427   4.6801801
  65.9995499  14.4941082   4.5265927  57.7860718  56.7747688  27.1779842
  58.1064415  57.6471138  27.4073505  58.5300369  56.1954346  27.3426704
  81.2437057  39.6026306  29.2662563  82.0507050  39.0918427  29.2023659
  81.2922592  40.0206375  30.1259918   7.1790156  49.5648842  56.1590919
   7.3369856  48.6218414  56.1150093   6.7089949  49.7670708  55.3501205
  74.8559265  55.0188065  72.1070175  74.2063599  55.3355713  72.7346802
  75.1463623  54.1801682  72.4655685  60.1724472  53.7632713  77.2705078
  61.0837593  53.6628265  77.5455627  59.6614494  53.4327087  78.0093231
   0.8557803  31.3220177  25.9496555   1.5348163  31.7925434  26.4331303
   1.3270341  30.8810101  25.2427864  35.1435242  53.5859909  55.2323723
  34.5440292  52.8972893  54.9451027  35.9943542  53.3253822  54.8796539
  52.0697746  70.4278412  13.3270035  52.5204124  69.5833511  13.3247795
  52.5481415  70.9562683  12.6881304  72.1566696  53.6405411  44.3971214
  71.9527054  53.8911133  43.4961014  71.5460358  52.9296684  44.5921059
  58.2383003  11.0721378  81.7836380  57.4096489  11.4837523  82.0288849
  58.0750237  10.7037878  80.9153671  25.9296589  53.2446327  50.6352158
  25.4921341  53.3786507  51.4759521  25.5545006  53.9121857  50.0608788
  56.0152130  68.0618668  72.9113846  56.0135727  68.9740524  73.2014771
  56.0332489  67.5528412  73.7218170  21.8172798  50.8573647  12.3892975
  21.6053352  50.3946114  11.5786352  22.7557278  51.0347710  12.3254814
   6.7748356  44.3347740  49.5241203   6.3009481  44.8410301  48.8642998
   7.2781553  43.6956482  49.0197182  81.1305008  47.1014137  40.8295441
  80.7706070  47.7874641  41.3917198  82.0694733  47.1075439  41.0153732
  71.2752838  21.6867809  21.0078812  70.3683777  21.6301937  21.3087940
  71.3583679  20.9833126  20.3640938  74.7930298  38.0851135   1.6534439
  74.6651611  38.7558289   0.9826078  74.3955078  38.4556389   2.4414287
  41.1898727  42.7969093  85.2125320  41.4278374  41.9844170  85.6591492
  41.2950287  43.4760971  85.8787766  71.3230133  19.1487312  86.5654144
  71.5791321  18.9120598  87.4568329  70.7320938  18.4471912  86.2917480
  84.1360931  33.0067978   8.5297241  84.5435104  33.8061523   8.8633070
  84.4518738  32.3159676   9.1121969  52.3277550  13.4149237  73.4293137
  51.7489510  14.1458931  73.6458817  52.3989220  13.4403448  72.4750977
  28.1656227   4.6100154  86.0247879  29.0808125   4.8847599  86.0811386
  27.6802998   5.4220896  85.8790970  18.8557835  40.3728714  41.5881653
  18.6497364  39.8105202  40.8414803  18.1943913  41.0641251  41.5571098
  32.1482849  48.3039742  47.4381065  32.4934578  47.9221916  48.2451553
  31.1982269  48.2227631  47.5219536  25.7335644  50.8165131  63.6226845
  26.3681450  51.2382011  64.2020950  25.6137028  49.9425812  63.9943199
  64.6961899  29.3555145  82.1517715  65.5464020  29.7389469  81.9365082
  64.6479874  28.5637188  81.6160812  40.4328194  31.1291656   6.9975877
  39.6743736  30.9638062   6.4375420  40.6378326  30.2764454   7.3810806
  78.9881210  30.2528248  15.7568817  78.8232574  29.3108673  15.7148418
  78.2041626  30.6503334  15.3778963   5.2599030  35.1478577  69.5958328
   4.8212538  35.9908562  69.7105942   4.5679040  34.5559883  69.3007736
  10.2216225  50.2869568   2.6970525  10.9717569  50.4779243   3.2601359
   9.4850397  50.1969757   3.3016851  19.4651318  37.7793694  71.8602448
  19.4233570  37.3961143  72.7363739  18.5649967  38.0448265  71.6717682
  52.2444763  49.1809502  55.9472275  51.4070816  49.5750008  55.7028389
  52.5188942  48.6986084  55.1673088  49.9829102  58.1954002  60.0097122
  49.4232025  57.4280434  60.1285667  50.8443222  57.8336182  59.8015862
  29.9103489  11.2255478   4.8328614  30.6489410  10.7592859   5.2244115
  29.8228626  10.8448277   3.9590023  46.4308395  63.3426933  36.7089958
  47.0260201  64.0574570  36.4829330  46.3682404  62.8210144  35.9088898
  13.1937504  65.3663788  61.6603584  13.0140800  64.9501724  62.5033989
  13.3333006  64.6360245  61.0575790  49.8577576  67.3956985  25.7234707
  49.2320023  68.1145859  25.6348152  49.5831795  66.7566757  25.0658283
   2.9429796  64.2667847   4.6494999   3.4986145  63.4955368   4.5368843
   2.0552733  63.9484406   4.4855900  33.6770477  33.6731339  71.9196625
  34.0948219  33.8801308  71.0836945  32.9151802  34.2514420  71.9563599
  69.6560669   2.7619576  30.8433189  70.3442841   2.2138126  30.4663239
  68.8835373   2.5777576  30.3089924  81.3229523  62.2995682  81.1865311
  81.2790222  62.9930382  80.5281982  81.4973755  62.7595329  82.0076523
  45.1542282  16.4537773  41.4264679  45.5852165  16.0977879  40.6494522
  45.5172005  15.9488716  42.1541748  62.7562180  71.2311707  69.0060654
  63.3132782  71.7028198  68.3868256  61.9148979  71.1491394  68.5569763
  86.2439880   6.9636431  82.1105652  87.0387421   6.5304832  82.4219589
  86.4172440   7.8973107  82.2308884  53.6918526  38.5845337  10.4119225
  54.4551811  38.3740234  10.9497347  54.0597572  38.9330559   9.5998812
  50.6240845  44.2296333   8.0102692  49.8827286  43.6244469   8.0296421
  50.2782974  45.0186958   7.5930872  68.9495773  62.3701019  18.1640015
  68.1746979  62.1599884  17.6428089  68.9385452  63.3245621  18.2355042
  69.8966675  29.2456875  34.9592247  69.5745544  29.4120560  35.8451118
  70.4796143  29.9819927  34.7741165  11.6509218  55.0884247  62.4420509
  11.0245495  55.3132668  61.7540550  12.2977095  54.5342140  62.0053024
  36.3721008  38.8773689  35.4196472  35.7010841  38.9497337  36.0984192
  37.1880417  38.7458572  35.9025269  10.5774088   6.9395313   5.1683459
  10.0498257   7.6532698   4.8099260   9.9904213   6.4895573   5.7759643
  62.7112198  12.4282608  30.3053875  61.9810410  12.9053802  29.9111462
  62.3051720  11.6634989  30.7134266  73.7076111  14.7024002  59.3425026
  73.0512238  14.0347977  59.1432571  73.8733292  14.6030817  60.2799988
  60.8863602  62.4318695  53.9340782  60.4400101  61.8384972  54.5381584
  60.8979530  61.9611168  53.1007156  28.6676197  48.8517685   2.2317741
  28.3470936  49.7291451   2.4408317  27.8756447  48.3200912   2.1522329
  24.0400715  25.4580650  43.9787827  24.5517788  24.6716709  44.1684418
  24.3053532  26.0845966  44.6520729   6.7603326  17.9185085  77.6598282
   7.4388437  18.3161926  77.1142044   7.0949731  17.0440617  77.8588028
  10.9395523  17.9812794  14.6766033  10.6069069  17.1254101  14.4062910
  11.8768978  17.9450111  14.4860744  53.7391472   0.4924670  80.5759583
  52.8113670   0.3227198  80.4127350  54.1990700  -0.0833441  79.9651031
   9.7330904  66.1436768  11.8079166   9.6481447  66.9646835  12.2926455
   8.9564295  66.1139297  11.2492170  69.5669174  20.7278423  39.6706886
  70.1564178  21.4407463  39.4247513  68.9024811  20.7180023  38.9817352
  44.8808136  50.0533867  66.5713348  44.0984726  50.2702789  66.0642548
  45.6055794  50.4101791  66.0578766  70.7544785  33.6342049  46.8080444
  71.3460312  34.3845291  46.8655968  71.3152390  32.9073448  46.5370255
  37.0823555  61.7056656  20.5780087  37.5443878  62.5411949  20.6461811
  37.4627190  61.2838020  19.8075638  81.6240463  15.9525805  28.4895954
  82.2329254  16.6743584  28.3329639  80.8590775  16.3668995  28.8888302
   2.3179848  57.9554939  61.4914856   2.4178379  57.4935036  62.3238487
   1.7327781  58.6860199  61.6917267  31.2119484  43.0365410  11.5765181
  31.9889431  42.6462669  11.9767628  30.7158394  43.3923416  12.3137522
  18.6765156   3.1554401  76.7256165  18.4306545   3.0455589  75.8070831
  19.5682716   2.8114994  76.7776642  43.8069153   4.9104128  53.8036537
  43.4556770   4.3948178  54.5296211  44.4917564   5.4482083  54.2011452
   4.9829297  44.8231812  64.0297546   5.8737073  45.1717262  64.0653152
   5.0991740  43.8762245  63.9523582  24.8187447  20.0068302  71.0890808
  24.2746582  19.6595516  71.7959061  24.2474594  19.9989338  70.3210983
  21.3371887  44.5808258  40.9998703  21.7047100  44.2623672  40.1754074
  20.7634735  43.8738518  41.2952805  28.4063358  55.4981918  22.3813801
  28.9373589  55.0666695  21.7120285  28.1558800  54.7938881  22.9792557
  64.8478851  21.4687023  86.6790619  63.9313812  21.5001450  86.9534073
  64.8134460  21.2107887  85.7579041  82.1675797  20.0709286  20.6767406
  82.6777191  19.3996658  20.2235298  82.5887833  20.1550121  21.5321655
   1.9550760  33.2954597  87.2856598   2.3258803  34.0465050  86.8223419
   2.3760676  32.5350266  86.8847351  11.5813732  68.7679825  53.1828308
  12.5101585  68.5570908  53.2783127  11.4025269  69.3876572  53.8901100
  49.7004700  43.3537865  47.9552383  49.8338470  42.5132027  48.3932610
  48.7511101  43.4760475  47.9555473  59.8298378  16.6867695  21.8182106
  60.2928925  15.9060221  21.5144920  59.4333420  17.0528011  21.0276127
  78.6954269  53.6917801  24.5543880  79.3296432  53.8066826  23.8467159
  79.2249603  53.6845245  25.3517437  39.6658974  45.4538956   7.9027762
  39.8975601  46.3505211   7.6606479  40.3546829  45.1843109   8.5103407
  10.3007307  59.4136772  73.5050659   9.9532309  59.4207726  72.6131973
   9.5429955  59.6017799  74.0588608  82.3649673  47.7445221  83.9253769
  82.5189133  48.5894012  83.5026321  83.2315521  47.4610672  84.2167664
   2.8791423  22.8028564  53.3287430   3.1463187  23.5506878  52.7943268
   3.5246162  22.7702522  54.0348091  18.1252537   7.8971705  73.3952713
  18.2663898   7.4844775  74.2473221  17.2271557   7.6627307  73.1614151
  10.3272915  58.4844437  86.4369736  11.2657871  58.5561066  86.6110992
  10.2507915  57.7413368  85.8384933  44.5712929   5.3696365  45.2554550
  43.8324547   5.2881618  44.6523666  45.3113136   5.6075053  44.6968689
  15.8463202  62.8107185  77.1529236  16.4581165  63.3348999  76.6360321
  15.6655493  62.0457306  76.6067123  61.1294899  20.5648270  81.2642441
  61.5792351  19.9134769  80.7260056  61.5157280  20.4645271  82.1343002
  81.6595383  61.4641495   3.4937239  82.3776474  61.9336510   3.0693123
  81.5685730  60.6570778   2.9871752  53.5988312  33.7519684  61.1492310
  52.7395020  34.1098747  60.9263229  53.6400566  33.8050690  62.1040649
  85.3733673  18.6494274  24.9005661  85.5992355  17.7506943  25.1403484
  85.2420807  19.0948410  25.7375851  22.9427032  10.9884367  15.5380316
  22.1557903  10.5476685  15.2175236  23.1388130  10.5546179  16.3684368
  63.6206894  65.3781052  34.8966370  63.8074532  64.5461960  34.4615707
  62.9975815  65.8167496  34.3173599  70.9082413  60.3923111  30.3114643
  70.8121109  59.7116585  29.6453533  71.3885956  59.9664421  31.0214844
  29.8083324  13.5155840   6.4859586  29.7711792  12.7046204   5.9788198
  30.7223625  13.7935362   6.4265890  47.8356972  68.7763519  20.3582554
  47.7620773  69.6899109  20.0821819  48.7384682  68.5353699  20.1505089
  20.3911915   7.4200096  78.8488007  20.0294056   7.9150791  79.5838242
  19.8675137   6.6193414  78.8184204  22.3524590  53.6990585  64.1477280
  22.1537914  52.8383369  64.5164032  23.0208397  53.5270500  63.4844666
   7.3724771   4.5538363  72.7164536   6.7638392   4.9220338  72.0759659
   8.0815735   5.1946621  72.7689514  69.2918320  15.9039993  78.7457809
  68.9508133  16.7685471  78.5166550  69.5979462  15.5394773  77.9153290
  79.5301895  50.8458519  11.3566380  78.7250900  50.9119530  11.8701315
  79.5517349  49.9356728  11.0611057  34.0815201  36.7900162  76.8971786
  34.0243263  36.0730896  77.5288239  33.6697273  36.4447594  76.1050568
  18.4888535  41.7463684  20.3173790  19.1636982  41.4351501  19.7140903
  18.9694557  41.9939308  21.1072941  30.9415817  59.5239525  67.3680344
  31.7417316  60.0412712  67.2765198  31.1194630  58.9354248  68.1016693
  86.8604431  51.6918602   9.2857847  85.9053497  51.6298981   9.2994347
  87.1171417  51.6379700  10.2063475  52.8350754  69.8280945  23.8572769
  52.4071007  70.5983810  24.2310905  52.1324043  69.1846313  23.7654381
  22.7476654  59.9700127  10.9749355  23.3299446  59.4439392  11.5230503
  22.9607544  60.8757439  11.1996040  29.4700699  59.8415527  42.2133904
  30.3837967  60.1157494  42.1349487  29.5117569  58.9922638  42.6529388
  84.5059509  43.4363251  20.7821369  84.4591446  42.5791817  21.2056332
  83.8218079  43.9520531  21.2089901  13.8646727  28.8313313  18.0541210
  13.2609997  29.3338680  18.6011734  14.7263165  29.2015743  18.2457447
  75.9064331  70.0568848  31.7025814  76.6555252  70.4647217  31.2681179
  75.4133987  70.7908783  32.0691910  43.5628738  41.1151695   5.7353601
  44.4075012  41.5406265   5.8830857  43.6162109  40.7813683   4.8398361
  25.9937954  63.4174004  82.0839844  25.9991951  63.1421585  81.1672211
  25.7739506  62.6233330  82.5711746  30.2086582   2.1508908  67.6963348
  29.7539291   2.9781227  67.5377731  30.9643440   2.3918519  68.2321625
  28.5130329  41.2872925  83.1654663  29.4026527  40.9575691  83.0386276
  28.1693459  40.7740211  83.8966751  53.2588234   8.7808924  31.1453743
  53.6070976   8.1441584  30.5212688  53.9009514   9.4907522  31.1468239
  70.7854462  29.8188324  55.2434158  70.2552261  29.3267765  54.6165352
  70.3143234  29.7361221  56.0725327  65.5703888  70.3713837  55.0862007
  66.0860748  71.1764145  55.1333961  64.9000244  70.5546112  54.4279709
  71.0394211  13.4549704  15.1117887  71.7486420  14.0640926  15.3172321
  70.3090515  13.7445860  15.6585178  19.1604424  23.8658638   6.0246887
  19.9391594  23.8744221   5.4681287  18.7133656  23.0502586   5.7985377
  16.9305286   1.5988514  21.3034725  16.4785042   0.8261199  20.9646626
  17.1831379   2.0904326  20.5219555  31.8030758  67.8676910  45.6323471
  31.3037987  68.3539963  44.9762497  31.4728298  68.1890945  46.4713173
  84.2743073  44.7687950  82.7012939  84.1619568  44.6778030  83.6475143
  84.2447052  43.8715401  82.3692017  68.3762970  30.6636295   8.0692139
  68.5825348  29.8318501   7.6427860  69.1509247  30.8614788   8.5955639
  54.4498444   6.4989796  67.5962067  54.3468361   7.4505877  67.6041412
  53.5626717   6.1610069  67.7183914  83.2666855  13.9185648  26.2368908
  83.2426987  13.5076971  27.1010914  83.8110275  14.6967506  26.3566856
   3.8783109  48.9984589  84.4845200   3.6480372  48.3495903  83.8195572
   4.7686658  49.2675018  84.2584381  63.1190605  18.7900162  88.5112457
  63.7845955  19.2284565  87.9810944  62.4595833  18.5039291  87.8792038
   3.1507785   8.9841976  57.2586403   2.8559659   9.8779402  57.4334030
   3.4244752   8.9973021  56.3414993  59.9489250   6.3500471  32.7269745
  60.4921989   5.6338148  33.0557556  59.1026154   5.9430904  32.5415649
  21.3605061  37.6559677  69.4350891  20.6652946  37.5830498  70.0889969
  20.9132919  37.5427094  68.5963974  30.8142014  50.3034172  42.6412811
  30.5292969  51.1432648  42.2811203  31.7024040  50.1870842  42.3039436
  70.6726837  64.9667206   0.4359823  69.9307404  64.9191971   1.0388823
  70.9389114  64.0557480   0.3115414  77.7194443  46.9943886   1.9163177
  77.8405304  47.0502892   0.9684551  78.5961227  47.1245461   2.2778649
  71.7910538  15.0918026  51.6616173  72.7098160  14.9416924  51.4389725
  71.7720718  15.9820595  52.0127792  47.5565300   5.7230296  16.8828316
  46.8953171   6.1576662  16.3442059  48.2270317   5.4432659  16.2596207
  49.9999008  48.7617874  58.1945534  49.7388802  48.2831917  58.9813499
  50.9213257  48.9766808  58.3395729  85.1268921  17.9671803   1.2243818
  84.9195633  17.3408604   1.9179031  85.6447983  18.6441269   1.6599842
  56.6521187  42.2424088   1.3127048  56.9003334  41.4590302   1.8035593
  57.4786987  42.5820503   0.9697117  53.7449379  28.2886238  16.6016884
  53.9007225  27.5857182  15.9709082  53.1006241  27.9262772  17.2097969
  72.2765808  64.5081482  60.8032150  72.8084793  65.2098770  60.4278641
  71.4789658  64.9454422  61.1012497  69.7805176  15.4133081  11.5507183
  69.1258087  15.9352407  11.0868540  70.5800858  15.9376755  11.5064325
  39.2969933   4.9571266  49.0769806  39.5978699   5.8250136  49.3461952
  39.7745132   4.7787347  48.2668037  70.0634613  68.7016525  50.0299873
  70.6900406  68.4588776  49.3483086  69.3809967  68.0325546  49.9772911
  68.2715988  25.2565060  18.4064903  68.9552002  24.5907860  18.3307343
  67.7671356  25.1749763  17.5971088  45.1304054  62.2270050  62.3649902
  44.4581718  62.8398247  62.0670280  45.8910255  62.4209061  61.8171844
  77.1282730  53.8560448  20.8572102  77.3117828  53.0488243  21.3377876
  77.1656418  54.5440979  21.5216026  58.8133507   3.2879424  75.8570709
  58.9891968   2.3471513  75.8719482  59.6793900   3.6927412  75.8086472
  43.6718292   0.4274465  36.9577789  44.3118515   0.0042348  36.3855057
  43.1068764  -0.2861093  37.2542496  75.5598373  12.7345352  44.4525681
  74.7051544  12.4463491  44.1320992  75.4028473  13.6143055  44.7954865
  64.1596832  35.4327812  76.3364182  63.2318192  35.2224464  76.4415665
  64.3187485  36.1358910  76.9661484  27.2691212  29.0885086   1.3246435
  27.9233723  28.5225506   1.7343750  26.5564480  28.4961796   1.0849073
  60.7086411  10.5438375  39.2459564  61.2780991  11.2196846  39.6136246
  61.2548790  10.0956688  38.6001968  55.5910645  19.4719925  39.7885437
  55.4235153  20.1109333  39.0957870  54.7297935  19.2999878  40.1691475
  28.2251663  69.0694199  65.0456848  28.9800415  68.6521988  65.4608078
  28.3781223  70.0075989  65.1581955  40.7504692  54.1674156  75.8956528
  41.0429039  54.7267265  76.6152954  41.4398346  54.2455864  75.2361908
  30.1059608  36.9232941  85.4448624  29.2753792  37.2511787  85.7896194
  29.9127731  36.0283546  85.1655884   1.0364922  36.6561165  12.1633482
   1.5209029  35.9889526  12.6496334   1.5674853  36.8167229  11.3832951
  75.1688232  31.4714165  40.0797768  74.7079315  30.9674759  40.7504921
  76.0879898  31.2259293  40.1851349  71.5826797   4.1839614  69.6949081
  71.6621628   3.4887745  69.0417404  71.4184265   4.9759269  69.1830063
  70.1108856   3.3036733  81.4923859  69.5984039   4.1115942  81.4631042
  69.9312820   2.9373615  82.3582916  70.4799347  57.0505524  18.6665382
  70.1519699  57.6372299  17.9850101  71.0272827  56.4208031  18.1974335
  56.8996468  27.7008209  50.7479858  56.1674538  27.0874405  50.6856003
  57.2246704  27.7778416  49.8509598  46.7492790   8.8480330  10.6423130
  46.0629463   9.4852991  10.4446497  47.5108643   9.3800373  10.8729429
  59.3840599  27.0413380   8.0318232  59.8952408  27.7632961   7.6661711
  59.6211586  26.2844868   7.4959164  46.5318832   9.3630533  74.9637985
  47.1732254   9.2174301  74.2683105  47.0208549   9.8188667  75.6489105
  36.4875793  27.5725842  14.2594872  36.4413757  28.4549789  14.6275578
  37.3005066  27.5661144  13.7541752   2.9901645  40.2011452  46.4913406
   3.0600896  39.3304634  46.8828201   2.5066884  40.0596695  45.6774178
  62.7799454  62.0221062  12.5189829  61.9486656  61.5712547  12.3708630
  63.3672066  61.6670494  11.8516827  61.0856743  65.6494904  50.1310501
  61.0562630  65.7342453  49.1780624  61.5493736  64.8262024  50.2840881
  15.6738501  11.1965170  85.1887512  15.3586779  10.6646833  85.9195404
  16.5394077  10.8400154  84.9888840  84.8398514  23.7714691  33.8075447
  85.1634445  22.8774776  33.6966324  83.9148865  23.7230759  33.5660400
  68.2400665  46.5432625   9.5921059  68.6025314  47.4046249   9.7992373
  67.5130768  46.4355431  10.2053938  15.7218227  53.9805222  49.4625206
  14.9210463  53.9121361  49.9824371  16.3104897  54.5122910  49.9981766
  38.2645760  53.9858360  16.8009720  37.6917458  54.1874008  17.5408821
  38.8536606  54.7380142  16.7422791  61.9945068  11.3791876  67.1125488
  62.8166847  11.8537836  67.2350693  62.2125206  10.6765165  66.5002136
  14.7149086  27.5834961  67.1401291  13.9102507  27.0651531  67.1489716
  14.8150291  27.8547993  66.2276611  61.1512222   7.0518064  26.7685280
  60.3617783   7.5308771  26.5165253  61.7796059   7.7336807  27.0060387
  37.0973701  34.2202988  25.3621941  36.3072624  33.6809235  25.3944263
  37.7156982  33.7741661  25.9408760  44.3419304   2.0651922  51.9383926
  44.2652359   1.3847642  52.6072464  43.4538574   2.4097230  51.8442841
  83.5667953   5.8639231  68.1632462  83.9015045   6.6344323  68.6220703
  83.4957275   5.1929502  68.8421936  28.5051823  51.4422226  18.4956112
  28.1688709  52.1910057  18.9880047  27.9175167  50.7219696  18.7239094
  36.5414047  66.1237946  26.5051842  37.3900337  65.7210617  26.3211536
  36.5234642  66.2201538  27.4573536  40.6626129  48.9080963  83.9021301
  40.7116585  47.9526062  83.9314880  39.7291527  49.1026955  83.9858780
  68.4560242  65.8079453  83.5785522  67.7410202  65.1721954  83.5498657
  68.4760361  66.1050110  84.4882736  54.6290283  49.9839783  39.3959732
  54.0040474  50.3068810  40.0451012  54.1156845  49.3975677  38.8402481
  41.4440842  13.8283215  21.6497192  41.4466248  12.8867893  21.4772587
  42.1969032  13.9686594  22.2240028   1.7836572   6.8888092  79.2116852
   0.9707682   6.6291924  78.7780457   2.2630715   6.0691609  79.3323898
  59.5190735  36.0537949  21.4012260  59.8201027  36.3564491  22.2579727
  59.0169945  35.2610321  21.5900955  84.7627335   8.5942183  46.4260559
  85.4348450   8.1637449  46.9544334  83.9792175   8.5780840  46.9756737
  77.7051163   5.6479282  82.3803864  77.1115341   5.0146995  81.9767685
  77.8939896   5.2821283  83.2445374  47.7148094  45.3820953  34.5387573
  48.5202332  45.1407776  34.0812759  47.5024605  46.2541275  34.2060471
  69.6433182  69.9101257  53.3971558  69.9686813  70.6601028  52.8992615
  69.1240463  69.4111176  52.7666168   8.3176775   5.0774541  83.3656693
   7.4828758   5.5261116  83.5000000   8.1436558   4.1689644  83.6118317
  84.9815674  30.9104633  10.1102581  85.6872253  30.2723560  10.2155972
  84.2448349  30.5345669  10.5920944  46.0347900   1.3001741  59.5633240
  46.0004272   0.9681473  58.6662140  46.9568291   1.5153760  59.7039108
  62.7468605  29.8564644  24.1707020  62.3375854  30.4590034  23.5496769
  63.0705338  30.4200897  24.8734055  57.6561508   4.7925806  18.6709270
  57.9994583   3.9693565  18.3235474  57.4092522   4.5875711  19.5727291
  55.9381027  39.5676231  48.4585152  56.8429871  39.3660889  48.6968422
  55.9527092  39.6424332  47.5043564  72.9877243  68.5245667  34.1333618
  72.6896744  69.3753662  34.4551239  72.6863556  68.4929047  33.2253952
  43.6446495  62.3433189  18.4787159  43.5429382  61.9330254  19.3375206
  43.5622635  63.2814255  18.6501846   1.4240727   4.0684595  10.7616568
   2.2352176   3.8168404  10.3201094   0.7356453   3.8790312  10.1241484
  55.1048851  37.3887787  21.4551468  55.5594215  37.6385994  22.2596455
  55.8065720  37.2139511  20.8280125  57.4466171  42.1864090  25.8685799
  57.3419228  41.5880089  26.6083031  56.6213341  42.1201134  25.3882179
  37.0444946  35.3399239  12.9691286  36.8870735  35.3745918  13.9126587
  36.2847328  35.7760239  12.5833645  31.0921021  70.6879730   5.0428238
  30.2147903  70.3110275   4.9759493  31.2573261  70.7446671   5.9839501
  25.1755772  65.8943710  28.1193066  25.6486855  66.7022171  28.3187771
  24.2600479  66.1644135  28.0477734  55.5042953  23.3503380  69.3339996
  55.4051590  24.2883244  69.1709595  56.4001198  23.2569256  69.6580353
  19.5633831  52.8017387  54.0278969  20.0148487  52.0093384  53.7371826
  19.9905720  53.5107803  53.5472717  79.2234039  63.7096405  87.6822433
  78.4470444  64.2547455  87.5543671  78.8763580  62.8310966  87.8370209
   4.5159712  65.8190536  57.6883163   4.8076520  65.0885620  57.1428490
   3.6156285  65.9829483  57.4076881  43.5381203   2.6010530  15.9977064
  43.0373497   1.8793732  16.3780212  44.4102440   2.5166545  16.3830814
  15.4094353   8.0836649  85.5164642  14.5004654   7.9335175  85.2567368
  15.4191332   7.9204063  86.4595947  11.4080534  44.8797226  52.7992668
  10.6846457  44.8733711  52.1724701  11.7717037  45.7629204  52.7363777
  30.1914673  45.3915596  34.4020729  30.7914906  45.3029785  35.1425858
  30.6211624  44.9207458  33.6879807   6.8000674  42.7433128  77.5404053
   6.7340636  43.3589745  78.2703629   7.7124076  42.8043823  77.2573166
   5.7998123  70.0908737   9.2876520   5.3534384  70.9343491   9.2132797
   5.3228788  69.5140610   8.6909513  20.0151291  60.5436516  32.8326187
  20.0109406  61.2642555  32.2025833  19.1166592  60.2136154  32.8249969
  42.4490623  12.5087261  77.3381271  41.7371750  13.1293888  77.4937744
  42.7537460  12.2693205  78.2133865  55.8259926  47.1780281  43.4556198
  56.3440971  46.3792152  43.3571548  55.3786736  47.2784767  42.6153526
  16.9904423  58.8366318  87.8327789  17.7493610  59.3186798  88.1612778
  16.2397327  59.3806572  88.0709076  47.0320587   1.5853816  52.0747375
  47.2234917   1.7286122  53.0015984  46.1497154   1.9367311  51.9553299
  39.7284775  60.6978569  82.4760056  40.3457909  61.0082436  81.8135757
  40.0798874  59.8517151  82.7531052  81.4851456  20.1212387  50.2255592
  82.2689972  20.5540867  49.8872681  81.0021667  19.8548145  49.4432640
  69.5446167  42.5902672  40.8478355  69.7689590  43.1095276  41.6200218
  69.4513702  43.2337227  40.1453362   5.8027563   3.8284674  15.8592386
   5.6939559   2.8775852  15.8739796   5.2065601   4.1482844  16.5363655
   2.6825602  31.2703114  34.9161758   2.8903656  30.7948608  34.1118164
   1.9495840  30.7870235  35.2975044  58.3062439  65.8334198   8.7086954
  57.3872185  66.0282059   8.5251694  58.5003052  65.0655594   8.1711416
  40.6701546  30.1023178  72.8835373  39.9827156  30.7628441  72.7977371
  40.5412025  29.5234299  72.1322098   7.6452165  60.8205299  25.8551140
   7.7144985  61.7095985  26.2029495   8.3935604  60.7354698  25.2643700
  64.8693314  48.8467484  22.2915287  64.4557114  49.6079979  22.6985245
  65.4208450  49.2144432  21.6009750  12.5313864  54.6286163  13.7206812
  13.3091774  54.5145264  13.1745510  12.8707037  54.6719589  14.6146698
  58.8925056  45.1487541   3.9844351  58.7958488  44.3430557   3.4767497
  59.4021454  44.8886337   4.7517924  40.6634979  70.7305069  43.3597298
  41.5391693  70.7441330  43.7460518  40.1111412  71.1752853  44.0026169
  64.7337952  22.8272552  34.9966927  64.3829880  23.4128227  35.6677208
  65.0654373  22.0741329  35.4856262  53.2686272   6.0671182   1.0120941
  53.9097176   6.2312174   0.3204959  53.4116173   5.1535296   1.2593627
  48.9269066  14.4935150  84.6418381  48.9385529  14.2148342  85.5575027
  49.3212128  13.7636385  84.1643066  69.6481323  20.8834095   9.7361698
  68.8019409  21.3276157   9.6825142  69.7154922  20.6059761  10.6498022
  64.1760330  13.9006577  69.5457535  63.8799782  14.6483097  70.0649796
  64.1565857  13.1629457  70.1553726  34.9718552  40.8182487  20.3512344
  34.7362366  41.4645691  21.0168037  34.1381607  40.4245605  20.0939445
  36.3118172  49.1128731  37.4130135  36.5512314  48.2014351  37.5809097
  35.5202751  49.0578613  36.8775978  44.0153732  42.9409790  88.3331680
  43.4359818  43.6062965  87.9618301  43.4236984  42.2613411  88.6560440
  60.3687859  40.6078873  33.9729805  60.4212189  40.1116982  33.1561050
  60.3459015  41.5237961  33.6958199  22.2564087  50.3003349   0.3710168
  22.3562508  50.5671234   1.2848476  21.4215984  49.8325806   0.3479059
  39.8133125  67.0346146  64.2245102  40.0859070  67.9295502  64.0219879
  38.8573685  67.0756836  64.2513199  70.1133118  29.4293461  81.0745010
  70.3031158  29.2793045  82.0006180  70.6288986  30.2029552  80.8466187
  22.5759430  60.2914314  39.6921082  21.8311958  59.8170052  39.3226471
  23.2300949  60.2919807  38.9933128  38.4032097  32.6168709  78.0512238
  37.7642632  33.2834511  77.7989426  38.7838593  32.3243828  77.2230988
  66.0405502  12.4410534  34.0900650  65.7727966  12.0900431  34.9393768
  65.3732681  12.1268940  33.4799271   3.4447830  47.2939224  81.5186081
   2.8639083  47.8155670  80.9647980   2.8850491  46.5990677  81.8651733
  51.3828545  68.6312866  68.4759598  51.5077934  67.7377396  68.1562576
  51.1999817  68.5281525  69.4098511   8.4343662  49.0378494  46.6556091
   8.1353254  48.6588974  47.4821701   9.2730703  48.6091881  46.4851494
  32.8614998  61.8841820  79.4791641  32.4041481  62.5904694  79.9354706
  33.7236099  62.2480354  79.2776413  74.8680878  20.4268246  77.2804184
  74.8394547  20.6259460  76.3445969  75.3990555  19.6326370  77.3401718
  12.8916941   1.3732477  87.1340714  12.7825470   0.7421343  86.4227295
  12.1880674   1.1653094  87.7488098  15.2879162  25.9630947  59.6561279
  14.9968786  26.7867699  59.2648621  15.8979340  26.2274265  60.3447800
  72.8518372   8.6913633  51.8586617  73.0965881   8.7629032  52.7812729
  73.0682068   7.7892852  51.6227188  53.3117104  68.1417542  59.2332077
  53.6846924  69.0148239  59.3551216  52.7052841  68.0358810  59.9661942
  86.7799683  22.2208519  14.3505974  86.1976166  21.9901581  15.0743933
  86.7329025  23.1755676  14.3002739  61.1990509  18.5906143  86.5581284
  60.6767731  17.8259163  86.8003922  60.6572380  19.0593719  85.9233551
   4.7269549  56.5618057  51.2204819   4.0523677  57.0527649  51.6896553
   4.2581077  56.1371422  50.5020981  31.2290802   0.6890457  32.9626770
  30.4653301   0.9644104  32.4556313  31.2588177   1.2978879  33.7006874
  79.2718964   1.5917062  66.6272430  79.1644363   0.6411005  66.6593781
  79.7432404   1.8068048  67.4320984  66.9154892   0.8144910  53.4646225
  66.1151733   1.1411784  53.0535240  67.3088379   1.5870272  53.8704491
  47.1918793  45.9063377  53.5114861  46.6028252  46.6551552  53.4191818
  48.0676765  46.2919388  53.5343552  75.9883423  22.1747837   7.5290413
  75.6456909  23.0589294   7.6598263  76.1098251  21.8316116   8.4143133
  62.7420044  40.0199623  18.7526512  62.2288055  39.3261528  19.1667557
  63.5803604  39.6068764  18.5458813  65.1092834  18.9411106  47.7789497
  65.1465378  18.4450989  46.9611397  64.4290161  19.5978241  47.6299896
  21.1656933  55.0341492  34.0734749  21.0585308  54.9684219  33.1245651
  22.0957966  54.8635025  34.2218590  31.2542458  41.7958107  64.1402512
  31.2076855  42.4071617  64.8753128  31.0655613  40.9409637  64.5273819
  31.7191124  48.0229378  63.7560501  30.9179554  48.0447006  64.2794113
  32.3626366  47.5950737  64.3208847  74.8782654  52.3278084   3.2776716
  74.6665649  51.5815392   2.7168694  74.0614853  52.5208397   3.7379346
  81.1952515  58.4330826  20.7936916  80.9959030  58.5188751  19.8614197
  82.1508255  58.3921585  20.8315048  56.5582771  58.7649879  86.2646790
  57.3857307  58.6514397  86.7322845  55.9238014  58.9782677  86.9489136
  67.7612915   8.4116631   3.3770375  67.8093033   7.7410922   4.0584044
  68.6721344   8.5613136   3.1236649  43.5447044  57.2987175  69.4841080
  44.3621368  57.0490112  69.0531921  42.8641853  57.0978050  68.8416443
  77.7648697  18.2633343  47.1018219  76.9635391  18.1342659  47.6092033
  78.2462997  17.4420261  47.2013931  10.0911961  42.7353973  82.7966766
   9.3911047  42.1415939  83.0677872  10.8758879  42.1875610  82.7774582
  63.5680199  19.4217987   5.1893115  62.7928200  19.9831314   5.1749830
  63.4819756  18.9151630   5.9968691  41.5558281  43.6325798  72.7228851
  41.7020226  42.8563957  73.2636261  40.7025833  43.9630432  73.0039444
  15.3592472  23.2021561   6.1688557  15.3829908  23.8658352   6.8582020
  14.6532135  23.4854069   5.5878930   8.6190853  30.7381973  65.8624878
   9.2373257  31.4661388  65.9265900   8.8647280  30.1516266  66.5779037
  20.3559284  68.6448135  67.9790039  21.0349541  68.2135925  68.4978561
  19.5389824  68.2388763  68.2689133  26.1261101  63.4007683   8.1336861
  25.5472755  62.6392212   8.0986528  26.8071060  63.2139320   7.4874921
  50.8478966  28.4375496  74.3845825  50.6716919  29.3377914  74.1111755
  50.3456802  28.3298912  75.1923065  36.2283707   2.3074672  24.1621742
  35.4921989   2.0541494  23.6052952  36.3297844   3.2473955  24.0122356
  43.5549393  57.1774940  44.3601608  43.6353569  56.3323326  44.8022804
  43.2536240  56.9587860  43.4783401  46.5997849  45.8441620  46.4287491
  46.5752335  45.2897110  47.2086296  47.0307655  45.3053589  45.7652931
  37.4065781  68.4327850   1.7357920  36.7747192  69.1432495   1.8463478
  37.3927422  67.9676285   2.5722537  43.0523186  69.5416489  79.3544159
  42.7911377  70.4542999  79.2316132  43.1501427  69.1989059  78.4660492
  29.6922874  23.7151756   2.6249135  30.0899696  23.4133129   1.8082374
  30.4093647  23.7041912   3.2588792  23.8251076  44.1813622  25.8679466
  24.7633190  44.3578911  25.9374352  23.5679550  44.5771523  25.0352077
  43.4289970  33.3597641  62.7915764  42.6563644  33.4581833  62.2351723
  44.1612663  33.3067818  62.1774063  51.1254387  19.3428631  20.8404217
  51.7514954  18.6591358  21.0787468  50.3553352  19.1607342  21.3789406
  29.9460449  32.2145615  17.0783577  29.9519730  31.7051353  17.8887177
  30.7444687  32.7408485  17.1204529  82.0167770  45.3062973  17.3317127
  82.3490524  45.7097664  18.1336060  82.2004700  44.3730659  17.4392452
  78.9192886  23.6533508   7.6432357  78.8600082  24.1571159   8.4549866
  78.2879410  22.9427299   7.7557077  59.9411812  23.5324974   4.9104619
  60.1747322  24.0395432   4.1329069  60.2118607  22.6380367   4.7033315
  51.8047104  57.1919250  79.4910889  50.8847122  57.1972542  79.2268753
  51.8851738  57.9314041  80.0935287  14.8033056  34.4677887  15.5663795
  15.3816156  34.8507881  14.9067583  14.8082666  35.0997925  16.2852554
  11.5372305  25.2422428  87.5645523  10.6440887  24.9247799  87.4313431
  11.5266628  25.6262474  88.4412842  54.2743263  70.6126404  33.9210014
  54.5972748  70.4733429  34.8112411  54.0370064  69.7380676  33.6127243
  70.2552795  23.3836136  12.0657616  69.5666580  23.8424072  11.5845709
  69.8050308  22.9944019  12.8154440  60.7287292  50.5744286  43.2280655
  60.6399193  51.5273323  43.2100830  59.8814125  50.2491302  42.9239845
  85.7525330  53.3055534  32.8512459  86.5776443  53.7832718  32.7663307
  85.1171570  53.9703140  33.1169891  55.9567223  34.9294930  28.2010632
  56.6598854  34.6830368  28.8019428  55.9992256  34.2768898  27.5021114
  82.9763565  39.1233902  43.5603447  82.1908188  39.6473045  43.7174149
  82.6435089  38.2577477  43.3234787  34.2628708  37.8217278  22.1470184
  34.5709534  38.2313576  22.9554234  34.8342018  38.1765327  21.4659004
  14.9544535  36.0167580  31.9371777  14.1397228  35.6536140  32.2844124
  14.6719351  36.6663132  31.2933636  23.0299740  52.5191803  22.4473610
  23.7613907  51.9304848  22.6336460  23.1747360  52.8028374  21.5446892
  78.5460434  57.6267967  34.8076668  78.7444992  56.8131790  34.3441238
  79.3927841  57.9268036  35.1381989  53.3549728  34.1738930  21.7593765
  52.9101753  33.6323395  21.1073742  52.8309746  34.9736748  21.8041744
  54.0963974   6.7348251  40.9730759  53.8261261   5.8165860  40.9779091
  55.0388336   6.7062392  40.8080597  72.7717133  68.1620331  51.9824142
  73.0232391  68.3981781  51.0895538  73.1822052  67.3099136  52.1294518
  68.7798615  67.0450516  66.8002167  68.5052414  66.3237991  66.2340012
  68.3139191  66.8946304  67.6227188  62.7472382  48.4375153  69.5705795
  62.7073479  49.1762314  68.9631729  62.9173012  47.6781006  69.0132675
  13.0384302  37.5683708  68.0802002  12.2432270  37.2594681  68.5143204
  12.8246984  38.4557953  67.7920456  59.7116356  52.2477989  74.8553772
  59.9403801  52.5756912  75.7250824  60.5494766  52.1776695  74.3978424
  19.1715755   0.2002433   9.2343121  18.5447159  -0.2391240   8.6596498
  19.2933102   1.0639615   8.8401003  44.5383110  61.5403709  75.9321671
  45.3926086  61.9719009  75.9182587  44.5796890  60.9041824  75.2181778
  15.7633400  21.7821655  87.4723053  15.0104990  22.3635292  87.5794449
  16.0486794  21.5925999  88.3661041  16.0522118  43.7718506  59.4325104
  16.4472675  44.0063591  58.5927696  15.4584265  44.4965668  59.6285667
  47.5301399  63.9835854  64.8756104  47.1503410  64.4331284  64.1206970
  47.5452042  64.6461411  65.5662766  82.5715408  31.6677876  68.1064835
  82.2356720  31.3346977  67.2743301  83.3794403  32.1249352  67.8729248
  58.0680580  50.0172005  73.8986816  58.7580338  50.6050568  74.2062378
  57.2621307  50.3817482  74.2644882  53.5039825  39.0048714  74.4879684
  53.5303230  38.7318382  75.4050217  54.0307465  38.3511314  74.0282059
  52.4901199  30.8963623  27.5087814  52.4548950  31.3221092  28.3653622
  52.7127419  29.9858589  27.7028370  81.0163879  67.8012238  71.0920258
  80.7809753  67.8536835  70.1657104  80.9658966  66.8681488  71.2995148
   4.8190880   0.6556035  19.3801270   4.6263518   1.5526778  19.6527863
   5.3593655   0.3014350  20.0864544  68.0679092   5.1950583  26.5633106
  68.0887146   5.5467405  25.6732998  68.7153549   5.7136264  27.0409451
  61.9957047  67.5733719   8.2823858  62.6776390  67.1309967   7.7769113
  61.7304077  68.3107376   7.7327142  59.2407303  68.2864075   8.8678665
  58.9387054  67.3782654   8.8848572  60.1901169  68.2211838   8.7646952
   8.9543467  47.7721939  88.0292206   9.5918369  48.4284477  87.7478561
   9.3403845  46.9360237  87.7684097   0.8216281  23.2207699  84.1371155
   1.7223401  22.9316368  84.2832336   0.3185211  22.7982044  84.8332138
  52.6762085  11.4946041  70.9963531  52.7684326  12.3506918  70.5782089
  52.9482269  10.8693705  70.3245468  52.8545799  10.3375988  89.2926712
  53.2777328  11.1819229  89.1368179  53.0164452   9.8373013  88.4928436
  67.0598373  55.5171547  66.0033035  66.1031189  55.4888382  65.9923782
  67.3058777  55.0037842  66.7728195  68.4154587  47.7503014  66.8038406
  68.9446793  47.0649147  67.2117615  68.5749054  48.5270348  67.3400192
  28.2407990  16.5001640  84.1511536  28.7623386  17.0564060  84.7297897
  27.5085144  16.2092495  84.6946259   1.5441432  22.9666843  36.9464188
   1.5049857  22.0271835  37.1254082   2.3430598  23.2607765  37.3839951
  60.6158943   2.0169001  88.4942932  61.0729637   2.8210046  88.7407455
  60.9257698   1.3634591  89.1213760  76.3716736  48.0857658  16.2121563
  75.8564987  47.4602661  15.7026682  75.7455368  48.4662590  16.8281231
   9.2472773  52.4258919  54.0876961   9.6294403  51.6072998  53.7713280
   9.7073221  53.1091690  53.6001282  42.0169792  71.4907684  50.9155884
  42.7464867  70.8886108  50.7691231  42.0009575  72.0423355  50.1334419
  82.6819077  33.5372086  76.5232391  82.7246704  34.3653755  77.0013046
  83.2917862  33.6497726  75.7941284  59.7807312  33.7950592  74.7042160
  59.9254761  34.7334251  74.8256760  60.2090530  33.3872490  75.4568481
  57.0129623  54.0011520  43.5206604  57.4881020  54.5708008  44.1256142
  57.0922623  53.1270142  43.9025307  56.5435257  71.0806885  30.3934898
  56.3708725  70.1751633  30.6512547  56.7042542  71.5381546  31.2187920
  59.1363258  31.5691280  69.8590164  59.4813271  30.6782990  69.7987747
  59.7488708  32.0982590  69.3480911  39.0994034  49.3311043  75.5087051
  38.7738228  48.5311508  75.9213867  40.0147095  49.3867798  75.7832108
  78.9983597  45.7864113  26.0845566  78.1491089  46.1961288  25.9198151
  79.5855637  46.1859894  25.4428730  76.7743912  23.0239773  52.2957726
  76.7733383  23.7663288  51.6914978  77.0061035  22.2719116  51.7508507
  65.9285660  39.1523476  29.0339832  65.3314667  39.9003983  29.0450535
  65.9742966  38.8960037  28.1128807  72.3246078  60.4609032  11.3826637
  73.1907806  60.0535851  11.3906765  72.1480103  60.6662827  12.3007412
   2.6361966  33.1523743  44.7614365   2.7502275  32.2377663  45.0197411
   3.4308059  33.5888481  45.0685501   7.7766314  66.9548111  78.5729065
   8.4544878  67.5595398  78.2711639   8.0214920  66.7516785  79.4756851
  86.3552780  19.9406376  40.5199699  86.5413513  19.4805698  39.7014656
  86.0253983  19.2606049  41.1073112  70.3866272  35.7022133  25.4349842
  70.3642654  35.4202194  26.3494301  71.2328339  35.3946075  25.1101074
  48.2646713  58.7544823  79.5370789  48.4851418  58.9169235  80.4542694
  47.3341331  58.9694061  79.4727325   5.3770661  25.8538036  80.7772522
   6.2589698  26.2041473  80.9026947   5.1673684  26.0539227  79.8649979
  86.4104080  23.0348358  78.5730591  86.8265381  22.8614731  79.4174576
  86.4891891  22.2102280  78.0934219  66.6971741  58.0342331  15.4259081
  66.5009842  58.5672150  14.6554079  67.0201721  58.6600914  16.0741405
  10.2053385  29.6972961   7.8257799   9.8940763  29.8433056   6.9324551
  11.0254431  30.1882591   7.8769131   5.6793928  63.4167938  75.1967621
   6.3571095  63.1794968  75.8297119   4.8672166  63.4145050  75.7033157
  38.4568710  60.2030411  60.9346199  37.6430321  60.6966286  60.8332825
  38.9795532  60.7253036  61.5431213  46.8524017  53.6260414  77.3317108
  46.8056908  53.6141434  78.2876968  47.7715187  53.8114166  77.1391144
  70.8392487  44.3732529  29.3389130  70.6764603  44.9349594  30.0966873
  71.5662994  44.7944107  28.8803749  37.5221214  69.5396652   6.5680661
  37.2860794  68.7141571   6.1449261  38.2494850  69.3124847   7.1473432
  52.0342598  53.0062904   3.8924839  51.9806595  52.0590401   3.7657125
  52.5439415  53.3194847   3.1452451   2.4124761  59.6246529  77.2457886
   1.8930053  59.9441757  76.5080338   2.3723516  60.3308792  77.8906631
  77.6977768  54.5856552  74.1883469  78.3549118  55.2719727  74.0727386
  76.8776779  55.0599098  74.3253098  73.2745438  16.7713337  23.2846584
  73.8837204  16.3946075  22.6496658  73.8369598  17.1641636  23.9521961
  65.1513596  20.4469452  36.8057327  65.0628738  19.8569603  36.0571899
  64.3263168  20.3547459  37.2822075  67.2255630  20.0644588  72.4174576
  68.0922852  19.6873226  72.5684357  66.7140579  19.3470707  72.0433578
  56.6598053   9.1698895  63.9662361  56.1027031   9.9468575  64.0130615
  57.0792465   9.2273102  63.1077461  67.0199585  17.0532970  18.5748787
  67.3684769  16.5515041  19.3117447  67.7957382  17.3545265  18.1019554
  11.6130257  39.2039719   7.8847022  10.7687998  39.2216454   8.3354816
  11.6039734  38.3837738   7.3913217  69.4542770  46.1012802  56.7745705
  69.8359070  46.2652092  57.6369591  68.8466492  46.8284302  56.6393967
  37.4456482  43.9161034  21.4136143  38.0220566  43.2504768  21.7890091
  36.5892792  43.4912987  21.3645916  46.5926094  30.2044849  41.9984360
  47.1639366  29.6543522  42.5343208  46.9313698  31.0914440  42.1199951
  86.4004364  31.7835369  77.2163467  86.9108963  30.9774303  77.2928925
  85.5801239  31.5916405  77.6707611  27.2032852  11.1675825  68.0493774
  26.9528694  11.5191555  68.9037323  26.3758755  11.0727434  67.5775452
  67.8500214   5.3925757  66.8401184  67.5568466   6.2980924  66.7385254
  67.1091690   4.8658810  66.5401764  13.8796377  24.1569195  10.5060101
  13.2947321  23.7389259  11.1379900  13.3349752  24.8153000  10.0746069
  28.4988155  32.2524605  68.1297226  29.1484528  31.6029739  67.8607025
  28.9264565  32.7422104  68.8322144  13.1471272  68.5140228  17.8735161
  12.2840929  68.1075745  17.7947693  13.7631369  67.8079758  17.6779175
   3.7776880  37.4806633  29.4483261   3.8847079  37.8369560  28.5663757
   3.8220122  38.2452316  30.0225239   1.5969974  28.3572750  60.9634781
   1.0995476  28.2675972  60.1506233   1.6120960  29.2993393  61.1323509
  11.3926830  57.7169991  43.0862083  12.2719173  58.0884857  43.0142593
  11.0470829  57.7450256  42.1940155  29.5455799  68.5625839   4.6716137
  29.3136044  68.1463089   5.5017543  28.7402134  68.9945831   4.3870187
  33.1344757  66.1905441  49.6496429  32.6160851  66.9907150  49.7346764
  33.8781471  66.3233490  50.2374763  72.6459351  49.4896622  68.4042130
  72.7516632  49.6506119  69.3418427  71.6996231  49.5137787  68.2622681
   2.0933874  12.5799932  50.9114265   2.5938540  13.0006018  50.2122459
   1.9406594  13.2770910  51.5493622  47.1475983  38.9422569  39.2631493
  47.6913223  38.8098831  38.4865761  46.3623848  38.4204865  39.0975380
   8.5517302  38.6723518  35.6706047   8.4761438  37.7836456  35.3231621
   8.7920799  38.5507851  36.5891266  60.6603317  33.5492439  56.6889877
  60.2075729  32.7147026  56.8105927  60.8149757  33.8695488  57.5776520
  55.9128380  18.0100098  26.7675362  56.2059135  17.1165924  26.9468288
  56.4859772  18.3133373  26.0634518  56.1242256   1.2953446  61.8482857
  56.7973213   1.8732237  62.2077751  55.7219238   0.8895067  62.6161919
   8.4327555  48.7623138  84.9263153   8.2315426  48.6334877  85.8532181
   7.9583926  48.0617485  84.4786301  72.0810852  63.6680679  45.5331306
  71.9303055  62.7987862  45.1618538  71.8870163  64.2717285  44.8160782
  14.9526634  54.3895340  15.4214668  14.9355221  53.4360771  15.3386726
  15.5012035  54.6832848  14.6941118  40.6687126  16.0657635  62.6844330
  40.4111557  16.9556828  62.9251404  40.1633987  15.8756924  61.8940125
   3.8514633  65.8371429   6.6436677   3.4285238  65.3170013   5.9604359
   4.1510415  65.1924057   7.2846069  51.8614426  43.6265907  55.3895950
  52.5431976  43.0328102  55.0751648  52.2786522  44.4880524  55.3965225
  66.2163925  24.0309811  46.3066559  66.6640549  23.2730827  45.9305992
  66.4422913  24.0055542  47.2364693   6.2648878  47.3266411  51.3112717
   5.5784035  47.9936523  51.3029327   6.8651676  47.6093597  52.0011749
  52.6294060  24.3766289  15.7293291  52.9613228  24.2459488  16.6175785
  52.2318153  23.5376530  15.4963636  65.5521240  58.0020714  84.5300903
  66.2468872  57.8334846  85.1665802  65.0314713  57.1988678  84.5254822
  34.6397171  70.6284790  19.0197544  34.1958656  71.2322845  18.4242249
  34.8673477  69.8766479  18.4727955  84.0326614  43.4959221   6.5988069
  83.5135498  43.5306129   7.4022670  84.9120865  43.2573738   6.8919611
  58.2475929  22.9245834  69.7789688  57.9817467  22.0876255  70.1598282
  58.9665527  23.2234993  70.3357239  32.5844307  59.3363838  30.2722130
  32.1323280  58.8314705  30.9481544  32.2370110  58.9971924  29.4473000
  43.0313911  67.2776184  11.9874668  43.3053513  67.7830658  12.7527761
  43.5325356  66.4641724  12.0457420   8.7568121  28.9561272  67.9410858
   8.5596581  28.0354500  67.7686996   8.3557482  29.1316452  68.7923050
  13.1053724  38.8846779  63.7340164  12.4245005  39.2515182  64.2979965
  13.3429031  38.0572205  64.1524963  28.6263523  58.2321663   9.5152435
  27.8987217  57.6412964   9.3211832  28.7183418  58.7660675   8.7261171
  60.6206245  57.9200706   3.9302821  61.3680878  57.3851891   3.6630177
  59.8566780  57.3743744   3.7436557  23.8205223  50.7378273  86.6262665
  23.8770275  50.6561356  85.6742401  24.1199703  51.6285477  86.8084183
  64.5510254  15.1617985   5.9271717  65.1514435  15.7096853   6.4326911
  63.6877975  15.3491020   6.2959342  32.1706314  59.4256477  51.1559181
  32.9480209  59.0619469  51.5797386  31.7751923  59.9874535  51.8224258
  37.4637146  47.5405235  86.6388626  36.8430290  47.3021698  85.9502563
  37.6141853  48.4772606  86.5119247  51.1858940  63.1310081  30.0207462
  51.1570930  63.5436211  30.8839684  50.4460297  63.5124397  29.5481548
  59.1505775  63.0050316  46.5777588  59.7037773  62.5699120  47.2265015
  58.4258881  63.3688698  47.0863609  24.5504036  45.6364975  32.7504692
  25.4202156  45.6704254  33.1486015  24.0751572  44.9867096  33.2682991
  29.7285137   8.5621424  87.1223679  28.8723431   8.9380264  87.3270950
  30.2724762   8.7788029  87.8796005  77.6650925  41.5937080  19.3469315
  76.7406464  41.7188644  19.1325321  78.0622101  41.2941704  18.5291214
  20.6667576  16.4050179  58.1323662  20.5285168  15.6025324  58.6354942
  21.5894661  16.3733463  57.8797035  27.9614315  44.7315598  28.3403111
  27.1649628  44.4365196  27.8989239  28.0656013  45.6418495  28.0632763
  48.6935730  18.4140129  61.1596832  48.1918106  18.9451618  60.5413399
  48.5033493  17.5101776  60.9084244  84.2956314  51.1887093  26.8954983
  84.9067307  50.9935722  26.1850643  83.4956284  50.7193642  26.6589794
  76.4121780   4.6632929  79.5175171  75.9696121   5.5020776  79.3878555
  76.2639542   4.1856041  78.7013855  37.1624718  35.4532280  15.7765875
  38.1061134  35.3945618  15.6271744  37.0422173  35.1419449  16.6737347
  34.6458893   8.2310228  43.9325371  34.8480568   9.0301161  44.4191704
  34.7019882   8.4900532  43.0127640  52.7594070   9.8939514  52.5185432
  52.4609184  10.0099297  51.6164970  52.0858955  10.3182602  53.0501213
  57.1205750  18.9959641  68.4052429  56.5322151  18.2432461  68.4642258
  56.7527466  19.5330620  67.7034836  73.1858978  26.8353176  20.7357521
  73.6128540  27.6759357  20.5705299  72.9286346  26.5227737  19.8683643
   4.6716800  37.1013870  15.3642416   5.6092296  37.2909622  15.4002028
   4.4867768  36.6502419  16.1879597  81.8406372  22.2558498  77.5709839
  81.6218643  23.1240101  77.9096146  81.0356522  21.7484436  77.6747665
  10.0638924  14.5448875  78.1606369   9.6396494  13.6907501  78.0787964
   9.4175425  15.0915213  78.6074677  68.8838654  14.7806072   6.1544127
  68.4823608  14.0481892   6.6219492  68.1455994  15.2517300   5.7680950
   3.0642455   6.3075123  86.1040268   2.2058907   6.4567251  85.7075500
   2.9071047   5.6390786  86.7709122  49.7359543  13.5632830   5.6110163
  48.8979607  13.4031477   5.1770153  50.1699677  14.2152128   5.0606990
  13.4700785  10.2244043  77.0762558  13.1119375  10.8091354  76.4083786
  13.3197422  10.6838675  77.9024048   7.7647743  32.8322601  34.3335686
   7.8826790  31.8855553  34.2555923   6.9729424  32.9322891  34.8619881
  45.4176598  14.2541161  69.6738586  45.9521065  14.4256144  70.4492264
  44.6911621  13.7210875  69.9968414  15.9927921  64.7559052  79.9408417
  15.8119049  64.1540222  79.2188721  16.1831532  64.1859055  80.6858902
  48.0997162  15.1942682  70.4744797  47.4297867  15.6564894  70.9782486
  47.7988396  15.2506437  69.5675430  60.8011322  53.7382240  86.5834961
  60.8068161  54.0769234  85.6882401  61.3822365  54.3263931  87.0657883
   0.8969932   5.2074332  18.1367989   0.9676120   6.0123930  18.6499119
   0.6374175   5.5018868  17.2637882  69.5497437  14.5777245  84.7610703
  68.6499557  14.8361502  84.9606628  69.5467682  13.6233654  84.8347092
  59.7685547  19.0517979   3.3066714  58.8812408  19.0634918   3.6655221
  59.7627678  18.3309040   2.6769805   6.8668523  65.0878220  61.2845001
   6.4999914  65.2705841  62.1495094   7.1621776  65.9402771  60.9646034
  34.0065308  58.8457603  61.4395409  34.4580917  58.1954575  61.9775276
  33.2542496  58.3769989  61.0781975   1.7525134  70.0327988  87.8406677
   0.9075912  70.4804001  87.7961044   2.3942130  70.7392273  87.9142227
  32.1273613  27.7211151  83.0398331  33.0326347  27.9629936  82.8443680
  32.1976509  27.0865517  83.7530136  22.8756371   3.9397235   5.2795448
  22.3341713   3.1735108   5.0898991  23.2030449   3.7881229   6.1661410
  16.5960808  14.2601738  88.9254684  16.8950634  15.1449852  88.7158279
  17.0887794  14.0205507  89.7103653  54.3151131  65.7797928  65.9617081
  54.3332024  65.7480316  66.9182053  53.5604668  65.2435226  65.7184830
  80.6427536  67.9548721  44.6826782  80.5127182  68.7409515  45.2131577
  80.7002411  68.2792358  43.7839470  61.2132072  43.0867653  52.9343033
  61.9366646  43.4221954  53.4637642  60.7528000  43.8703728  52.6339531
  58.8295021  48.3777657  54.8932076  59.1028976  47.4606514  54.8735619
  58.4226875  48.5247650  54.0393219  41.1685600  27.4888878  80.0939255
  41.3448601  26.6129265  79.7506409  41.9907188  27.7546711  80.5058060
  63.9709892  28.0685863   9.6452131  64.7517929  27.9457130   9.1053305
  63.8583641  27.2324162  10.0972843  70.1827698  65.0124130  87.0393448
  69.7030258  65.8394470  86.9935837  70.3362808  64.8759842  87.9742508
  70.6873245  12.0058756   4.4328666  70.7308426  11.1521711   4.8635960
  69.8413086  12.3657293   4.6993055  35.2873344  71.7484207  44.0858994
  35.1800385  70.8129196  44.2578278  34.5638962  71.9686050  43.4990578
   8.1959200  23.5303497   7.9277306   7.8022013  24.3329029   8.2699671
   7.8152280  22.8312473   8.4592962   0.7391927  57.7631378  40.9813805
   1.5345509  57.2808838  40.7554016   0.3042781  57.2151337  41.6346588
  76.4020996   7.6790433  56.0703316  77.1257172   7.0524840  56.0651360
  76.6991196   8.3926640  55.5057487  40.5952377  60.2598228  38.1506691
  41.4861565  60.4389954  37.8500137  40.6917458  60.0644112  39.0827293
  20.2129803  52.7166786  60.0411682  20.2038517  53.5554695  60.5022316
  19.3411903  52.3511810  60.1916008  62.2369843  44.2226448  65.5758209
  61.6418266  44.9586258  65.7184753  61.9790802  43.8674545  64.7251968
  64.1452103  52.8907471  49.0355949  64.7256165  52.3103600  49.5280495
  64.6434402  53.7023811  48.9393959  40.7810631  59.4339676  26.7046528
  40.3271065  60.0046844  27.3246861  40.1347351  59.2621574  26.0198345
  47.5605888  22.2936954  84.4604340  47.8854523  22.3724289  83.5634995
  48.3315163  22.4414139  85.0082321  21.0972271  64.3372650  70.1034241
  21.2700195  65.2227859  70.4231491  21.5620003  64.2892990  69.2680130
   2.3727429  32.0126915  16.9666367   1.9277859  32.8198471  16.7082825
   2.1522472  31.9031773  17.8916340  15.0412836  13.6024218  84.6004562
  15.7857466  14.1673946  84.8073654  15.3399458  12.7210360  84.8244858
  60.4490776  48.9775505  35.0565262  59.7924423  49.4373436  34.5334091
  61.2602234  49.4617577  34.9022026  69.4831543  63.1251526  41.4925919
  69.8398132  62.3119507  41.1352005  68.5948639  62.8970184  41.7666893
  68.2279816  26.7561302  15.2604322  68.0501480  27.3016224  14.4942446
  69.1643372  26.5650024  15.2062511  56.0050659  37.7571411   3.3180654
  55.9331512  37.1157951   2.6111462  56.3608627  37.2616463   4.0557141
  16.4932919  18.2064724  68.7995529  16.4898453  18.5342789  67.9002380
  16.3704529  17.2613773  68.7104568  82.2812195  33.1520386   5.0769439
  81.9259949  34.0408592   5.0701647  81.6237869  32.6278648   4.6194983
  41.6183281   3.0092850   2.1178365  40.9017525   3.1747365   2.7305155
  41.8278923   2.0831776   2.2388346  59.7102547   5.8989501  52.3871918
  59.4822388   6.4559898  51.6429176  60.4479561   6.3450813  52.8031197
  36.4355965   5.6721544  15.7757969  37.3168564   5.7625604  15.4132462
  36.5490112   5.1130366  16.5444050  26.0361004  53.5998955  45.8699036
  26.5366058  54.3453560  46.2015839  25.9688110  53.0051689  46.6169014
  51.6097145  26.1612072  30.9491043  51.0846481  26.4978275  31.6752071
  51.5777130  25.2100067  31.0511971  25.9900017  32.2056007  70.4491653
  26.2098160  32.6823997  69.6488037  26.0879421  32.8524780  71.1478729
  20.9305534  45.4136429   2.5996120  21.0175896  44.5389824   2.2206347
  20.8730183  45.9976768   1.8434205  69.9819412  13.3801184  69.8532867
  70.0632477  12.5522146  70.3267822  69.3545074  13.1956739  69.1543350
  30.9146290  48.0033684  33.2255173  30.3365059  47.2417793  33.2700691
  30.7213020  48.4977455  34.0220413   7.3937707  63.5221138  73.1147385
   7.9841838  64.0872879  73.6129532   6.6349816  63.4052010  73.6864014
  27.3690872  53.3447914  56.9787598  27.0389481  52.4844971  57.2378616
  27.3475246  53.3313675  56.0218964  37.6695824  23.6837959  63.6284332
  38.6006393  23.7651711  63.8351784  37.5451469  22.7523098  63.4465446
  81.8293152  17.2378979  37.1137810  82.3116684  16.6073608  37.6485596
  81.8313065  16.8578987  36.2352409  83.6938934  44.5916023  76.6258316
  83.4040680  44.3342781  77.5010605  84.6098480  44.8443451  76.7415009
  75.8218155  41.3285675  87.0298615  76.5772400  41.6776657  87.5028229
  75.3147278  42.1022797  86.7839737   6.2435083  30.9085102  23.4888535
   6.8467183  30.9571381  22.7472305   5.4000258  30.6820545  23.0970783
  20.7088585  65.3266068  77.0789948  20.3702965  65.0704575  77.9368896
  20.6950378  64.5191116  76.5652008  34.9025536  27.6280708  68.5977020
  35.0434036  26.9603348  69.2689133  33.9509888  27.7169800  68.5442734
  71.0268173  15.3535900  59.2772255  70.7396622  16.2222824  59.5585594
  70.6280365  14.7537098  59.9075890  61.3458138  11.4054995  81.4477463
  61.2419243  12.3568716  81.4659271  60.5900497  11.0727415  81.9318161
  63.2701340  59.5682907  36.0858116  64.1614075  59.2696266  36.2665520
  62.9535522  58.9775925  35.4023781  79.3812027  47.9628334  49.7630424
  78.8122940  47.6518478  50.4672203  79.3652496  48.9163284  49.8456726
  45.7646904   7.7696729  36.2580605  46.1979980   6.9221511  36.1571579
  45.0655174   7.7605419  35.6043739  51.4570084  70.3574524  44.9005585
  50.9100189  69.9952164  44.2035446  50.8672371  70.4386749  45.6500931
  52.5151062  46.6624069  35.8618164  52.5092354  45.7275696  35.6562004
  51.5906601  46.8934937  35.9525642  74.4535828  44.1465340  73.0587540
  75.2041855  44.7402344  73.0401001  74.8390884  43.2761307  73.1588211
  30.1463985  38.3793564  22.7800369  29.2185726  38.3796349  23.0153427
  30.4605408  39.2443390  23.0433846  24.5387192  11.3817892  76.9333801
  24.1040955  10.6275644  76.5352859  24.3405495  11.3072395  77.8668671
  76.4772263  24.6262341  64.9290314  77.3893814  24.4322567  64.7132339
  76.1068497  23.7815666  65.1851425  75.2567596  36.6745834  75.8384933
  74.9845428  36.9805832  76.7036514  74.5913544  36.0324440  75.5912552
  58.9400139  40.9560318  30.7502651  58.3263626  40.9872665  31.4842205
  58.7888336  41.7740173  30.2766914  48.7455597  59.1546516  86.6192322
  49.6294060  59.1798172  86.2526093  48.3804474  60.0175858  86.4236069
  50.4262390  14.7168045  57.0808296  50.7102661  15.5583687  57.4376602
  51.2187920  14.3382206  56.7003517  84.6894913  13.4163294  38.1866989
  83.9173431  13.9213905  38.4415131  84.4140472  12.5027981  38.2630081
  39.1978836  21.1641865  80.5794373  39.4688988  20.2587948  80.7312622
  39.1299553  21.2374420  79.6274719  42.5869217  70.9333954  14.9540329
  42.7955170  71.6240616  14.3249826  41.7772026  70.5446548  14.6231699
  69.9715576  39.7522163  24.4017525  69.0798950  39.4557076  24.5841312
  69.9458771  40.6967583  24.5547733  23.4630184  45.5952377  23.6506233
  23.2628784  46.1415367  22.8905334  23.3561516  46.1801338  24.4007645
  58.2432594  65.6959229  35.3741989  57.3520241  65.4626389  35.1143646
  58.1300201  66.3994827  36.0132637  76.8246155  15.2545280  21.8951130
  77.3900146  15.7169123  21.2764339  77.2657242  14.4181147  22.0436764
  52.2362328  42.3976593  20.1219482  52.5093193  42.3452721  19.2060280
  52.4361763  43.2973557  20.3804111  74.6431961   3.2243040  26.0142193
  74.3331833   4.0355363  26.4167423  74.6406021   3.4069269  25.0746059
  37.7346077  26.4792461  19.6282253  38.0355835  26.7756863  20.4871597
  37.5595207  27.2862434  19.1441479   0.9019010  41.4212456  26.1870441
   0.7100063  41.7687111  25.3160248   1.1626421  40.5136032  26.0307350
  51.3247070   5.7869134  28.7895737  52.1330986   6.2940674  28.7152157
  51.0018120   5.9786382  29.6700344  20.1321125  42.1755943  54.1270103
  20.5008087  41.8810844  53.2942085  19.2123947  41.9132576  54.0878944
  47.6061058  18.7731876  26.2153702  48.5571404  18.7315598  26.3155022
  47.2989082  19.1939182  27.0183926  73.6251602  29.2556458  35.1324120
  73.6599960  29.9744930  34.5013199  72.9224091  29.4996090  35.7347870
  27.0147514   1.8137262  75.3740997  27.2281151   0.8917080  75.5175934
  27.5098133   2.0551028  74.5912323  74.7274628  30.5875206  73.0396652
  73.9611206  30.8693123  72.5401154  75.2079315  31.3960457  73.2176056
  47.0948372  51.2159996  65.3832016  47.0461426  52.1310349  65.6599197
  48.0289612  51.0083160  65.4058380  49.1929054  24.1694660  75.3827133
  48.6356850  23.3916416  75.3557739  49.3627014  24.3103123  76.3141403
  51.3274612  23.0805817  45.5077934  51.3016739  23.8792267  46.0347977
  52.2294388  22.7701817  45.5872993  20.2783985  15.5016794  29.7661724
  19.3928699  15.1391830  29.7403965  20.1520081  16.4284172  29.9696770
  82.0772324  35.0552330  86.7136230  81.8436432  35.9709892  86.8654785
  82.3713379  35.0308876  85.8030548  67.8444519  26.9873104  38.7544022
  67.7167969  27.0967636  37.8120880  68.2564774  27.8038635  39.0367317
  24.4465580  40.8278236  21.5961266  24.4431343  39.9396667  21.9530602
  23.9720135  41.3482857  22.2443237  39.3661957  55.0179977  36.4812965
  38.6246262  55.6232147  36.4855423  39.2557373  54.4982605  37.2774773
  24.9461422  59.1598969  81.5104904  25.8024502  58.7327271  81.4883041
  24.3514500  58.5252380  81.1107712  65.5147324  28.2683239  19.4606342
  65.2713547  27.3438816  19.4115906  65.7820740  28.3976669  20.3705978
  27.0267887  49.7442589  49.6263313  27.3960991  48.8855057  49.4204597
  26.0960484  49.5757561  49.7731628  27.0361881  69.2416382  22.2345657
  26.9871044  69.2770386  23.1898499  27.7930508  68.6841125  22.0541248
   8.1452246  63.6931725  26.7397861   8.7475386  63.5173569  27.4626541
   7.8043776  64.5693436  26.9197407  49.9218979   3.1617248  73.3882370
  50.5175591   2.8273480  72.7177048  49.4783669   3.8988633  72.9685440
  49.4300766  60.5687828  38.8653374  49.7084389  60.5838699  39.7810478
  48.8411217  59.8165283  38.8064003  36.0404091  54.8570633  78.6382751
  35.2320213  55.3595772  78.7393570  36.5345192  55.3303528  77.9688797
  73.6595688   0.5308903  23.5845947  73.9660797  -0.3672287  23.4594440
  74.0098190   1.0103164  22.8337898  44.6297302  36.2973366  85.9722214
  45.3622398  36.4651299  86.5651093  45.0374336  36.1856117  85.1134338
  76.3689804  10.8171597  19.4963074  76.5351105  11.6584463  19.0710220
  77.1228561  10.6865435  20.0714951   8.3481550   1.7006224   6.4524455
   8.2047291   2.4416144   5.8637252   9.2550125   1.4394979   6.2922721
  57.3481941   8.7986002  68.7327881  57.8690414   8.2515888  69.3207703
  57.7395287   8.6627703  67.8698654  41.4803238  55.1189346  30.3411026
  40.6417313  54.6603889  30.2888565  41.3401871  55.9307289  29.8536739
  76.6747208  27.5443993  75.6715698  76.8109055  28.4047470  75.2747192
  77.4895172  27.0711937  75.5029831  77.1670456  47.6774712  77.2256622
  77.6558762  47.3881569  77.9961014  76.2838516  47.8485260  77.5526962
  80.7319031  61.6148186  85.5810242  81.5212173  61.3531303  86.0550842
  80.3908768  62.3595467  86.0763092  84.5898132  32.6264725   2.8815868
  83.8309326  32.5430717   2.3041956  84.9353714  33.5000992   2.6982877
  58.8864899  51.6136971   7.2404613  59.1192131  50.7214355   6.9836793
  59.1864471  52.1583176   6.5126929  38.5876999   8.4934826  77.6891098
  38.0492973   8.8411808  76.9781494  38.0857887   8.6795225  78.4826508
  59.2271233  47.0810623  47.9379196  58.9564972  47.6174507  47.1927452
  58.4064217  46.7681236  48.3183784  73.7960434  65.5978317  81.1268692
  72.9604263  66.0626526  81.0830917  74.4532166  66.2685318  80.9410629
  28.9667778  41.1159325  17.1755047  29.6605816  40.6630325  16.6961823
  28.8890762  40.6325836  17.9980412  62.1497612  51.3151283   9.7018909
  61.7466812  50.4474869   9.6709356  62.8172531  51.2449188  10.3843527
   9.0636091   4.9063392  62.2771606   8.4607306   4.2384572  61.9505043
   9.5623922   5.1764660  61.5061340  54.6275597  67.6159439  14.8943520
  55.3821793  68.1612473  14.6720381  54.1498795  68.1239014  15.5501204
  23.7600803  23.0959015  19.7898808  24.2291908  23.8770275  19.4966087
  24.3176289  22.7241879  20.4734001  79.6822281  18.4763222  75.1681747
  80.5792160  18.2121429  75.3727722  79.5498886  18.1939068  74.2632141
  69.3373489  49.9733391  34.6849556  69.2227554  50.8327751  35.0905113
  68.5639725  49.4770241  34.9529114  84.6740112  64.6288757  18.0388641
  84.0874329  64.6425171  17.2825756  84.0888748  64.5832901  18.7950153
  56.7755089  13.2375126  23.4198952  57.0820656  13.4461393  24.3023510
  56.9393387  12.2992229  23.3250084  64.5648956  70.7636261  77.4643860
  65.2823486  70.3022766  77.0300446  63.8553810  70.7620697  76.8218689
  38.3798180  32.5725632   1.0393682  38.3879318  33.0041351   1.8937156
  39.0767174  33.0050774   0.5459167  29.1738987  52.9372406  44.7198639
  29.1927776  51.9888802  44.8482819  28.4656448  53.0798607  44.0919571
  70.9898987  34.2345581  73.5492020  70.5579300  33.8070984  72.8096619
  70.3090363  34.7817917  73.9405975  28.3707142  49.0320549  61.5326385
  28.2827282  48.1557045  61.9074707  29.3053570  49.2279167  61.5983162
  35.4718246  53.5642624  61.5135269  34.7459984  53.6665230  62.1291161
  35.1917419  52.8610001  60.9276886  38.1571617   2.1255348  12.7751112
  37.2235222   2.2404439  12.9521494  38.3937798   2.8812866  12.2374468
  49.2534637  24.0999660  29.9955368  49.6228943  23.9239826  29.1302128
  49.5269775  23.3537560  30.5290089  26.8183899  36.1222305  53.3627472
  27.4319458  35.9522743  54.0775146  27.3630028  36.1268272  52.5755959
  26.6902065   2.3419344  78.8680038  26.1273899   1.6400473  78.5411682
  26.4172726   3.1164401  78.3761978  69.5303879  46.6712570  12.9521646
  68.8528519  46.0119095  13.1019430  69.6271973  46.7032852  12.0004120
  30.9867096  57.3659859  45.7621689  31.7650776  57.8519020  46.0346794
  30.3312187  57.5701065  46.4291763  19.3367271   5.8124638  22.2525063
  19.9891472   6.3389683  22.7144299  19.7354736   4.9451714  22.1815453
  54.3523407  56.6595001   5.5600901  53.4506912  56.8960266   5.3425612
  54.7349968  57.4662094   5.9050918  50.9842720  61.9202042  15.8162956
  51.3493538  62.2949638  15.0147333  50.6098213  62.6682663  16.2815094
  83.4835129   6.4259844   8.6167326  82.6418076   6.5397959   9.0581007
  84.1091843   6.8937688   9.1698570  48.3759995  34.7865982   1.7715294
  47.4445534  34.6329460   1.9297270  48.3980255  35.3452148   0.9945518
  71.7506485   6.7302365   7.8851199  72.6385498   6.6246948   8.2267694
  71.8715897   6.8900218   6.9491315  72.8237305   3.4733994  40.5974464
  73.0782852   2.7362332  41.1524391  72.3615570   4.0689273  41.1873398
  28.3363132  64.6146698  81.6740189  27.8117428  64.7358932  80.8825912
  27.7423248  64.1889038  82.2921906  68.4677811  38.0283241  44.9908829
  68.4570160  37.0827789  45.1394157  69.3953552  38.2636414  45.0126419
  64.5612640  12.7787390  67.1777725  64.7658615  11.9671764  67.6422501
  64.3531036  13.4053688  67.8707657  79.0653763   9.5451393  80.2449570
  79.9052887   9.5513477  80.7040176  78.8751221   8.6173582  80.1061783
  31.1784191  69.4910812  47.7267494  31.1894588  68.9969788  48.5464897
  30.4039211  70.0495148  47.7941055  68.1876297  20.8820724  52.4925003
  68.8082123  21.5610390  52.7572899  67.3337784  21.3137684  52.5208893
  26.1667633  59.5068970  67.1878510  26.0273838  60.4528732  67.1438293
  27.1092281  59.3975143  67.0612488  44.7290039  57.3173141  87.7630005
  44.3386002  58.1716957  87.9469833  45.5406494  57.5200233  87.2978363
  61.5839920  63.2425232  79.7406082  60.6535263  63.4671211  79.7358627
  61.9685020  63.8285179  80.3925247  62.6194000  44.9386749   7.4312978
  63.1923027  45.3606262   6.7910109  62.9613266  44.0479507   7.5083079
  41.1189651  29.4039211  18.7666988  41.1476936  30.2661648  18.3520412
  40.3509979  28.9796047  18.3840542   0.5378613  26.6855488   2.1102118
   0.6311641  25.8522320   2.5718472   0.5769956  27.3474731   2.8005431
  57.9431000  60.4895248  33.0760574  57.5023918  59.7685471  32.6263962
  57.6276817  61.2769394  32.6325264  55.1590271  10.1482286  67.6673584
  55.3309517  11.0871372  67.7389603  55.9019432   9.7345037  68.1068344
  56.3143959   6.9932585  46.6686859  56.1263733   7.4670653  45.8585091
  55.8528633   6.1603098  46.5716476  70.5987015  10.8783007  37.6631584
  71.2409973  10.8390636  36.9545364  70.6350327  10.0115118  38.0676155
  60.4412651  28.7581387  23.5979462  60.2766724  28.8652477  22.6611061
  61.3213158  29.1112862  23.7284260  39.2107201   4.2995687  25.2539997
  38.6264114   4.6828017  24.5998211  39.4038010   3.4239297  24.9190235
  36.5543251  16.4646263   2.7116301  36.5987511  15.8191252   3.4170270
  36.6893883  17.3058472   3.1479075  16.4263134   5.6955614  73.6140137
  17.2596245   5.2362022  73.7180099  15.7670012   5.0634060  73.9002304
  47.3365822  48.6760788  29.6857395  46.7894402  49.1735535  30.2935123
  46.7443886  48.4336205  28.9738712  78.4466095  68.4430771  31.0598755
  78.4672470  67.5713348  30.6650715  77.5150757  68.6358032  31.1663399
  70.6185989  28.6828098  64.8569412  69.9927673  29.1010399  65.4482498
  70.1822433  27.8783875  64.5763550  38.2228775  18.8549595  86.6095428
  38.9064598  19.1051044  87.2311325  37.4185295  19.2199135  86.9784088
  65.4959946  41.8434944   2.0930338  65.0989914  42.5396996   1.5696605
  65.2286682  41.0342140   1.6573310  81.6375961  37.7756691  85.9289856
  80.9007950  38.3811951  86.0108337  82.4108582  38.3397026  85.9160767
  70.8217239  10.9667788  46.3464546  70.1450958  11.4177465  46.8514595
  71.1535950  10.2924948  46.9392738  34.9088249  55.9722900  65.0344162
  34.4619179  56.7035332  64.6080475  34.5982246  55.1966324  64.5673981
  63.7443314  58.3640060  64.0720825  64.1278610  58.0057449  63.2715912
  62.8547478  58.0111008  64.0902023  81.3627853  28.0070343  21.4460564
  81.0921783  27.6093464  22.2736130  81.6288147  27.2669735  20.9003735
  66.7311172  66.3982925  14.6072216  66.2475967  66.5486450  13.7949200
  66.1169662  66.6413574  15.3000202  30.0875797  60.7890778  35.1093178
  30.1233864  61.6481514  35.5299568  30.9957867  60.5997543  34.8736305
  64.6316833   4.1117496  44.6674080  65.0853806   4.9467101  44.7824554
  64.0550232   4.0456424  45.4285431  37.8486595  58.6085091  73.6681442
  37.5224876  57.7465439  73.4095764  38.6867371  58.4294472  74.0945206
  39.4642906  71.4908524  21.4565372  38.8720322  70.8307495  21.8167076
  39.0289612  71.7940292  20.6597900  74.6659164  44.7342834   3.5032582
  75.5458679  44.8059807   3.8730960  74.8104401  44.5658188   2.5721500
  38.6832199  49.9492149  86.1296539  38.8154373  50.8233337  86.4966202
  39.5678940  49.6069946  86.0013351  39.7292213  67.3624344  29.6476364
  39.3899574  67.5496140  28.7723675  39.5076866  66.4435959  29.7989407
  85.9088593  14.5126457   2.0539453  86.5177841  13.8495579   1.7287426
  86.2013245  14.6883612   2.9482708  33.5635490  52.9928818  87.6311264
  34.0515442  53.7421036  87.2894211  33.8558426  52.9105110  88.5388794
   0.4010095  36.2224617  38.3874588   0.5547742  35.3046341  38.1634445
  -0.0619013  36.5796661  37.6296005  82.0964966  50.6877518  71.6992569
  82.7967758  51.3190041  71.5338745  81.9636459  50.2514572  70.8576965
   0.6315629  28.0381794  19.4968147   1.4964403  28.3967323  19.2976704
   0.1685738  28.7557354  19.9292336  15.1515789  60.5161743  75.5184708
  15.8061934  60.2588577  74.8692398  14.4121952  59.9296913  75.3585281
  66.7499695  61.5308495  20.4281425  66.8510742  61.5141525  21.3798428
  67.4576416  62.0980492  20.1220188  25.0807190  53.1460228  84.0386734
  25.7678337  53.7374229  84.3458405  25.0155754  53.3216057  83.0999756
  84.4923248  63.6614265  12.0154572  84.2056122  64.1949844  12.7566366
  83.9263535  63.9319534  11.2924595  74.3834457  58.5140228  60.9367409
  74.1795425  57.8728142  61.6175575  73.5465240  58.6750641  60.5010147
  69.3292694  52.8900833  75.2224197  69.5275803  52.5246582  76.0846100
  68.4096985  53.1499062  75.2781448  56.5301933  62.6632576   1.1114560
  56.8467941  62.2859383   1.9322026  57.2016945  63.2995567   0.8656158
  70.2647324  37.6737442  56.6302872  71.0073624  38.2329102  56.4021034
  69.6095886  37.8593025  55.9575386  23.5170765  19.3489952  83.1635208
  22.6856880  19.8223495  83.1324997  23.8934326  19.5813160  84.0124130
  75.4565277  21.0411758  68.3631516  74.9750977  20.3307686  68.7871628
  75.9861298  21.4228287  69.0632172  48.5800323  35.4914742   5.8866205
  48.7170563  34.5919075   6.1836638  49.3641472  35.9601669   6.1724873
  77.4165421  10.8078327  27.3612080  77.9471207  11.0403175  26.5991936
  76.8346863  11.5576239  27.4856873  42.9271698  67.6033173  77.1903839
  43.4440231  67.1061859  77.8243866  43.2388191  67.3007050  76.3374329
  47.8024216  30.0855885  21.6944332  46.9194412  29.8314915  21.9627895
  48.0270386  30.8160343  22.2708225  72.9067154  10.8219452  60.0291595
  73.2855148  11.2601023  59.2670822  73.6535110  10.4117241  60.4653397
  54.4086266  52.7691078   1.9305050  54.6873627  52.8893547   2.8382931
  54.6534462  51.8674965   1.7222106  70.6617279  53.9637070  49.3070297
  71.4241714  54.4128380  49.6719780  70.4843216  53.2533913  49.9236412
  45.6588364  16.0849190  46.8122787  46.4084167  16.2432213  47.3861275
  45.8563728  15.2516747  46.3845940   4.3736744   5.2031684  30.3403225
   3.6939166   5.8512774  30.5250263   4.4450941   5.1963615  29.3858147
  79.4037323  36.9671021  11.3762360  78.9544296  37.3519440  12.1287365
  80.2159348  37.4679146  11.3003902  78.3935242  50.0391541  81.4836121
  78.8990936  50.8050919  81.7555923  78.8775558  49.6852913  80.7374725
   1.7485863  58.1236610  54.4627762   2.5045686  57.5393257  54.5200310
   1.0323519  57.6283073  54.8600960  79.6613388  45.7264175  87.1740417
  80.5212250  46.1030197  87.3611145  79.7659378  44.7913780  87.3500900
  56.2160225  41.4921722   6.1196351  55.6267052  41.7686005   5.4178367
  55.7304001  41.6715508   6.9247584  77.4209518  15.8535442  80.1329041
  77.5965424  16.6918335  80.5603027  77.6265106  16.0071640  79.2107468
  43.1294212  53.1994705  43.2645302  43.6453552  52.5287132  43.7118835
  43.5944366  54.0171432  43.4417534  55.5743294  12.7790699  28.8051548
  55.1589622  12.3469582  29.5514679  55.9506035  13.5796204  29.1708984
  68.5511551  48.7841263  30.7131958  68.3583069  47.8483810  30.7716789
  68.9686432  48.9952812  31.5482674  34.8913689   2.0177078  40.9658775
  34.4079857   2.7557931  40.5946579  35.8121758   2.2554901  40.8572197
  19.5796871  47.7861443  45.1914902  20.0918655  47.7261314  44.3850746
  19.0468941  48.5733299  45.0788116  59.7652588  34.5371628   7.1767373
  60.5597878  34.9898949   6.8939133  59.5573311  34.9263229   8.0261784
  59.6573257  57.6338654  61.2600861  60.3746147  58.1975670  61.5498581
  58.8822060  57.9904022  61.6940269   7.3588505  55.7138329  39.3855591
   6.4612346  55.6406517  39.0612679   7.2917209  55.5236206  40.3212624
  46.0310974  54.8912621  12.6162405  46.4918823  55.7273293  12.6862659
  46.4099274  54.3502350  13.3090696  61.3615417  17.7329025  35.8322144
  61.7323647  18.4437237  36.3551407  61.4174957  16.9638996  36.3994331
  59.0457306   7.6940961  71.4615173  58.5236244   8.0468636  72.1820679
  59.4871712   6.9319472  71.8363419  52.6607361  26.6873627   8.2298584
  52.9430656  26.8168163   9.1352673  52.2141037  25.8407803   8.2369595
  41.3012428  27.4651527   1.8304763  41.5438576  26.6001377   2.1608088
  40.8550339  27.8857269   2.5654919  27.5530453  21.9661446  75.5430756
  27.4519138  22.6341877  76.2210999  27.9419041  22.4327106  74.8032532
  39.5154305  11.1632471  75.8713531  38.9425087  10.6572304  75.2952118
  40.2717094  10.5947447  76.0165329  81.3132858   4.0723343  33.9307365
  81.6720352   4.0033288  33.0459938  81.8877563   4.6965342  34.3741188
  75.1015015  50.6466141  85.5629578  75.7722168  50.0308189  85.8581924
  75.5422440  51.4962921  85.5573807  60.9187164  32.2202835  23.4058838
  59.9982262  32.3882828  23.2041264  61.0463142  32.5992012  24.2755814
  18.0089760  20.2339611  57.4190369  18.2259331  20.5338078  56.5362854
  18.2233715  20.9765530  57.9836807  67.2182770  24.7210960  13.1645479
  67.3908005  24.4148846  12.2742100  67.0897522  25.6651459  13.0724564
  61.4143944  40.2693481  49.1161804  60.6893539  40.8927803  49.0727730
  61.0489578  39.5079803  49.5667419   7.0245109  65.3316956  50.9151268
   6.9051633  66.2526779  51.1470413   6.2877240  65.1327744  50.3373642
   1.2133849   2.4027119  49.7007217   1.8463354   2.4055271  48.9826698
   0.7705018   3.2485785  49.6329269  62.0667419  22.2805099  57.5497742
  62.2831688  21.6719742  58.2562256  62.7116165  22.9829865  57.6328011
  85.0131760  34.6218262   5.5868025  84.6608963  35.3665352   6.0741854
  84.3978806  33.9093933   5.7602644   2.7414093  25.3977089  32.8896828
   2.1550848  24.9517803  33.5009117   3.4848857  24.8025322  32.7935638
  58.4278450  50.4709549  30.8889446  58.1244392  49.5671196  30.8037529
  59.3717690  50.4219933  30.7378044  69.6156769  12.8423128  19.3878651
  69.0455246  12.0840521  19.2605953  69.7034378  12.9192114  20.3379269
  70.3017731  34.4230766  76.5579834  69.4813156  34.1876373  76.1248016
  70.4695969  35.3235092  76.2799835  29.3195515  10.1447744  79.3005524
  28.9181309  10.7412615  79.9324493  28.6412621  10.0036440  78.6400681
  70.1345673  63.2052994  77.7464066  69.6349335  63.9502602  78.0805130
  70.6548157  63.5680199  77.0294647  55.9776993  36.8639526  75.2298050
  55.2819633  36.8376427  75.8866882  55.9606705  35.9953537  74.8279648
  43.9076271  66.2828903   2.0427136  43.3823166  66.1945190   1.2474326
  43.5371132  67.0429840   2.4912679  79.1838379  70.0789337  69.4348450
  78.8499527  69.6111450  70.2003098  79.2396240  70.9917450  69.7174988
  67.4996262  64.7581711  88.7670593  67.3395844  64.6548691  87.8290024
  67.6043320  65.7016907  88.8896866  76.4176407  12.4635944   1.8716414
  76.5766373  13.3964796   1.7278489  76.7936783  12.2866573   2.7339184
  35.3518143  70.6733322  14.8449812  35.0503082  71.2625351  14.1534815
  35.8491058  69.9977188  14.3840303  68.7861099   9.6398716   8.5757217
  68.4182663   9.8051691   7.7076235  69.7268600   9.5493736   8.4239511
   8.4285879  30.3765507  77.6142426   7.6495643  30.2858963  77.0654831
   9.1000910  29.8647194  77.1632996  82.8314209  21.0137978  87.0565872
  82.9207153  21.6698322  87.7478790  83.7171326  20.9104061  86.7086563
  15.4464073  35.9471130  58.2264862  14.5230875  35.7051735  58.1545181
  15.4449434  36.7414169  58.7606277  39.2044907  68.1596985  49.3277512
  39.2984123  69.0955963  49.5052376  39.2089195  67.7502136  50.1929321
  47.0655708  12.6594276   3.8297358  47.4670296  11.9988451   3.2652056
  47.3715630  13.4946327   3.4761362  84.1632843  61.5586052  66.4389496
  83.2218552  61.7174263  66.3701859  84.5478592  62.4311142  66.5229874
  61.5015526  15.1946011  18.1103821  62.0911674  15.4954443  18.8018150
  60.9387512  14.5499458  18.5392227  53.5668907  13.4280148  42.2705421
  54.3853569  13.1636410  42.6906052  53.5791893  12.9851112  41.4220619
   4.3953128  26.5417519  38.3238106   4.1903300  25.6104870  38.2403831
   5.3517957  26.5761719  38.3375053  38.6066399  52.9888878  28.3792992
  39.0696373  53.2117577  27.5717144  37.6943626  53.2195244  28.2038116
  34.5448608  15.9782610  80.8520813  34.3571930  15.8256693  79.9259415
  34.3171921  16.8970356  80.9943848  59.2731552  31.5583515  60.2739716
  59.9896584  31.9984112  60.7313614  58.9252739  32.2224121  59.6787949
  81.9295959  56.3144188  54.9372902  81.7708054  55.6786423  55.6350060
  81.6963043  57.1581688  55.3244514  84.2849503  56.8758774  75.0223694
  83.5637741  56.2607231  75.1554947  84.9111252  56.6643143  75.7147446
  36.1797714  15.7911510  -0.0231435  36.0788269  16.3335037   0.7590939
  36.4098549  14.9252672   0.3138120  78.8184052  52.8962555  50.2667961
  77.9124680  52.8976021  49.9577560  78.8961411  52.0902634  50.7772522
  73.3101196  50.0914268  19.5141678  73.1871262  49.1606483  19.3277245
  72.4219513  50.4380722  19.5991726  48.9281921  15.3677464  89.3574219
  49.0353279  14.5577192  88.8588104  48.3426933  15.9030333  88.8218002
  63.9603004  50.7434807  15.2572660  64.0035248  50.2323875  14.4490900
  64.8714752  50.8225975  15.5396433  15.5698814  28.2298717  85.8850479
  14.7752924  27.9809418  86.3571625  15.4647503  27.8402538  85.0170746
  69.2170868  23.6135120  56.4228477  69.9342957  24.0037518  55.9232864
  69.3410416  23.9393864  57.3142929  46.7625580  27.4502392  88.6200638
  47.6769943  27.7237930  88.6921844  46.2947311  28.0134583  89.2366257
  73.7126312  45.0565224  56.9244576  72.9850693  45.6784859  56.9174385
  74.4798965  45.5878487  57.1371307  59.1438255  67.6061096  15.6401367
  58.5130653  68.2193604  15.2629070  59.1552353  67.8181381  16.5734882
  49.4535599   5.0154476  36.5423698  48.7100029   5.3942471  36.0734749
  49.1377907   4.1636262  36.8438988  66.9904709  71.0133743  86.4667816
  67.2772293  70.1680298  86.1212387  66.5678787  71.4447861  85.7241364
  76.3251038  29.6855583   5.7086530  77.0800323  29.1478081   5.4696064
  76.6666031  30.3043385   6.3541946  65.2907333  50.7620010  80.3009567
  64.6536179  50.5130348  80.9705353  66.1297607  50.7743797  80.7615128
  76.1331787  53.3749809  49.9851875  75.2680740  53.0548935  49.7295113
  76.0052643  53.7363510  50.8622742  78.2350464  13.7348385  39.5934372
  77.5049057  13.5498524  40.1841164  78.6323624  12.8797293  39.4286270
  65.1883316  45.9974098  52.2213821  65.4696732  46.1840630  51.3257027
  64.7389603  45.1544418  52.1605263  55.7248993  22.5291805  20.6435814
  55.4412117  21.6464367  20.8813133  54.9253044  23.0544109  20.6753197
  11.1942463  49.1682663  87.0529099  11.6496105  49.2485733  86.2148056
  11.7852278  48.6485367  87.5977554  41.9266853  40.1738625  85.6193008
  42.8298264  40.4899940  85.5942154  41.9949379  39.2384834  85.4278870
  55.5193672  27.5605030  79.3470230  55.3648071  26.7696838  79.8636932
  56.4112778  27.4589844  79.0147247  65.0999832  39.0473938  14.3484125
  65.2834473  38.3842163  15.0138197  65.5626068  39.8276749  14.6539793
  71.3225021  34.8459625  50.9845772  71.9371338  35.1973152  50.3403664
  70.4608078  34.9730034  50.5876045  57.1244774  54.1567535  72.7983170
  57.2488480  55.0441513  73.1349030  56.9992714  53.6192970  73.5804291
   9.7834587  47.1806412  41.5065269   9.0093250  47.6957970  41.2794495
  10.4313116  47.4164581  40.8425179   0.7472275  35.8336563  61.6003761
   0.1396330  35.6361275  62.3131485   0.2653266  35.6067657  60.8050613
  85.2530518  62.2854614  53.3494759  85.1429977  62.4810181  54.2799988
  84.6611023  62.8926582  52.9054756  46.8743286  38.2593384  18.5243473
  46.2700653  38.5065002  19.2243519  47.0471382  39.0768280  18.0573616
  76.2060547  38.5510139  34.3273697  76.6770248  39.1387787  34.9180908
  76.6237411  38.6818199  33.4761009  49.4750443  61.7178535  72.9123230
  48.5843277  61.8413811  72.5843048  49.5618439  60.7705650  73.0188217
  80.1329803  64.2474365  55.5470200  79.4118423  64.8091812  55.2630577
  80.9028854  64.6034698  55.1034927  86.4321289  10.8008165  72.7518082
  85.6226730  10.3634291  73.0158081  86.7748795  10.2608175  72.0396576
  41.5970230  53.2714043  59.2064552  41.3415337  53.4804497  58.3079796
  41.2523994  52.3907890  59.3547287  69.9373169   1.2699010  79.7142792
  70.1982956   1.9956443  80.2812195  69.3368759   0.7514722  80.2499466
  72.8232880   6.4595966  25.1744938  72.7756271   7.2385254  24.6202106
  72.1873322   5.8546319  24.7926483  14.6799879  37.7281570  36.5013580
  13.8180685  37.6577339  36.0910301  14.6747189  37.0591850  37.1859589
  20.4414959  55.5562744   9.2265930  20.1755962  56.4116554   8.8891754
  21.1043072  55.7551613   9.8879213   5.3238468  71.2000961   1.4669043
   5.5737376  70.4654694   0.9064518   5.9368277  71.8976974   1.2348765
  47.7416382  59.9722328  32.0118980  48.1963654  60.2811813  32.7954826
  47.8557663  59.0219917  32.0277481  68.7212830  28.5637875  54.1212463
  68.0679092  28.2434692  54.7431221  68.2754059  29.2641354  53.6448631
  24.6048927  -0.0107412  62.0672874  25.1874828   0.7327133  61.9120560
  25.1382027  -0.6340335  62.5605621  21.6824608   7.6523013  61.7811852
  22.2203293   7.0042553  61.3262520  21.2579365   8.1461811  61.0796890
  10.9887581  41.9011040  38.7707977  11.1772118  42.2698746  37.9078217
  10.3278751  41.2288437  38.6048622  83.2648468  58.4793167  17.9859600
  83.5276260  57.5607986  17.9267960  83.4536514  58.7245903  18.8917332
  81.2782288  34.5336952  41.1427231  81.3714905  33.8701248  41.8262482
  82.0959396  34.4841347  40.6476212  62.4867783  20.5271854  77.3596344
  62.4133797  19.6748562  77.7890320  62.9202194  20.3394222  76.5271072
  18.1430931  32.5450020  88.0822601  18.0662537  31.7250557  87.5943832
  19.0459099  32.5507927  88.4002533  14.0982351   8.7878447  27.8339157
  14.4505224   9.1836929  28.6310539  13.2995205   8.3443298  28.1195393
  82.7074203  50.4579582  77.8138123  83.0910950  49.8712502  77.1620483
  82.0070419  50.9116211  77.3448868  45.1438408  66.1053238  22.5048447
  44.3127518  65.7423935  22.8111115  45.5823593  66.4048691  23.3012161
  85.5625992  23.1177502  10.9400158  85.7969894  22.3234215  10.4600830
  84.8712616  22.8394394  11.5407066  58.2648582  52.8350601  82.8760910
  57.9039192  53.5776901  83.3602905  59.1773605  52.7842827  83.1606903
  60.0447540  69.1704559  38.7515411  60.0861092  68.6105347  39.5267906
  60.8433456  68.9655609  38.2652283  62.1736221  65.9778900  18.3216591
  61.4691620  66.6005096  18.5014057  62.8216743  66.1453629  19.0059204
  51.1912804  18.2591209  67.8953247  50.3422546  17.8824482  67.6640091
  51.1195602  18.4558563  68.8293381  41.5350876   3.0652182  51.8824654
  41.5923805   4.0007014  51.6879921  40.7670288   2.7660239  51.3958435
  17.8139877  45.7188835   8.5842619  18.7261753  45.9688644   8.4371071
  17.8063507  45.3494225   9.4672527   1.4420495  54.6440392  27.8056850
   0.6831654  55.1435814  27.5043774   1.9538552  54.4843254  27.0127296
  35.1879272  70.1944733  75.1774750  34.9121284  70.3605042  74.2760315
  34.6622162  69.4440384  75.4544296  52.0080147  61.1712837  62.2918816
  51.7345543  60.9864349  63.1903725  52.9541893  61.0264587  62.2948990
  80.0456543  69.9460068  46.2984200  79.4032440  70.2693253  45.6667480
  80.2222824  70.6964111  46.8658142  35.1309738  46.3949432  34.8917007
  35.6325531  45.7799797  34.3564682  35.4882698  47.2542152  34.6675949
  38.0316467  22.7928181  85.7961502  38.7338142  22.6957512  86.4393997
  37.3423691  22.2039280  86.1032867  56.3058662  64.3321457  69.8500595
  57.0381737  64.9115982  70.0602875  55.9469032  64.0813446  70.7012253
  55.5506363  70.3195724  36.3102684  56.1795883  70.1922989  37.0205154
  55.5078316  71.2689056  36.1955032  50.1475716   2.2367344  56.2035103
  50.8184433   1.8087103  56.7354469  49.9745789   1.6186690  55.4933701
  45.3162842  25.8272610  61.7349701  46.0682449  25.2394047  61.6628075
  45.6655617  26.6122456  62.1569138  72.8070679  41.7172050  74.3002167
  72.0232315  42.2486343  74.4395676  72.4840393  40.9189034  73.8823700
  84.6604385  40.7431412  45.3439713  84.1332092  40.2007904  44.7573586
  85.2742844  41.1952057  44.7651253  41.6633759  63.7357101  54.3756943
  40.9269295  63.1440506  54.5300179  41.3087692  64.4149475  53.8019981
  23.2449837  60.2375984  70.0044250  24.1487026  60.4788513  70.2077026
  22.9949493  59.6342850  70.7042313  71.3257675   3.0404730  26.2549858
  71.6864395   3.7577026  26.7762623  71.8428650   2.2760997  26.5091114
  42.0086098  69.0664749  53.4816322  42.1896591  69.6573715  52.7506828
  41.3293610  69.5124435  53.9875603   6.1609125  28.7301598  82.1281281
   6.6912169  28.1163883  82.6363525   6.4057379  28.5617771  81.2182159
  73.1441650  18.4558411  44.0126610  73.4098129  19.3138008  43.6816521
  73.7359161  17.8391304  43.5816956  75.4744873  22.5602360  48.3805199
  75.6780243  23.1379375  49.1160889  76.3275528  22.2514744  48.0752831
  39.8865166  13.8700762  85.5657425  40.5421867  14.5557642  85.6928711
  39.1281548  14.1677189  86.0682678  57.9132385  12.4218521   5.9898067
  58.1808434  11.5031672   6.0150485  57.2941093  12.5109653   6.7143526
   2.2900920  49.9971695  46.5145645   2.3948381  49.0745239  46.2822189
   1.6653590  49.9921036  47.2397652  62.6734543  39.3327332  87.1047440
  62.7642555  38.3804092  87.0721054  63.3914642  39.6604919  86.5632019
   3.8544476   2.7653008  60.6257057   3.9173591   2.6911473  59.6734581
   2.9146664   2.7430103  60.8061104  14.5070686  60.6001320  18.3304996
  14.5484076  60.4039993  17.3945217  15.3214636  61.0687523  18.5132122
  19.1275749  34.8293304  81.3248596  18.2819290  35.0554886  81.7121124
  18.9339390  34.6747398  80.4002838  14.9872503  70.9984665  28.5923061
  14.5476284  70.3925934  27.9957504  15.6138134  70.4534836  29.0683765
   8.9553747   5.5645580  78.8450089   8.6984968   6.4865127  78.8606567
   8.4108505   5.1757898  78.1604767  82.8134384   0.3931032  60.9397087
  83.2783127   0.2586655  61.7655716  83.1349640   1.2354279  60.6182404
  12.8820791  30.3510876  76.6247101  13.4682693  30.7796955  77.2483292
  12.9366236  30.8899364  75.8354645  45.3176422   4.8486972  51.2793770
  44.7152252   4.7171221  52.0115051  44.7509537   5.0643015  50.5386925
  31.3767052  17.0898285  88.3149033  30.4836864  16.8517342  88.5640182
  31.3233662  18.0190697  88.0915298  40.5429764  55.1507607  87.4280090
  41.4658813  55.1025047  87.1787109  40.5215454  55.7836914  88.1457672
  31.1158524  17.7494793  75.4873123  31.2203560  18.6251888  75.1152344
  31.2340927  17.8736935  76.4290237  39.1274986  61.2242813  65.4468460
  39.1940079  61.4224777  64.5127563  39.9118080  60.7103386  65.6390762
   2.0324697  36.7598877  46.1184464   1.4028988  36.6812782  46.8351707
   2.8687804  36.4997826  46.5046616  20.6928654  50.4527283  23.2092056
  19.8007259  50.1063385  23.2273731  20.5812931  51.3955421  23.0872097
  52.0274315  43.1098938  71.5251617  52.1717453  43.8489265  70.9341965
  52.5659103  42.4057312  71.1640091  81.4442291   7.5973234   5.4762917
  82.2412491   8.0812979   5.6925492  81.6776047   6.6789002   5.6114435
  42.6198196  66.2385101  26.6789341  42.2825241  66.9153748  27.2657146
  43.5050125  66.0638275  26.9985504  75.8568268  11.5747786  53.9422493
  76.2036285  12.4563675  54.0792160  75.4671783  11.6037645  53.0684280
  39.8787308  24.3318596   6.2586303  40.3351326  25.1626892   6.3914828
  39.8968239  23.9087162   7.1170325  39.9481888  63.3765182  77.3125000
  40.6263123  62.7170944  77.1657333  40.4149857  64.1187820  77.6963882
  86.0947113  37.9244347   8.4429102  86.7747955  37.6110306   9.0391445
  86.4776001  37.8279495   7.5709467  39.1261559  19.4057980   8.1273117
  39.1731644  19.7686024   9.0118427  39.9016190  19.7513447   7.6851778
  10.6506729  61.0196457  43.3156891  11.3306351  60.7739372  42.6883850
  10.7771778  60.4218102  44.0524521  59.9364662  59.7027931  58.2417641
  59.9509850  59.3875732  59.1454582  59.4585190  59.0275764  57.7602272
  65.3158875  64.5416336  62.4693642  65.1645737  63.8045845  61.8776703
  65.1486206  64.1862640  63.3422699  76.8385925  33.2275620   3.9914246
  77.4723129  33.9433708   4.0387325  76.2310333  33.3975906   4.7112827
  67.3213501  56.5078926  21.2968273  67.0603104  57.4147758  21.1366692
  66.5001755  56.0507889  21.4783916  82.2018051  10.0906363  56.7252769
  81.8005524  10.2347021  57.5822906  81.5678940   9.5522127  56.2514801
  56.6007729  18.1316395  51.6772995  55.9873734  18.6240330  51.1318436
  56.6907883  18.6581059  52.4716301  32.6871338  71.3099747  10.2404747
  33.1441879  70.4789429  10.1111517  33.1724472  71.9363327   9.7034683
  53.2618713  67.7518768  47.7303581  53.4548645  68.6824112  47.8447571
  53.2272606  67.4031754  48.6211090  56.7243004  60.4737854  12.4769316
  57.3061142  60.4624405  13.2369299  56.8402405  61.3457718  12.0995340
  86.2257767  64.2141876  57.7118797  86.8987656  63.8286171  57.1509438
  85.4544067  64.2811813  57.1490860  19.5224380  47.6332130  83.1966934
  19.2512054  48.4721870  82.8241577  20.4323483  47.5303307  82.9179306
  36.2805672  60.7346954  68.7495728  35.3848572  60.3994713  68.7101135
  36.8030396  59.9880714  69.0425034  22.3972359  32.8086891   3.4638336
  22.0104256  33.6835175   3.4280427  22.0301971  32.4167557   4.2562380
  75.7633438  55.7140999  15.3044720  75.2018051  55.5311623  16.0577621
  76.3636093  56.3930931  15.6124868  49.4491997  25.6471634  55.9560471
  50.0591240  26.0890217  55.3652992  49.9823685  24.9895897  56.4027672
  49.6726227  30.3595448  28.1419640  49.6289139  29.8177013  28.9298248
  50.6093445  30.4715538  27.9799728  65.7695084  12.6169186  13.1698751
  65.2741470  11.8704643  13.5069933  66.6841049  12.3385305  13.2173176
  67.9926147  29.0281525  29.1958275  67.2725677  28.4629078  28.9160900
  68.6177673  28.9957600  28.4716911  63.1702118  37.3026009  65.9816437
  62.8802299  38.2030754  66.1275482  63.9706688  37.3896484  65.4640274
  22.3922844   9.7717934  83.2157364  22.3603325   9.7606239  84.1723404
  21.4866047   9.9270334  82.9476395  78.6297531   2.0776348  21.7624893
  79.3485031   1.4811096  21.5532379  78.2810135   1.7508470  22.5918407
  61.7154770  25.9518032  73.0029221  62.4719696  25.6230278  72.5172729
  61.8480110  25.6345253  73.8962326  20.2342339   8.7989836  16.6363239
  20.5835342   7.9215994  16.4800606  19.3424110   8.6493406  16.9501572
  61.4310722  12.2236414  21.4972553  61.0839043  11.8073673  22.2861919
  61.7418289  11.4955091  20.9592152  69.2007751  45.4493027  23.5761395
  70.0715790  45.4943924  23.9709930  69.3617096  45.1824760  22.6710777
  39.9899750  26.0809307  75.8864288  39.8115311  26.9411125  76.2665253
  39.8588638  26.2027187  74.9461060  82.4568253  61.4357262  55.0379066
  82.2923355  60.9729424  55.8594933  82.3614349  60.7648354  54.3618622
  45.9091339  18.0875435  78.4650955  45.0840340  18.5690899  78.4054718
  46.5313606  18.6156731  77.9649582  46.7373924  50.7324791  18.7140160
  46.7713280  51.2313347  17.8977909  47.6546211  50.6150894  18.9612846
  30.6329441  45.3677101  69.3705673  30.4810429  44.4893303  69.0218506
  29.8059139  45.8281822  69.2283783  68.5810013  22.1601524  80.6850739
  68.2432175  22.1409931  81.5804901  68.0236511  22.7930946  80.2323303
  41.6784554  34.4769363  74.6558304  42.0962486  34.5273972  73.7961044
  42.3864708  34.6487808  75.2766495  24.6700096  16.6367111  71.1949005
  24.3468437  16.6703835  70.2945328  24.8426495  17.5504780  71.4217377
  71.1887283  25.1894341  83.1231995  71.7221985  25.7496681  82.5594788
  70.4645233  24.9075222  82.5643768  58.2600784  49.3672638  71.3162994
  58.2207947  49.2826195  72.2689438  58.1557045  50.3049240  71.1546478
  72.9808502  31.9663391  26.2005901  73.5420761  31.3111038  25.7859535
  73.3619003  32.0927391  27.0695286  38.2716866  45.8150482  54.9953346
  37.9988098  45.6887817  55.9040871  38.7527924  45.0169678  54.7766304
  21.9268284  14.0276718   9.6550961  22.6031208  13.4023695   9.9155884
  21.6453037  14.4317589  10.4758816  50.9515953  69.1367950  57.2120934
  50.2564201  69.4492569  57.7911720  51.7277870  69.0947876  57.7706566
   2.4695320  64.8800888   1.2944726   3.4259751  64.8420639   1.2961395
   2.2231851  64.6734085   0.3929037  77.2271576  63.6663628  38.4945908
  77.6001740  64.3007355  37.8824959  77.8233566  63.6768875  39.2433701
  45.5042725  35.5209351  10.5345793  45.9783592  35.7081490  11.3447800
  46.0383339  35.9189720   9.8471346  71.1189499  23.3548317   9.4762049
  70.5739517  23.1481895  10.2354889  71.9841919  23.0136719   9.7024651
  55.4972305  36.2437630  35.2143822  55.7923164  37.1386948  35.0462914
  55.5546494  36.1471977  36.1649666  64.8013153  26.5709476  84.4355087
  64.6622238  26.8692055  85.3343582  65.6128159  26.9997177  84.1637421
  84.9326935  41.2643204  55.0645638  85.7305222  41.7158737  55.3398819
  84.2257004  41.7397270  55.5008888  41.8886871  30.5745354  62.6327324
  42.3160019  29.7180328  62.6268997  42.5487289  31.1690788  62.9892387
  76.7349701  56.9445496  22.8149281  77.5699081  56.9062920  22.3483944
  76.9398422  57.3912430  23.6363468  46.6477852   5.2221169  36.1749916
  46.0432091   5.2755880  35.4348183  46.6827621   4.2897592  36.3888092
  14.4921999  23.6789150  84.6205597  14.9328890  23.5322533  85.4575272
  13.6079445  23.3369083  84.7523041  46.2564507  14.6710958  66.0480347
  47.0727654  14.7461395  66.5422363  45.8705521  15.5461168  66.0886841
  68.2217331  21.2760601  66.0737839  67.8713684  20.3931923  66.1922073
  69.1220932  21.1389236  65.7792206   9.5322504  52.5861778  33.3161240
   9.1692019  53.4660873  33.2152138  10.4765863  52.7033806  33.2125664
  24.0839825  47.5606766  81.0492783  24.4234848  46.9444008  81.6982574
  24.0222511  47.0491638  80.2425766  19.5588417   0.7250180  72.9767380
  19.4449615   0.9389375  73.9027557  19.7049522   1.5702255  72.5518799
  21.7615910  40.6159859  30.1880226  21.3960590  41.4252167  30.5454636
  21.0212307  40.1883621  29.7576313  52.9214134  34.9180374  67.4094925
  53.4447289  35.7076263  67.5470505  53.4550247  34.2108688  67.7719879
  67.3485107  38.6593475  37.3085823  67.8108597  37.9843750  36.8117142
  67.4949493  38.4247475  38.2249603  65.0396805  50.9006310  67.8917847
  64.3888626  51.4487267  67.4533081  65.7472382  51.5040398  68.1187057
  65.9668579  68.3878326  39.6972237  66.6451874  67.7136078  39.7360840
  65.6318817  68.3392487  38.8018684  31.1157322  48.6581764  21.3557625
  31.9538307  48.6669273  21.8180904  31.2030163  49.3391457  20.6887589
  45.0548782  39.6529541   3.3816762  45.2354240  38.8740501   2.8554218
  45.8599968  39.7981796   3.8785949  13.2898560  50.7670975  70.1143188
  14.2433424  50.8208160  70.0494385  12.9734344  51.1027298  69.2755890
  47.8194237  67.6388397  28.1748657  47.9362030  68.3843918  27.5860119
  46.8707848  67.5581131  28.2738628  71.4035721  47.5650749  75.8081894
  72.0407181  47.2471771  76.4478912  71.6359406  47.1162186  74.9953156
  70.3817444  32.8202324  26.7201824  71.2654648  32.7057571  26.3706627
  70.4595184  33.5510750  27.3334103  54.5231094  37.0957527  61.2838135
  53.8075027  37.1758881  60.6531677  54.0911369  36.8785210  62.1099129
   8.0001163  67.2186050  68.4007568   8.4998665  66.7364655  69.0595627
   8.6654520  67.6185303  67.8407440  25.7254772  43.3041649  54.2892990
  25.2107086  43.8098793  54.9181824  26.0820961  43.9595146  53.6896553
  24.1944389  53.0198135  35.8216019  24.1375332  53.5992737  35.0618515
  24.1998043  53.6113472  36.5741234  35.1500244  63.9597664  77.7169037
  35.4975662  64.3277969  76.9044952  34.9598503  64.7223892  78.2632217
  33.3506012  56.1566696  42.1696854  33.4119377  57.0972214  42.3365173
  32.6063118  56.0670280  41.5745125  69.4622192  29.8610916  37.5523109
  69.8999710  29.5798721  38.3557549  69.3694458  30.8088417  37.6492386
  28.9478264  62.5572891  64.1480789  29.4170132  61.8673820  63.6789055
  28.0316963  62.4363098  63.8984718  28.0494518  64.4694061  57.4106674
  28.4962883  64.2603607  58.2309494  28.5962467  64.0730743  56.7323112
  81.1925812  31.8588657  53.1900177  82.0564728  31.6241570  53.5288887
  80.5872040  31.6217422  53.8925323   7.5222683  53.1781845  50.8133354
   6.7629895  52.6088028  50.9379692   7.1949725  53.8997154  50.2762146
  34.1694107   1.2775173  16.9546108  35.0338097   1.5063853  16.6130466
  33.7278252   0.8491783  16.2212887  63.9145966  59.2323875  74.1537247
  63.6058121  59.1553955  75.0564804  63.2985992  59.8375053  73.7406769
  75.1316376   7.0011539  35.5660286  75.3030930   7.9428287  35.5751991
  75.6041565   6.6642475  36.3272438  36.0791588  14.7267904  70.6848297
  35.2881470  14.2759094  70.9801865  36.7854805  14.1008797  70.8447647
  85.1940918   6.1238976  21.2964306  84.3711777   6.5552349  21.5266399
  85.5183182   6.6141629  20.5409527  17.8039989  68.9379272  50.5467110
  18.0430546  68.1821899  50.0101013  17.3868885  69.5440674  49.9344711
  84.6792755  54.7761307  87.2514038  85.5124283  54.4387512  86.9223633
  84.1839600  53.9943085  87.4956284  72.3587036  31.8361530  68.7528687
  72.3140793  31.8071365  67.7971497  71.6679840  31.2404041  69.0430908
  12.5202732  30.6847363  87.3421021  13.4657402  30.6435280  87.4857178
  12.1424046  30.6394520  88.2203903  68.6053467  49.5760345  47.0130882
  68.9450226  49.1245575  47.7857552  68.4325180  50.4682312  47.3136673
  81.5584564  64.1038895  74.3115158  81.7729797  64.3952255  73.4253235
  82.3129807  64.3659210  74.8390198  27.1078796  45.4481163  77.9201508
  27.9502068  45.6778908  78.3124771  27.0020676  44.5157242  78.1090469
  44.5952034  39.4653282   7.5814772  44.1357422  39.9634552   6.9054608
  45.3528061  40.0062752   7.8042984  85.5355911   0.6092421  19.1225109
  86.3861237   0.6945229  18.6917515  85.1829224  -0.2180056  18.7946129
  45.6292343  49.1575470  50.8980103  46.2361031  49.7710457  51.3122139
  46.1665688  48.6780167  50.2674942  43.8364563  50.2736931   2.8909960
  43.9588051  49.4176674   3.3014679  44.3468170  50.8746986   3.4337223
  78.6623688  11.8111515  12.4545317  77.9035034  12.3929892  12.4971371
  78.2878647  10.9306860  12.4269876  73.7888107  17.6803150  30.0640392
  73.0909348  17.0725937  30.3087482  73.7505417  18.3688183  30.7279148
  84.9828186  20.4231873  19.7004910  85.3126984  21.2593117  20.0295963
  85.7630615  19.8756714  19.6128311  58.3212013  25.3681164  53.1085243
  59.2770691  25.4171371  53.0965271  58.0332146  26.2639275  52.9329720
  40.9342880  43.1727829  21.5570602  40.9349670  43.3322487  22.5008831
  41.0284462  44.0419235  21.1672401   8.1193743  61.0869102  42.0763397
   7.6873202  61.7963791  42.5519562   8.9828167  61.0166435  42.4834785
  20.0154800  10.9079037  10.5746088  19.8034077  11.8212042  10.7673254
  20.6443081  10.6598902  11.2523222  11.5878086   0.9735880  76.2031250
  12.0776529   1.7354922  75.8936310  12.1920614   0.2394412  76.0929489
  68.0614395  18.1565552  52.0451355  68.2975006  19.0767384  52.1624947
  67.5777588  18.1368046  51.2193680  86.4866028   0.9428107  31.4868126
  85.6430893   1.0184021  31.0407257  86.2657928   0.6365382  32.3663979
  54.8545456  12.2644815  48.9962234  54.4652290  12.1821804  48.1256561
  55.3779030  13.0645943  48.9498863  78.3999100  20.6633053  29.4777107
  78.0642853  20.0578098  30.1387405  77.6332092  20.8944473  28.9533291
  52.8781128  12.9380741  63.4075737  52.6007233  12.0770397  63.7204742
  52.8869057  13.4865608  64.1919937  56.4824600  51.2405930  54.1794510
  56.1663551  52.0789528  53.8426094  55.9956665  51.1105766  54.9933052
  68.9517136   1.9782445  68.3816147  69.2505264   2.0111723  67.4728470
  69.3002396   1.1528913  68.7185898  57.6557465  32.3944588  25.6458340
  57.9035454  32.7890205  26.4819832  58.0646057  32.9546814  24.9861221
   8.7919149  69.7803802   2.2152307   9.2425175  70.1986923   1.4816036
   9.3460159  69.9653168   2.9735191  20.7069225  45.5135841  10.4564219
  20.8287621  46.0424347   9.6679401  21.0460472  44.6501312  10.2204523
  50.5856018  55.0795174  26.8327427  50.5968704  54.8346138  25.9074707
  51.0847511  55.8953857  26.8706532  71.5585327  34.4846764  67.8628006
  71.9622116  35.2513962  67.4560852  72.2928772  33.9025040  68.0578537
   3.8251798  45.5499039  67.6965179   4.4791160  44.8603058  67.8107758
   4.3292146  46.3139191  67.4164047  62.5115700  42.1698303  83.9417267
  62.5584450  41.2412682  83.7141266  61.9024582  42.5422554  83.3041382
  83.1583176  37.6563187  50.6476784  83.2848740  37.3834152  49.7389755
  82.6898193  36.9270363  51.0537453  29.7386322  44.1570168  13.4175587
  29.3852730  43.9353561  14.2790890  28.9806404  44.4623642  12.9191170
  23.8164368  53.9340057  14.4539261  22.8904285  53.9691086  14.6937342
  23.9331112  53.0623245  14.0760431  80.7240295  53.6509743  22.5149975
  80.5096817  52.7337151  22.3449383  81.4174423  53.8552055  21.8875427
   0.3389128  31.1400948  88.6225052   1.0217731  31.7254868  88.2950134
  -0.2209862  30.9769535  87.8634720  23.5812511  44.5023880  55.4219322
  23.0636120  44.6475868  56.2138901  23.3120842  45.2031479  54.8280334
  44.0025558  53.8564606  24.7055187  43.3775635  54.1183662  25.3815536
  43.9239540  54.5320473  24.0319939  24.0013428  66.3611984  70.9061432
  24.5639439  65.7434845  71.3731995  24.5676365  67.1114426  70.7253876
  51.0061684  39.5490227  12.8710690  50.4180908  39.8526840  13.5625792
  51.1392517  40.3170204  12.3154602   2.7569952  45.1975098  42.6891212
   2.5380549  45.0502548  43.6092339   2.2872241  44.5093079  42.2180328
  73.9567642  13.0502148  66.8444214  73.0939331  12.7579241  66.5506210
  73.8758392  13.1171179  67.7958450  65.5850830  38.1910477   9.2522993
  65.2130966  37.3120384   9.3244505  65.4960251  38.5616226  10.1303501
  23.8583775  25.8153744  85.2141113  23.9470711  26.5038261  85.8731995
  24.6484470  25.2844048  85.3145676  63.1381378  39.6727676   0.5452487
  62.8526802  38.8567009   0.9560784  62.9083824  39.5691910  -0.3781776
  71.2247849  33.3986435  53.1576042  70.2968826  33.3103905  52.9398079
  71.5774078  33.9708176  52.4760590  86.2345047  68.8056717  25.9033871
  86.2448502  67.9724808  26.3744698  86.3858337  68.5658188  24.9891682
  21.6510086  20.3238964  29.3090382  22.0382423  21.1773262  29.1142559
  21.6447582  19.8662300  28.4683628  81.9553070  61.2401886  58.6265831
  81.2628937  61.8640900  58.8446274  81.4908600  60.4281921  58.4236565
  16.4904900  58.0362053  58.0036545  15.7788773  57.8502083  58.6162300
  17.2119770  57.4807510  58.2988815  52.0870628   3.2020802  34.1889534
  52.0865860   3.9811590  33.6328354  52.3060684   3.5304217  35.0609970
  18.0193348  43.9674911  51.5566406  17.6782284  44.0984802  50.6719246
  17.6026745  43.1597023  51.8568192  24.6109695  41.6553078  25.3764572
  24.2788677  42.4819870  25.7265129  23.8249817  41.1469727  25.1763306
  75.8184967  17.7636585  42.8941536  76.2714767  17.9608116  42.0742912
  76.2773590  18.2851639  43.5527191   0.1940586  68.8972626  20.6790180
   1.0242085  68.4253693  20.7453365   0.3942934  69.7793503  20.9921646
   2.0035532  61.7811050  14.6293020   1.4906447  61.9775581  15.4132423
   1.4309188  62.0232658  13.9015121  76.0043030  45.7892685  40.6996384
  75.6779327  46.4050179  40.0434608  76.4336853  45.1018562  40.1903992
  33.9640388  41.5903816  53.4347229  34.8544083  41.8751335  53.2288322
  33.9259109  40.6838989  53.1296616   9.5306902  48.3002319  61.4064026
  10.3716097  47.9242439  61.6666374   9.7624378  49.0892677  60.9165573
  47.5877113  43.6731262  82.9930191  47.7085609  44.4446106  83.5465851
  46.6574631  43.4629478  83.0748672  50.9645691  36.2464409  16.7334366
  50.8791046  35.3449478  17.0436649  51.7495956  36.2378807  16.1858196
  74.2560577  37.6046104  12.4405174  73.4203491  37.3554764  12.8351898
  74.1146851  37.5072517  11.4988337  41.1426735  71.1829224  69.7071991
  41.6536827  71.8744125  69.2865524  41.4470596  70.3750000  69.2938690
  82.6202164  69.1169510  60.7428436  81.6842117  69.0863876  60.9408112
  82.8542175  70.0406494  60.8337288  84.1893387  10.5612898  38.6194344
  84.7066345   9.9687319  38.0739861  83.9926529  10.0524712  39.4059753
  83.6322632  33.9514656  46.8641586  84.4856949  34.3682556  46.7451363
  83.7771606  33.3008919  47.5511780  83.0959320   6.8069024  14.6160717
  82.3098526   6.6411772  14.0956450  83.1163330   6.0928183  15.2531738
  19.1156273  43.3699875  67.0200577  19.4307976  43.4349213  67.9215469
  19.4167538  44.1768799  66.6023483  60.0078812   0.9665786  37.9340477
  60.4595833   0.3373617  38.4964409  60.1875000   1.8174276  38.3340797
  61.4159698  58.8011703   1.3861833  60.6940231  59.0554695   1.9609481
  61.3570404  57.8471375   1.3353814  68.5600967   6.0229702   1.7141308
  68.1104050   6.4039173   0.9598857  69.2629471   6.6420059   1.9116973
  42.7592087  27.1166401   9.6113834  43.1752739  27.9666271   9.7550726
  43.4529114  26.4789104   9.7796431  13.0815697   7.5243573  76.9785385
  13.3803120   8.4305124  77.0551453  12.8957224   7.4114270  76.0463715
  55.9818153  44.2025948  42.3494225  55.3908958  43.6583824  42.8698807
  55.4436874  44.5108948  41.6203156  43.5606766  37.5613899  44.2575150
  44.1667786  38.1438332  43.7996597  42.7382736  37.6441040  43.7747726
  71.8516922  22.1463203  50.0726318  71.1109924  21.6191921  49.7730904
  71.6040802  22.4289112  50.9530067  41.9444084  15.9635286  15.6352577
  42.2143021  16.6473942  15.0223017  42.2955704  16.2464619  16.4795704
  58.5057411   5.8940878  21.6864605  57.7460060   5.3758044  21.4210968
  58.8490181   5.4394031  22.4556503  82.5803833  65.6769485  39.0931816
  82.8449097  65.6270065  38.1746140  83.3789902  65.9243393  39.5592957
  50.8126030   3.0760965  19.5266113  51.0316544   3.1292939  20.4568901
  49.9640427   3.5131884  19.4549847  80.3799210  53.0237045  73.3190536
  80.9010086  52.5077934  72.7038040  79.4933243  53.0020828  72.9589157
  45.5138397  58.7900581  80.3173447  45.2625122  57.8673592  80.2761765
  45.7121544  58.9432869  81.2411575   2.4842043  35.6948891  76.5829849
   2.5013099  36.5717506  76.9664612   1.5537415  35.5018234  76.4681091
  33.6295929  42.4332886  12.5194483  33.8664055  42.9808807  11.7709208
  34.0539780  42.8535614  13.2674475  54.2322884  49.8705826  76.0026321
  53.7449608  49.0475998  75.9646454  53.9226646  50.2955818  76.8024673
  77.1274033  16.9784222  62.9443703  77.2971039  17.5331173  62.1829605
  77.9703369  16.9255238  63.3948059  85.5692520  59.9736404  70.1290131
  85.5295639  60.9279709  70.1915588  85.5409775  59.6727104  71.0372391
  51.5984688   8.7131710  22.9825554  52.4385452   9.1316719  23.1706085
  51.2289619   8.5199289  23.8441544  56.8763390  25.5434666   8.5738945
  56.8598900  26.3029327   7.9915085  56.8873672  25.9174538   9.4549417
  71.7833176  47.7870560  66.0043793  72.6499634  48.1822243  66.0992126
  71.1731033  48.4990997  66.1963730  13.1734810  61.5407066   2.6464419
  13.1650896  62.0210953   1.8185598  14.0952215  61.5233955   2.9039791
  21.5500507  38.3117676  86.4973373  20.6983509  37.9781113  86.2153625
  21.4827728  39.2606430  86.3908234  56.8526802  48.7025986  59.4503517
  56.4024734  49.4944267  59.7445602  56.1475029  48.0937386  59.2306976
  55.2557640  15.9792728  16.5689030  54.4228821  15.5122452  16.5023727
  55.1423187  16.7514305  16.0147057  78.3039246  30.4500523  45.6515923
  77.9281006  31.1145668  46.2290077  77.9982300  30.6918182  44.7773323
  30.9022961  14.3801842  75.9389954  31.1398010  14.7030354  75.0697479
  30.8240509  15.1696501  76.4745865  37.9899101  18.8640518  70.2457352
  38.0243301  18.5829391  71.1600723  38.7176056  19.4795113  70.1568222
  48.0647049  13.5373888  51.4505844  49.0106773  13.3913202  51.4454918
  47.8342743  13.6467972  50.5279999  50.5694504  37.7725868  37.4651070
  50.7416534  37.1338196  38.1568832  49.7946396  37.4355278  37.0153389
  37.8429146   3.9953101  38.5833931  37.9325829   4.6412539  37.8827133
  38.4742622   4.2727947  39.2471924  59.0353928  24.5656033  76.8707428
  59.7455025  24.0942402  77.3063965  59.0688286  25.4466877  77.2433090
  54.3390121  48.1400337  57.8691216  54.0384521  48.9746361  57.5094910
  54.8338051  47.7362823  57.1561012  69.8098068  50.0187263  72.6869354
  69.7796402  49.8204079  71.7509918  68.8997269  49.9506645  72.9756393
  11.2950201  38.9943428   3.5333815  11.6078625  39.7954941   3.9535184
  11.2921515  38.3419685   4.2338343  56.5901375  65.2383270  38.6711159
  57.3093262  64.6674271  38.9414253  56.9286728  65.7044144  37.9066620
  22.3785610  37.8389168  30.2937813  22.7086926  38.5552292  30.8361244
  22.1580162  38.2524223  29.4591541  49.2990570  30.3785706   5.8710890
  48.5827179  30.7629719   5.3657961  49.3591461  29.4773979   5.5540566
  81.3749161  70.6618576  83.1148987  81.3731003  69.7101212  83.2169800
  81.9450302  70.9768906  83.8162918  62.2578773  65.5907288  81.4430084
  61.8513756  66.4101791  81.1610565  62.8744507  65.8521347  82.1269226
  49.4677277   9.6280975  78.4940796  49.0673370   8.7659359  78.3818512
  49.4923325   9.9974947  77.6113739   1.9486316  36.7607651   9.3597870
   2.7851112  36.5856285   9.7909040   2.1685522  36.8340759   8.4310818
  11.4523754  38.1126099  38.2744675  10.7876596  38.3376808  38.9254112
  12.2741413  38.4243050  38.6536522  76.9657669   7.9869313  49.3376007
  77.2022552   8.8669815  49.6305466  76.9240646   7.4698501  50.1420364
  58.0860863  33.1276588  63.9771881  58.9600754  32.8048630  64.1966782
  57.8355827  33.6687851  64.7259598  37.0090218  45.0204010  82.8050079
  36.5630875  44.9847488  83.6512375  37.8660431  45.3986626  83.0016403
  57.9319992  52.1550331  70.8428116  57.2842064  52.2443466  70.1437912
  57.6041374  52.7153587  71.5462112  19.1310959  34.6543427   1.5555013
  19.8125629  34.1436195   1.1184723  18.4212132  34.7038460   0.9153069
  81.0042877  19.7554741  68.6345978  80.2103043  19.4725761  68.1809616
  80.7045441  20.4301395  69.2438736  75.1628113  35.0615349  43.6979446
  75.5281219  35.3693848  42.8684807  75.0540924  35.8556557  44.2211876
  86.2558823   3.0972300  38.8351173  86.9005508   3.7612259  38.5906830
  86.6287155   2.6748528  39.6089554  81.6920547  41.7619247  71.9012375
  82.4553070  41.7660522  72.4788742  81.4739380  42.6867828  71.7859421
  35.8630409  53.3464813  68.3883286  36.1229172  52.9259186  67.5686798
  35.0743027  53.8404655  68.1644897  16.2569866  53.9167404  35.5653076
  15.6589670  54.1779289  34.8650284  17.0426807  54.4432907  35.4181175
  43.7461281  13.7922201  16.9829388  43.5161819  12.9827442  16.5267525
  42.9061928  14.1568851  17.2617970  57.7851868   5.2435017  36.3286209
  58.2351723   4.5344400  35.8693008  56.8576889   5.0131092  36.2747650
  34.1058044  21.6888103  68.8444672  34.2024193  22.4623985  68.2890778
  34.5066872  21.9398365  69.6766434   1.8212786  49.5905762  39.5736389
   2.4246309  50.0219574  38.9685707   1.0614812  50.1716728  39.6091919
  32.0425720  32.0085068  80.9364853  31.6767082  32.8884430  81.0264282
  31.3838196  31.4341583  81.3268661  57.8383865  20.5326691  70.7265472
  57.5363121  20.0235405  69.9743729  57.6087570  19.9972000  71.4860077
  22.2043171  51.3080978   6.4195423  21.9403954  51.6098328   7.2887573
  23.1585751  51.3830948   6.4194970  41.3492661  12.0370359  87.1128464
  40.8395042  11.8648996  87.9045181  40.7719612  12.5716839  86.5677795
   9.0519476   1.1377251  11.1341496   8.3420820   0.5573931  11.4089899
   9.8421926   0.6033266  11.2126617  35.8613243  58.0680199  57.5806961
  36.0930862  58.1957932  58.5005798  36.1453209  57.1753540  57.3839073
  27.5820160  39.6729698  75.4719620  26.6986904  39.6204681  75.8369446
  28.0658836  40.2172318  76.0931549  18.1005592  22.0599689  69.4723740
  18.4817219  22.7473049  70.0187378  18.6294060  21.2843857  69.6595154
  41.3873215  23.7055130  16.7271595  40.6670113  23.4950657  17.3213768
  41.4638519  24.6586113  16.7716579  15.3465300  70.2570877  23.1798706
  14.9420166  71.0131912  22.7545395  15.4445229  69.6122131  22.4793186
  81.5786667  21.6155872   1.1066829  82.4702148  21.9502449   1.0098580
  81.6741409  20.8333874   1.6500782  11.0834751  49.7529297  67.0119019
  10.9641333  49.7347794  66.0623398  10.3994875  49.1751404  67.3503494
  16.2720280  67.9827347  57.2716522  16.4947567  67.6115417  56.4179306
  17.0500603  67.8323441  57.8085670  30.3683281  70.1335297  79.6138382
  30.8859653  69.4259491  79.2296371  29.5711632  70.1616669  79.0847168
  72.9428101  27.6836166  66.0239792  72.5597076  26.9582558  66.5172501
  72.1986313  28.0918121  65.5814896  31.5817833  20.6763821  76.1690826
  31.6794567  21.5736675  75.8503799  32.3904877  20.2385292  75.9035339
  29.3937302  59.0901146   0.4421911  29.7923450  59.8392982  -0.0005979
  28.7730999  59.4786835   1.0586843  47.2034073  49.4324379   3.3925343
  46.9559746  49.1525002   4.2738090  47.8948326  48.8234673   3.1330771
  33.3181076  49.2263908  53.2587166  32.6553497  49.3963966  52.5893288
  33.3214417  48.2741585  53.3560677  30.6665573   4.5586576  75.3255081
  31.5654488   4.7885303  75.0901642  30.2041416   4.5127869  74.4886703
  70.5182419  52.6001129  72.8364792  70.6890488  51.6779060  72.6451721
  70.0303345  52.5875359  73.6598969  81.9825592  40.2909851   0.3355044
  82.0684738  41.1913071   0.0220202  81.3943481  40.3544731   1.0879720
  43.7047195  67.4194107  88.4628983  42.9874916  66.8204498  88.2553635
  44.4939346  66.9518738  88.1894226  50.1994820  17.6326866  49.9618721
  49.7409401  17.8350201  50.7773666  51.0027008  17.1934185  50.2413673
  78.4185638  33.5681419  80.2830200  79.0922470  32.8934822  80.3679352
  78.2673187  33.8696861  81.1788025  81.5015488   2.5342510  28.3828773
  81.0650864   3.2703044  27.9539757  80.9672928   1.7733372  28.1552486
  26.5751362  59.2252274  32.5463562  26.9638367  59.2353439  31.6716881
  26.9732075  58.4684944  32.9766159  40.2558937  65.3338089  23.4354877
  41.1891518  65.5204926  23.5375061  40.1445656  65.1744843  22.4982281
   6.6226645  49.3162346  79.6629715   7.2397523  49.7170715  79.0507889
   5.8914132  49.9325371  79.7038879  66.3021469  43.9770088  50.1306229
  66.0044174  44.8209000  49.7908669  66.2054977  43.3743668  49.3932533
  35.7614212  54.9936104   1.6256678  35.7943840  55.7892342   1.0945071
  34.8670120  54.6702690   1.5174569  84.6471405   9.6719494  88.7899933
  83.6975784   9.7904177  88.8128052  84.9316788  10.1655149  88.0207977
  20.8800526  44.0228653  69.0216980  21.4653797  44.7669029  69.1632233
  21.4197807  43.2546577  69.2081985  31.8429718  35.0336609  23.9719410
  32.6127434  34.6157684  23.5858746  31.7049618  34.5667152  24.7960453
  74.7374268  53.0510902  82.1732407  75.4328156  53.2435951  82.8022079
  74.2507019  53.8716507  82.0957184  86.6552963   7.5293541  19.1778984
  85.8382492   7.4783096  18.6818542  86.9194489   8.4469156  19.1105576
  29.3413963  55.3615799   2.9138513  28.5332603  55.1195107   2.4615788
  29.0482674  55.7309036   3.7468615  69.5340042  61.0847931   4.4720702
  69.1211166  60.9474525   5.3246479  69.0036011  60.5705185   3.8634512
  66.3650055  23.9080906  51.5062065  65.5870590  23.3723316  51.3512993
  66.0531235  24.6317711  52.0495720  69.3946533  58.7112770  20.6241913
  69.8392258  58.1388931  19.9989204  68.4819946  58.7181053  20.3356876
  83.7037964   2.6798303  59.7743645  83.5847549   2.4870620  58.8443642
  84.2344666   3.4763477  59.7878571  81.5034409  58.0398445  71.9255753
  81.0282822  57.8602295  71.1142807  81.4607697  58.9911613  72.0225372
  29.6645222  47.0730362  44.6068459  30.2231560  46.2988510  44.5376129
  28.7778034  46.7219963  44.6889000  35.4611130  49.0169258  24.8862686
  36.3549461  48.6961479  25.0062408  35.0346413  48.8582382  25.7283916
  84.9914932  64.8995056  30.3097630  84.8537216  63.9734421  30.1106300
  85.8083191  64.9183197  30.8084297  56.0718727  18.8052483  83.5810928
  56.8379288  18.4521008  83.1286774  56.2034874  19.7532997  83.5706558
  77.9865341  54.0728149  15.1722498  78.6384430  53.8977585  15.8509235
  77.3394928  54.6332970  15.6005383  70.5318832  64.5508575  37.4508896
  69.9862823  64.8540421  38.1765823  71.2486420  65.1839218  37.4093781
  18.4006634  71.0202560  62.7415237  18.0828705  70.7552338  63.6046600
  18.2876797  71.9706345  62.7261162  66.6960831  21.3608551   0.9150265
  66.1628723  20.6312847   1.2306955  67.5257187  21.2716885   1.3840530
  49.9013977  70.3687744  67.0694885  50.5655289  69.8321381  67.5021439
  49.3070679  70.6281281  67.7735825  72.1083374  17.0518646  74.5569458
  71.6001129  17.7878971  74.8978195  72.6892319  16.8077774  75.2775192
  23.8269711  55.5678978  22.1769352  23.0802269  56.1525726  22.0474777
  24.1476517  55.3895988  21.2928505  78.2864075  38.9905891  36.1959572
  78.2975235  39.9265518  36.3961639  78.2559433  38.5629387  37.0517731
   6.8817973  70.3721390  35.1474838   7.1806374  69.4640656  35.0991974
   7.3566518  70.8181686  34.4461975  16.3201046  21.4420242   0.9327562
  17.2227287  21.4777222   1.2493459  15.8088322  21.8729496   1.6176908
  13.6709414  45.3257484  55.6032715  14.3057232  45.1268883  54.9149857
  12.9423075  44.7276382  55.4371758  56.3307877  37.9026909  83.6353912
  55.4226074  38.0337143  83.3628616  56.8496170  38.1742935  82.8782425
   3.0611267  69.3386536  38.4282379   3.5031383  70.1061096  38.0650940
   2.1603227  69.6277008  38.5739708  31.9249210  18.7933445  81.7344360
  31.2455349  19.4627399  81.8155212  32.3111076  18.7369347  82.6084518
  53.3743629  44.6155968  15.6368189  54.2545700  44.9690971  15.5083456
  52.8686981  45.3515091  15.9817410  49.3243942   9.7126265  66.4355316
  48.5376778   9.3366356  66.8304214  49.6202774   9.0489159  65.8124924
   1.4374865  60.5635605  62.2010002   1.6933225  60.8774261  63.0683327
   1.4260849  61.3499908  61.6554451  57.5239716  52.0164604   3.3674495
  56.6807480  52.2262154   3.7689588  57.3821983  51.1718445   2.9399505
  80.5873642  42.9278755  15.5272799  81.1474686  43.6002007  15.1393433
  80.9572906  42.7809982  16.3978043   2.7360184  33.5959854  61.9407692
   2.6170490  33.0656967  61.1528168   2.1658125  34.3532906  61.8081589
  16.7237148  63.0998878  88.7949371  15.8166056  62.8339386  88.9454498
  16.6701031  64.0360794  88.6028366  50.9806366  45.4619865   0.2495368
  50.4961929  44.6369591   0.2199149  50.8823242  45.7651901   1.1521076
  24.5793190  62.8767090  44.7934380  23.7930584  62.6538925  45.2918129
  25.1878166  63.2208710  45.4472847  55.9910736   2.4651818  82.2279587
  55.4910469   2.9905138  82.8526382  56.7235680   3.0269773  81.9748306
  49.8111649  26.5123672  41.3354416  50.3823738  26.1493797  40.6585426
  49.4159241  27.2828007  40.9274597  66.3970718  17.4872417  14.5056610
  66.2285156  18.3672943  14.8423052  67.2567978  17.5505466  14.0896111
  34.3819733  55.8316383  30.8241177  33.5057602  55.5769844  31.1133118
  34.3243217  55.8453407  29.8687534  57.8313484  47.4903107  50.6906967
  57.5824547  48.0459328  51.4293213  57.6775475  48.0349922  49.9187508
  61.9030457   6.4521580  88.4746017  61.7547455   7.1129885  89.1510239
  61.0392761   6.0698347  88.3198090  81.1329956   5.8299017  20.5207806
  81.0179214   6.7663918  20.3596115  81.5745239   5.7853093  21.3688946
  32.8273430  48.8303757  81.2424469  32.5056534  48.7532425  80.3442307
  33.7796860  48.7789612  81.1610260  78.1533813  41.6173325  36.7098961
  78.1715317  41.8831100  37.6292763  77.2857208  41.8791924  36.4019585
  22.5109215  10.8478451  74.3372192  21.9808311  10.8227034  73.5406036
  22.0822067  11.5014858  74.8896637  44.5536346  57.7108002  25.2470303
  45.3604813  57.5364113  24.7624454  44.4493599  58.6613503  25.2044353
   6.1519213  36.0352211   8.6209154   5.9908147  36.8482895   9.0996590
   6.1189427  35.3522835   9.2907963  13.0202503  22.7269173   4.5795007
  12.5193195  21.9115963   4.6030326  12.3813858  23.4068050   4.7935967
  62.7006149   0.7243628   4.8350143  63.5836830   0.5923803   5.1799884
  62.7690430   1.5131202   4.2970448  47.9844551   2.9772346  60.2031021
  47.6604385   3.3662593  61.0154457  48.3684998   3.7107489  59.7227898
   7.3177328   4.6295285  76.2519913   7.5826411   3.9547994  75.6268616
   6.9174252   5.3116627  75.7128448  36.8821869  31.4622364  20.2828884
  36.1872101  30.8054352  20.3258839  37.3648529  31.3542194  21.1023998
  75.3068390  17.5289822  85.5106125  75.1495972  17.8366013  86.4032898
  74.7951431  16.7229977  85.4413986  16.5152969   8.7693348  57.9699898
  15.8761625   8.2498741  58.4577370  17.3411083   8.6297789  58.4334450
  48.0513725  69.8549728  77.0824966  47.1794701  69.5391998  76.8452148
  47.9218025  70.7793198  77.2946777  54.7829056   6.7000890  22.2124462
  53.9361305   6.9646277  21.8529701  54.6939659   6.8314843  23.1564045
  24.4031773  41.3794174   2.8515224  24.6973476  41.0692711   3.7079720
  24.9202538  42.1690178   2.6921682  10.7181311  49.5528221  11.7978554
  11.3684158  48.9936409  11.3727922  10.4474401  50.1668777  11.1152897
  77.2557144  14.1009588  29.7908440  76.7349243  14.3606462  29.0308628
  78.0981216  14.5375366  29.6644192  20.2711010  65.2474213  25.4040852
  20.5310402  64.9637451  26.2805500  19.4361019  65.6965714  25.5355206
  51.8876610  55.7574692  21.4651184  50.9805603  55.9634361  21.6908970
  52.3970490  56.4751472  21.8415394  25.2874088   2.4376831   1.8010178
  24.7031326   3.1944199   1.8479464  25.9081173   2.5695300   2.5176558
  55.8043747  57.9689522  46.1386299  56.3381233  57.6254578  45.4221420
  55.5216331  57.1917686  46.6205750  58.4352493  60.0644073  67.6627350
  57.8817406  59.9844971  68.4395752  57.9590797  60.6658249  67.0902100
  21.2528057  40.4595680  15.2934656  20.8431072  39.6607361  15.6255016
  21.9836159  40.6199074  15.8904915  68.6302719  54.0399094  71.2745285
  67.9137115  53.4137840  71.3781815  69.3882217  53.6029282  71.6628494
  57.1372490  44.0534973   9.2261143  56.5382309  43.3292694   9.0447264
  56.6653099  44.6038704   9.8510904  61.4177475  20.6393375  72.3903885
  62.1841125  20.0749016  72.2887497  60.6761398  20.0803547  72.1584778
  14.4353886  34.4886322  29.5528793  15.0495720  35.0353127  29.0628262
  13.6213064  34.5344009  29.0514736  61.3889046  54.1353874   9.4377327
  61.3840141  53.1789169   9.4006634  61.6159782  54.3387566  10.3450975
  84.9038010  40.6750107   2.9886887  85.4505005  39.9012642   3.1253567
  85.4381104  41.2525291   2.4435067   3.4933739  35.3498650  48.1418991
   3.2956765  35.9063759  48.8951912   3.5254705  34.4631767  48.5010414
  47.3842087  61.3258972  29.7849007  47.9784355  60.9862022  30.4540310
  46.8914185  60.5597496  29.4909534   0.8602583  56.6220970  17.3851566
   1.5300421  55.9401436  17.3345585   1.1253941  57.2673187  16.7296963
  77.4388885  52.8159065  76.2245483  76.5954895  52.8289108  76.6770325
  77.2913818  53.3261909  75.4282532  79.0495529  49.8798447   1.1797932
  79.7110748  49.3633537   0.7195116  79.3744812  49.9392776   2.0781898
  22.7729092  51.6239662  60.6197510  22.9692097  50.7979965  60.1776237
  21.8481274  51.7829399  60.4307060  60.8409691  69.5786591  14.7846403
  60.2293701  68.9094086  15.0916996  61.5278854  69.5991821  15.4509382
  57.0162811  39.8152542   9.6788607  57.2175865  38.9218063   9.4005518
  57.7403870  40.0548439  10.2572231  83.6444855  30.6456318  71.1484680
  82.7272491  30.5920506  71.4168625  83.7985840  31.5797539  71.0074005
  19.7756519  10.4083242  62.2180290  20.0052280   9.9886141  61.3889542
  18.9227219  10.8108568  62.0545959  22.3537712  29.9266090  73.4488373
  22.0981884  30.4892826  74.1798019  23.0637016  30.4021034  73.0174026
  81.9546432  23.8612595  17.0379753  82.0634079  23.6362133  17.9619656
  82.8481750  23.9431190  16.7046165  61.5563393  59.7405434  41.5800209
  61.6538887  59.8023300  40.6298103  60.8471489  59.1104393  41.7075119
  37.6089668  63.8573494  86.4876251  37.8980560  63.3505974  85.7287674
  38.0413170  64.7055206  86.3880463  77.4674988  71.1982803  55.5350037
  77.4087753  72.0532990  55.9612923  76.7870712  71.2189102  54.8620834
  44.7563362  60.6694069  86.6282501  44.4507675  61.3995209  87.1665726
  43.9603462  60.3133202  86.2334976  66.5066452  23.4074917  62.8134460
  67.3026962  23.7893791  63.1831627  66.6175079  22.4638271  62.9293556
  65.8658829  57.1326752  33.5187225  65.0890350  56.5756187  33.4693947
  66.5546112  56.5546875  33.8470688  36.6578331  58.2578239  14.7886086
  37.3451729  57.6010094  14.8999233  36.0731239  58.1213264  15.5340719
  53.7660866  58.6070251   1.5852488  54.0544090  57.8716393   1.0445901
  53.1155930  59.0589066   1.0477618  35.5799904   6.0091066  76.1605759
  35.6402626   5.8081498  77.0944977  34.6891327   6.3391414  76.0436020
  20.5000381  44.7090988  50.3761902  19.5997829  44.7317848  50.7006226
  20.4734097  45.2095184  49.5606499  33.6267548  60.7152901  67.6574249
  33.4607048  60.4933929  68.5736237  33.7296143  61.6669464  67.6563187
  38.1763306  69.6276932  66.8802032  37.4465752  69.4076004  67.4592056
  38.9576645  69.4818039  67.4135513  14.9565344  68.2755356  25.1320667
  15.0041275  68.8580093  24.3739815  14.0303888  68.2723389  25.3738861
  46.1068497  52.5639763  20.6661530  46.0190582  51.7504921  20.1693897
  46.4492645  52.2893944  21.5167923  53.8844452  16.2668705  29.2689133
  54.0376549  16.5327187  28.3622246  53.1112213  15.7042646  29.2261505
  80.3867874  21.8406792   5.6107702  79.8849106  22.4081211   6.1958852
  81.1834412  22.3364124   5.4215155  28.6591053  15.2339134  73.8809509
  28.8083668  14.7200184  74.6745911  29.0528564  14.7132435  73.1808777
  71.1046448  15.2800579  25.6402130  71.5852051  14.8447104  24.9361057
  70.1931534  15.2730303  25.3480587  35.4493141  12.0727787  69.0580139
  36.2723312  12.1981001  68.5856094  34.7906990  11.9759598  68.3702011
   9.2474527  20.5934811  86.1831894   8.4272470  20.1022491  86.2299271
   9.8203058  20.0520287  85.6401443  52.7615776  53.1678200  21.9836235
  52.6006660  54.0862656  21.7672920  53.6249619  53.1668091  22.3969021
  32.0919800  13.6865587  69.2228165  32.5361671  13.5220222  68.3910370
  31.1935291  13.3901844  69.0772781  40.6147728  68.9861069  76.6377258
  40.1769676  69.3712997  77.3967972  41.1618652  68.2912216  77.0038605
  85.0032578  17.9684620  68.7278900  84.1130753  18.0904083  68.3978348
  84.9610825  18.2521915  69.6410980   2.8291557   0.2273622  29.0693798
   2.5580590   0.8244364  29.7666893   2.5679984   0.6687222  28.2611523
   9.4007483   7.2890038  81.9515533   9.2435246   6.3701048  82.1686630
   9.3047056   7.7516193  82.7840195  71.6302185  62.1417313  59.5471115
  71.5021515  63.0007401  59.9495201  72.1843567  62.3140526  58.7858849
   4.4007215  10.1389389  52.6643066   3.6752102   9.9718513  53.2659264
   4.3053875   9.4730453  51.9833298  85.4683685  54.0646286  72.8306274
  85.0793915  54.8558693  72.4579697  84.8008575  53.7283745  73.4286194
  15.1093616  68.4101791  21.2317047  15.5336952  67.6453857  20.8427811
  14.1784487  68.1876907  21.2430344  84.5633392  67.3170319  60.4632721
  83.9038696  68.0072784  60.3932991  84.0567780  66.5111465  60.5641479
  35.0313110  16.5805187   5.7124419  35.1884727  15.6614332   5.9288073
  35.5151939  17.0694065   6.3780842  19.9330330  44.4486084  74.4900970
  20.8113041  44.4048080  74.8681870  19.8544865  43.6467514  73.9732895
  78.9971619  64.6513367  61.8200722  79.8723602  64.9926987  62.0037270
  78.4932327  65.4182358  61.5477409  26.2717800  53.6764259  60.3602791
  25.8874435  53.2120895  61.1038551  27.0436211  53.1599731  60.1283951
  66.2380066  11.6249838  23.8541489  66.9502869  12.2195187  24.0895500
  65.4468460  12.1590509  23.9253044  47.2618065  37.3773613  24.5732536
  46.3060799  37.3446655  24.6150913  47.5031090  38.0911369  25.1636162
  50.9617081  21.9230900  82.7816391  50.5288391  22.7039356  83.1268005
  50.9190140  21.2892990  83.4976883  73.1030350  63.9377632  69.4696960
  74.0494995  63.9351425  69.3267517  72.9025269  64.8369675  69.7294388
  11.3900642  20.3196087  75.8743286  11.7044230  20.1469421  76.7617950
  11.4526806  19.4744301  75.4293823  80.7814941  29.5126343  51.5376701
  80.8552094  30.2223492  52.1757164  81.5493774  29.6152573  50.9754906
  80.2709351  15.8831768  34.8750343  80.6920700  16.1697273  34.0646210
  79.4656906  15.4529867  34.5873680  64.9195480  50.7453537  45.2465782
  64.5028152  51.5557823  45.5394478  64.3436203  50.4155922  44.5567932
  71.8671417   2.1848407  11.5589428  70.9901505   2.4932649  11.3309212
  71.8101196   1.9672315  12.4893332  72.6080856   3.6330101  18.2019424
  73.2807999   2.9588740  18.1058884  72.0501480   3.5261035  17.4315453
  18.0161934  42.7393494  72.7791214  18.8061733  42.3851471  72.3708344
  17.3545189  42.0598526  72.6498718  78.9947510  10.8711672  45.7156334
  78.4014816  10.8180313  44.9663353  78.4288940  11.0982275  46.4535217
  63.1699677  34.6154671  44.7906456  63.3142395  33.7642517  44.3773041
  63.9940262  34.8070602  45.2383614  60.4321022  55.0122452  53.3475647
  59.4825096  54.9119148  53.2809143  60.7397041  54.9878731  52.4414673
  33.1143761  49.4537392  70.9411850  33.7855453  50.0968933  70.7128830
  33.2919006  48.7083702  70.3674698   2.1499493  21.8874397   6.1583886
   1.8598683  21.7943935   7.0658178   2.5240073  22.7674847   6.1155548
  72.8421783  48.0086250   1.6254039  73.7508469  47.9272003   1.3357108
  72.4016342  48.4629517   0.9072540  60.0531082  54.6694107  62.8259697
  60.7672615  55.2635612  63.0566292  59.3471794  54.8971939  63.4309578
  40.1285133  30.0602741  88.8135147  40.0775375  30.9814510  88.5584335
  41.0105476  29.7896118  88.5585785  18.1240826  29.2990608  72.7877579
  17.7465210  30.0607109  72.3477936  18.1425228  28.6185169  72.1148911
  24.7566624  64.7087479  88.1095352  25.5185547  64.1497116  88.2619400
  25.0703030  65.3815460  87.5052109   5.9970412  30.4611931  85.6659164
   6.1933932  29.5248661  85.6347427   6.7533669  30.8500214  86.1052551
  60.8680840  55.4814224  16.4314747  61.8248215  55.4516945  16.4307480
  60.6007233  54.5839539  16.6297264  55.3406258   2.0727191  22.0778465
  54.4366074   1.8104997  22.2516804  55.6136932   1.5201224  21.3455181
  62.5930519  53.8964729  45.3718147  63.5097542  53.7599144  45.6110687
  62.1013184  53.6429176  46.1529312  82.9525604  18.6446171  40.5469246
  83.0881958  19.5557270  40.2867050  83.7980118  18.3680859  40.9004250
  56.0346375  50.9902725  60.8482132  55.2388268  51.4208450  60.5359192
  56.7083511  51.6685677  60.8007050   6.4806361   8.4687243  86.0652237
   7.3340259   8.8061142  86.3374863   6.3571711   8.8147631  85.1813431
   4.4480438  36.4415321  61.4040375   5.3673811  36.4118118  61.1391487
   4.4365087  36.0429268  62.2742195  54.3972816  15.6800690  86.0500793
  54.1807785  16.1568813  86.8513336  55.1754608  15.1710386  86.2771378
  79.8101196   5.9274268  52.0549240  79.9485168   5.3138003  52.7764091
  79.3784714   5.4070272  51.3773575  65.9405365  22.1841469   6.5591083
  65.8911819  21.6173439   5.7893467  66.2434082  23.0256252   6.2179155
  56.7995262  15.1507616  67.6445236  56.1480751  15.6188335  68.1667862
  56.7432823  15.5508833  66.7767868  17.6373310  64.7193222  61.7817154
  17.3798294  65.6115494  62.0137787  17.0699062  64.1604919  62.3127289
   4.3847446  48.7031975  36.2035484   3.8969574  49.2856941  36.7857780
   4.5060320  49.2122879  35.4020805   0.7533973  50.0039597  44.3602982
   1.4677228  50.1459351  44.9814377   1.0923243  49.3477325  43.7514229
  62.8628273  66.3254852  58.1663704  61.9202499  66.4055710  58.0202026
  63.1402092  67.2036743  58.4272881  60.9218445  10.0604973  19.9033527
  60.5005951  10.7539911  19.3955669  60.3916817   9.9890785  20.6971169
  59.0300865  40.4470062  46.4252968  58.6875038  41.2372284  46.0076637
  59.2955704  39.8866081  45.6961174  80.7241058  70.0588913  88.5663300
  80.6363602  70.3787308  87.6684265  81.4715958  69.4617615  88.5359039
  34.0205383  59.2626495  65.2131653  34.8971443  59.3642464  64.8423996
  34.0457344  59.7636795  66.0283737  31.9744835   4.5884342  10.4232845
  32.0202370   3.9796228   9.6860695  31.3785076   5.2770581  10.1285954
  82.4393997  15.7467966  20.2315311  83.0916214  15.3985720  20.8394604
  82.6190109  16.6864624  20.1999588  47.4561653  30.5067558  15.7406902
  46.5084686  30.3965778  15.8179178  47.6005058  30.6961937  14.8135920
   3.2909770  14.5470676  48.4147263   3.3648720  14.2143192  47.5202713
   2.7959514  15.3616266  48.3271141  64.0387421  35.0552979   0.2303511
  63.9357872  34.1865616   0.6188467  64.9832077  35.2107086   0.2380381
   8.3373375   1.5316404  19.0261765   7.8108797   1.8829974  19.7442436
   7.7888155   0.8497378  18.6384087  64.2523346  30.4556389   4.1184087
  64.5563660  31.3457375   4.2959471  65.0497437  29.9657860   3.9173985
  86.1865234  57.4215202   4.7208142  86.0721741  56.9932098   3.8724594
  85.2968292  57.6302223   5.0056133  54.5365028  31.9085121  14.6666718
  54.1437759  31.8850822  15.5392818  53.8361092  31.6209850  14.0810022
  46.3150253  54.0039978  80.5657578  46.2129250  53.4193573  81.3167572
  47.2615433  54.1134377  80.4743652  66.9025650  27.7150536  79.0169830
  67.4560318  27.6837864  78.2366409  66.0577850  28.0334358  78.6988525
  75.8140335  45.1606483  82.5498123  75.5648117  44.2432251  82.4381943
  76.6419754  45.1273270  83.0290070  69.8156357   4.4000759  65.3584671
  69.2931976   3.9996281  64.6635284  69.1741562   4.8361697  65.9193192
  40.4646225  24.5676231  19.8110981  39.8724670  25.1473846  19.3320751
  39.8940659  23.8917141  20.1769466  74.5932999  24.9171638  74.2873764
  75.2069855  25.2622967  73.6389084  75.0201874  25.0757618  75.1293030
  72.8935852  40.9704666  19.6712208  72.4580536  40.2576294  19.2038765
  73.1612701  40.5823784  20.5042648  51.8348885  70.7311554  60.5250015
  52.6992111  71.1204681  60.6576996  51.3352127  70.9873886  61.3001785
  49.1905441  70.0278549  53.7978287  49.9050255  69.4916229  54.1416397
  48.4343338  69.7924728  54.3353920  46.2246513  65.5623398  53.2206116
  45.6370926  66.1851654  52.7927132  46.8670120  66.1101532  53.6717262
   8.7028494  19.2395172  55.2782936   8.2207270  20.0597458  55.1733398
   8.1585188  18.7152176  55.8656998  76.3620224   8.9161959  28.9856224
  76.7374573   8.0451002  28.8572750  76.9512711   9.5031567  28.5118160
  54.1966667  56.4616966  35.8984337  54.3223877  56.0027122  36.7289505
  54.1705246  57.3879967  36.1382599  48.4476509   8.7452688  16.6422348
  47.5549660   8.4162750  16.5368652  48.7807274   8.8246498  15.7483702
  56.0293198   2.0479119  35.9509010  56.3872757   1.8430629  36.8146896
  55.5342751   2.8565340  36.0824013   9.1296625  62.2705002  10.4529953
   8.8320017  62.6240807   9.6147766   9.2432671  61.3339539  10.2911043
  26.0116882  46.6040726  42.2813568  25.4003716  47.3352318  42.3704071
  25.6895618  46.1132698  41.5253258   7.5850916  21.4854832  54.6317825
   7.9178925  21.6574574  53.7509308   7.5959096  22.3399944  55.0629730
   0.3027760  41.4994240  88.3315582   0.2686631  40.5612602  88.1446991
   0.3045169  41.5533867  89.2872314  70.7929306  62.4473228  81.7380142
  71.6099777  62.8895950  81.9683609  71.0276642  61.8762817  81.0065460
  85.7103729  70.0011597  10.2762175  86.1743088  70.4231339   9.5530739
  85.8024597  70.6110306  11.0082054  58.5706139  61.6724930  82.6209412
  58.9848785  61.3468742  81.8218231  57.6618538  61.8373795  82.3695450
  12.2851772  47.1688499  24.2095661  12.7014122  46.3793564  24.5555134
  11.8348618  47.5517349  24.9624577   4.4668365  33.4658546  88.8254395
   4.0780268  33.7355499  89.6575012   3.7259974  33.1572762  88.3037415
  56.5181847  21.7063370  34.3919220  56.2014656  20.8353920  34.6314507
  56.8050804  21.6153412  33.4832726  51.6970940  18.2320137  39.5917358
  52.2686348  17.4673557  39.6615219  50.8244629  17.8663521  39.4467087
  29.9893227  69.5786285  38.3040504  29.8662815  68.7382507  37.8626175
  29.1252670  69.9898758  38.2813377   3.9195917  28.6296310  25.9625072
   3.4781315  27.8353443  26.2632637   4.1540022  29.0925541  26.7668629
  44.9546165   5.9754577  70.9367065  45.4147186   6.6401367  70.4241257
  44.3289375   6.4710712  71.4650269  57.6090126  57.1521301  34.5524597
  57.7519341  57.8674355  33.9326668  57.2150459  57.5726166  35.3167992
  40.7007332  60.0869141  41.0484962  41.3354416  60.6719437  41.4621658
  39.8760033  60.5721207  41.0734940   4.7020907   2.9051218  31.5664482
   4.7263465   3.7477086  31.1129150   3.7696989   2.7223220  31.6824703
  57.8442192  70.2433014  43.5864105  58.2413330  69.7111206  44.2758408
  58.5189819  70.3013000  42.9099770  10.3592577  43.3137970  57.6534233
  11.1957445  43.7625732  57.7764015   9.7944193  43.9683342  57.2426071
  18.8126335  11.8237638  16.9287853  19.0438080  10.9917154  16.5158882
  18.3663902  12.3169289  16.2403908  39.6730995  64.2615280  63.3404503
  39.9010696  65.1844482  63.4521484  38.7459564  64.2139053  63.5736198
  24.6818867  45.7446861  85.1267548  23.8773041  45.4025536  84.7371140
  24.4098988  46.5470543  85.5722427  14.0239592  71.2349396  17.8819733
  13.5012169  70.4675369  17.6494484  14.4985123  70.9715271  18.6704178
   6.4358902  28.2988434  43.4528236   6.0761762  28.4724712  42.5829430
   6.4526639  27.3440704  43.5188675   2.9580595  14.4439421  10.6558619
   2.3111641  14.8813620  10.1023073   3.7968402  14.8167543  10.3844032
  31.8968678  60.2434464  39.8585587  32.0641212  61.1755333  39.7190247
  31.7131748  60.1706505  40.7951431  35.8233986  36.9191971  64.2838745
  35.7916069  37.8737907  64.2208252  35.2925224  36.6127930  63.5486755
  25.1152267  36.5547867  78.3421631  24.9469681  36.6448250  79.2801437
  25.1952133  35.6111908  78.2026672  50.4317513  18.0151634  55.8909225
  50.6221848  18.8544426  56.3099403  50.3104477  17.4059353  56.6191788
  81.6079483   7.7980037  17.4754772  81.4082489   6.9965363  16.9917412
  80.7551498   8.2059574  17.6255722  71.1992493   7.1994715  19.2942829
  71.8121109   7.8746204  19.0030766  70.6193695   7.6508474  19.9076633
  47.8390846  53.7459145  72.6742325  47.9666138  53.9427948  71.7462158
  48.7037125  53.8686371  73.0661316  44.8855515  26.9850788  59.0246048
  43.9432716  27.1111526  59.1361656  45.0775871  26.1785603  59.5030212
  53.5654984   0.9184221   5.7494035  52.8624573   0.6320024   6.3324370
  53.4987869   1.8732837   5.7448258  76.4082260  51.3324394  57.2033958
  75.8997421  50.8533401  56.5490761  77.2971725  51.3515816  56.8489418
  57.9619789  58.5103035  47.9586525  58.5681267  59.0678787  47.4708748
  57.1348114  58.5816040  47.4822693  44.9085884  34.1114616  17.1284122
  44.3347435  33.4061623  16.8292656  45.7869682  33.8306847  16.8718014
  19.3249397  16.2305546  66.0527420  19.1107216  15.4809904  66.6081619
  20.2704697  16.1664944  65.9181976   3.9248996  27.8780537  40.9874611
   3.9414160  28.8350048  40.9731064   4.4015241  27.6184254  40.1990128
  35.9431763  58.1407928  75.5539551  35.7712669  57.2080307  75.4249878
  36.3645706  58.4212418  74.7415466  64.5223312  32.9418106  10.3076353
  64.7402954  32.0724106  10.6435966  63.7189217  32.8096085   9.8043604
  24.8081093  35.7995148  26.9733505  24.8270359  36.0718880  27.8907852
  25.5714588  35.2301292  26.8767548  73.9352570  33.3092461  52.8353081
  74.1937866  32.3920975  52.9260292  73.0452347  33.3430138  53.1859589
  44.2847633   7.8483343  75.6198425  44.3844948   7.2864447  76.3883286
  44.8888893   8.5745974  75.7741318  72.2153244  71.2602997  82.6172028
  72.5079269  70.3706970  82.8152390  72.7922745  71.8227997  83.1338806
  28.8147640   4.6163688  40.0582695  27.9880676   4.5033288  40.5273399
  29.4611988   4.1632609  40.5996056  46.0014114  33.1342087  19.9824772
  45.4857483  33.8824844  19.6817951  45.5915489  32.8772774  20.8084507
   3.9903555   8.8162975  87.0030594   3.6815507   7.9546747  86.7229156
   4.9324298   8.7995777  86.8343887   6.7321978  55.6367912  47.2063828
   6.8720484  55.5001488  48.1434021   5.8514757  56.0069962  47.1471481
  54.8373260   4.4162450  36.6332550  53.8955154   4.2960138  36.7547836
  55.1384392   4.7978439  37.4578438  75.1040268  41.5872841  41.0600319
  74.6735382  41.6683083  40.2089462  74.6017685  42.1615410  41.6381226
  53.8536949  48.3091469  84.5516281  54.3135109  48.7093048  85.2896500
  53.1029816  47.8672256  84.9483261   3.6712296   8.8127537  39.9032097
   3.6935887   9.2377939  39.0458450   2.7552445   8.8699989  40.1751022
  69.0158310  11.7914543  10.6086254  69.6536636  12.3853760  10.2128277
  68.7530289  11.2114210   9.8939734   3.2333653  35.4512482  26.5723076
   4.0315700  35.9745255  26.6449699   2.7357075  35.8697853  25.8698864
  66.7162247  17.3056469  82.1539230  66.5544739  17.1930332  83.0906143
  67.6521912  17.1340752  82.0501709  61.9281311  42.0075417  77.9826050
  61.6993027  42.6718559  77.3325577  61.6722031  41.1785698  77.5782089
  23.3260403   9.5953026   9.6830769  23.2431946  10.2964067   9.0366859
  23.0122719   9.9840136  10.4995842  77.0117340  43.4533958  44.1943130
  76.2736206  44.0033073  43.9316177  77.6629715  44.0702209  44.5284576
  85.3800964  55.8191490  39.7892227  85.3516006  56.6928368  39.3992424
  85.0446091  55.2402611  39.1047020   0.3167563  51.4801292   3.3793716
   1.1279244  51.1301956   3.7478611   0.5061551  51.5935364   2.4479754
  62.7102203  67.9317169  50.3590546  61.9277992  67.3836670  50.2983322
  63.3216438  67.4186096  50.8873634  68.8600922  68.5012894  34.3300972
  69.4754791  67.7712250  34.3974533  68.0511856  68.1037369  34.0078239
  72.3670807  40.0735931  81.0540771  72.9782562  40.6952477  80.6588058
  72.2389450  39.4037247  80.3824463  86.1273041  21.3365631  33.1856575
  86.5233994  20.6789989  32.6138649  85.7729874  20.8339367  33.9191818
  59.2882042   9.3927660  41.2177773  59.0842972   8.6501465  40.6492996
  59.9064903   9.9194555  40.7112656  51.3966713  66.2988358  73.9746399
  50.5587578  65.8391266  73.9216919  52.0425339  65.6534119  73.6873627
  36.3804092  64.2323456  46.1877327  37.0714264  63.8507271  45.6463547
  35.6967201  63.5628090  46.2105026   7.9019246  58.7252655  39.2131271
   7.9962416  58.9341850  40.1424789   8.0848970  57.7872925  39.1587257
  56.0120239  62.6095276  36.7056274  56.2056541  62.6610565  35.7696342
  56.8611984  62.7232132  37.1324921  51.0350990  52.6170158  74.1040802
  50.9143906  53.2550812  74.8073120  50.1861687  52.1814842  74.0275269
  53.8014069  69.1806717  45.0120621  53.9936485  69.1555786  45.9494209
  52.8972626  69.4907837  44.9612122  79.8266602   3.1545043  14.1548033
  80.4016495   2.9337039  14.8875189  79.8122559   4.1115050  14.1416044
  82.1360931  67.1270828  76.5796814  81.4463806  66.8837204  75.9621887
  82.7792740  66.4215393  76.5106201  79.8629837  47.0900154   3.5434804
  79.4444504  47.9152374   3.7885625  80.7923660  47.2296143   3.7251275
  53.8164902  46.1238785  88.2844849  52.9016457  46.1606827  88.5636520
  54.0855904  45.2229729  88.4638901  74.6885376  55.8127518  10.5462437
  74.1920013  56.0344887  11.3339710  75.6050873  55.8837013  10.8129663
  38.0251999  58.6745796  29.6401653  37.4198074  59.1122932  29.0417175
  38.0242157  57.7606087  29.3557568   2.9355030  41.2511063  79.0919571
   2.0526514  41.2723122  79.4612198   3.0251229  42.0886307  78.6372604
  18.2204514  50.0490646  41.5239525  18.5195332  50.9467163  41.3790321
  18.8752575  49.5048790  41.0865479  29.6675301   9.4525909   8.3242645
  29.2896729   9.0809383   7.5271888  28.9152145   9.7867432   8.8127260
  57.1329803  66.7618713  41.0819473  56.5360680  66.4727936  41.7721367
  57.0791473  66.0763245  40.4160919  63.5431709  24.1032810  14.6010628
  63.5489502  24.7905254  15.2673159  62.9138374  24.4084892  13.9475946
  66.3750153  51.6311874  87.5456848  65.8941803  51.6858482  86.7198257
  65.6959839  51.6519356  88.2200089  65.2563553  35.4545898  35.2649918
  65.6033325  35.0378571  36.0537720  66.0264969  35.8168755  34.8269691
  56.9397545  22.7995872  46.1613655  57.2334976  23.1877747  45.3371964
  57.7422104  22.4838810  46.5768433  83.5918808  43.4975090  56.6947708
  83.0841217  44.1716499  56.2431679  84.3097687  43.9759445  57.1094666
  45.9878349   5.6294317  55.3162231  46.1549911   5.0318642  56.0450630
  46.1044464   6.5025506  55.6907845  30.4790478   0.2918046  62.8916054
  30.3450718   0.4580151  63.8246956  31.2985935  -0.2011057  62.8513794
  11.9274149  64.9591599  68.6537399  12.7327547  65.4528046  68.8085709
  12.2163925  64.1633606  68.2071609  32.6185608  48.1132851  16.2528973
  31.6646786  48.1527596  16.1837502  32.7806664  47.5559464  17.0140324
  77.9779739  26.6282902  26.2616787  77.2610855  27.1350460  26.6431293
  77.8992386  26.7741356  25.3189354  50.3776245  38.3053741  21.1068058
  50.0598869  37.7046623  20.4326992  49.6096001  38.4844971  21.6492863
  19.6827087  44.6855316  81.4946518  18.7455273  44.8612633  81.5785675
  19.7289639  43.8463936  81.0364609  34.9212990  67.6984940  51.2384338
  35.7269592  67.2499924  50.9815369  34.9370079  68.5195618  50.7466736
   0.3631296  24.3917942   4.6524568   1.0580266  24.0543537   4.0872278
   0.8073363  25.0048542   5.2381792  75.8809052  24.4945297  28.5107098
  76.0062943  24.4971066  29.4596577  76.7561874  24.3435860  28.1538696
   4.5612988  61.1334801   1.3473009   4.4173694  61.3085556   0.4173200
   4.6039295  60.1791306   1.4075611   8.1464691   7.0723896  70.1036682
   8.1701584   7.7791753  70.7487411   7.3244896   7.2062449  69.6317902
  36.8210068  12.9924850   0.8231865  37.5723457  12.7934656   1.3818583
  36.8679810  12.3456135   0.1192101  37.3425369  24.6356716  80.8873444
  37.4907722  25.4895153  81.2938080  38.0982018  24.5091038  80.3135986
  44.4835777  51.3156509  23.7336082  45.4012070  51.2419777  23.4713898
  44.4649429  52.0616150  24.3331223  44.2162056   2.0221019  72.1904755
  43.7507591   1.2215267  72.4326935  43.5457230   2.7048967  72.2123337
  64.7009201  63.3928413  20.2023544  65.0183487  64.2940750  20.1452980
  65.4504471  62.8951454  20.5290680  79.8007736  36.1879921  32.6013565
  80.2570648  36.9138908  33.0269203  80.0367203  36.2657814  31.6769600
  14.2680998  70.7540131   2.6289554  14.6778746  71.3056030   3.2953365
  14.5538473  71.1312637   1.7969344  78.4592361  25.2840061  78.3177032
  79.2993469  25.0760212  77.9088058  78.1047745  24.4350319  78.5819550
  79.5866776  56.7145042  39.9501686  80.4863510  56.8821640  39.6696091
  79.0853958  56.6741219  39.1357231  24.8676853  70.2053146  27.4565315
  25.4659634  69.6407776  27.9460125  24.8967838  71.0430145  27.9187431
  40.9882355  56.9907761  28.4145908  41.3614540  57.6826630  27.8684883
  40.0741653  57.2478790  28.5354462  35.2383995  58.0189056  16.9810677
  35.3663597  57.5209732  17.7884846  34.4350700  58.5171127  17.1316776
  51.3926582  37.1293640  11.6068583  52.1826820  37.4378052  11.1630583
  51.1857643  37.8207664  12.2356606  62.0293274   2.8881705  52.1836624
  62.3312874   2.8726115  53.0918541  61.2527466   2.3285842  52.1798439
  83.0851364   2.0243349  57.0173950  83.2432022   1.1386005  57.3440742
  82.4004440   1.9174438  56.3570824  62.4842110  33.2875519  39.1256828
  63.1140823  32.9439316  39.7592583  62.6400948  32.7763176  38.3315964
  58.1942596  61.0259285   3.0952790  57.3597946  60.5569954   3.0976686
  58.7939911  60.4452209   2.6269481  85.7353592   3.8273156  48.7543335
  85.9809875   3.1686738  48.1046486  84.8188324   3.6366613  48.9539795
  43.6990852  48.4441071  49.0863190  43.9091454  47.5876389  48.7140694
  44.1172867  48.4401360  49.9473190  60.7621803  63.4261818  16.1568737
  60.7410240  64.1143494  16.8218555  60.5848885  63.8824387  15.3343000
  39.8268661  59.0427475  49.0306702  40.2984238  58.7408676  48.2543068
  38.9635925  59.2954483  48.7033615  85.5489731  58.5428276  39.3847351
  85.2720871  59.4304390  39.6121368  86.2295074  58.3329697  40.0243149
  59.4259224  28.2644405  54.5737419  59.7500725  28.9952412  54.0473442
  59.8703270  27.4958725  54.2159195  42.6666069  34.7857170   3.1144283
  43.1308212  33.9542198   3.0177422  42.5426483  35.0965118   2.2176163
  46.7711525  59.7120628  82.7630386  46.9134407  60.0129890  83.6604996
  47.6515274  59.5646553  82.4174271  28.8992500  54.8766174  11.5458031
  29.0659332  54.8971252  12.4881554  28.9755173  55.7897873  11.2691536
  26.3466301  59.8140717  40.1561394  25.5955563  59.4261932  40.6052208
  26.1333370  60.7450676  40.0930176  35.4749794  42.4536629  77.4939957
  35.6151009  41.9871941  76.6699829  35.9734993  41.9534683  78.1401520
  67.0242920  69.1679611  61.7727432  67.4092407  69.0514069  62.6413460
  66.6221237  68.3224869  61.5735855  30.5097828  51.3455391  55.3397827
  30.3768501  51.9744835  56.0489998  30.5733452  51.8839760  54.5509415
  51.6449394  57.1860161  64.4666519  51.6452408  56.5729065  65.2017212
  50.7332573  57.4673691  64.3898010  20.5054569   1.2606379  88.9675140
  21.3850918   1.3614352  89.3312607  20.2212639   2.1545551  88.7767792
  45.9480705  57.0996819  83.9362259  46.1237373  57.9557114  83.5456009
  45.0528030  57.1670532  84.2681732  13.1776323  56.9709282  34.5170670
  14.0183554  57.0752220  34.9626427  13.3809566  56.4485435  33.7411766
   9.3487406  60.0782394  59.0421181   8.5121603  60.5192680  58.8942719
   9.9514599  60.7821083  59.2819786  79.2469482  15.0614195   3.1131499
  78.7421188  14.2835627   3.3504598  79.6016235  14.8616657   2.2468145
  18.6100960  63.2807999   7.5012631  19.4348488  63.4807701   7.9440084
  18.1734638  62.6551971   8.0793724  15.7262192  53.7698212  89.0118256
  16.1688290  54.2072525  89.7391357  15.8587151  54.3535690  88.2648926
  15.4297895  41.0849266  40.0613556  16.2605934  40.6704636  39.8285141
  15.6698771  41.7669716  40.6885757  17.7565422  46.6431351  19.9538345
  18.6656380  46.5326080  20.2323303  17.8028641  46.6925659  18.9990349
  66.7477875  24.8950291  74.8787689  65.9537201  24.8617458  75.4122391
  67.4313736  25.1816425  75.4844131  80.7258224   8.3823977  27.6728611
  80.0964813   8.4581585  28.3900948  81.2573318   9.1759777  27.7357674
  83.4311295  64.2807083  46.2574272  83.7098999  64.7036133  47.0696259
  83.0488281  64.9880524  45.7380600  86.5076141  27.3729801  86.6893997
  86.1619186  27.2146854  87.5678482  85.9395370  26.8620472  86.1127930
  25.2356758   0.5726670  48.1815033  24.4785767   0.6078923  47.5968742
  25.6943150  -0.2294076  47.9313850  42.8437805  63.0208359  28.6708183
  43.2880402  63.5468330  28.0058384  42.4437141  63.6634865  29.2566357
  83.6466370  10.6473360  83.3353119  83.4034805  11.4232883  83.8402939
  83.1981277   9.9251003  83.7751389  71.9103241  68.9876938  56.6828766
  72.4111862  69.2005920  55.8954544  72.5203552  68.4903107  57.2275810
  59.6715012  23.4712315  14.8107767  60.2902870  24.1113529  14.4592409
  59.0135078  23.3713284  14.1228094  35.7476921  42.4872017  29.2336903
  36.5586472  42.5817986  28.7340584  35.7517776  41.5759430  29.5266476
  43.7322273  36.5696640  17.2319221  44.3252602  35.8204155  17.2882500
  42.8963966  36.1933632  16.9562092  12.2862558  45.0922356   9.8365679
  12.9304743  44.6110382   9.3172779  11.7541122  44.4115906  10.2486086
  67.4094772  29.2977982  40.5015488  67.6101151  30.2182922  40.3322220
  66.8396149  29.3143864  41.2704506  73.7954788  50.3351402  16.4657841
  74.1781006  50.6336937  15.6407385  74.1841202  50.9044609  17.1299095
  67.0619888  60.3407249  71.1125946  66.5721664  61.1363258  71.3207321
  67.8267288  60.3730240  71.6873627   2.4222653  65.0392227  15.1112404
   2.3303590  64.0870209  15.1443138   1.9898195  65.2934113  14.2960052
  64.4764481  59.4651985  32.5463219  65.0267181  58.7739944  32.9146614
  65.0782623  60.0002098  32.0288162  22.7868042  56.5961113  65.6738358
  22.1288414  56.4072762  65.0047607  22.3221054  56.4888000  66.5037537
  44.4727554  65.0691299  12.0565510  45.3966789  65.0168991  11.8118753
  44.0483704  64.3865509  11.5367374   8.1181946  31.3163719  88.2177505
   8.7241430  30.5839939  88.3303528   7.3780646  31.1045036  88.7865677
  76.5330505  51.4515686  53.8588333  77.4718781  51.5596733  53.7066803
  76.1175308  51.9255447  53.1384735  81.5925064  32.4761848   8.2865715
  81.4422760  31.9363499   9.0626135  82.5251465  32.3710327   8.0985537
  21.3980618  17.0934544   0.6952630  22.3135281  17.0810585   0.4159791
  21.3216438  16.3541737   1.2984693  70.1496201  44.7996292  46.7035370
  69.4217377  44.2312889  46.9553375  70.2083817  45.4413528  47.4113312
  39.6900482  45.5191536  62.7766342  39.2497902  45.1954536  63.5625229
  40.1758347  46.2884789  63.0739288  34.3690834  68.0000229  17.7201271
  34.5020256  67.0911331  17.9893513  33.6325760  67.9637527  17.1098175
  77.6730728  27.4572887  63.1452560  78.0685043  26.8467331  62.5230980
  77.0069733  27.9196949  62.6366043  66.6305237   5.4507823   8.1525393
  66.6669540   4.7111616   7.5460196  67.5399323   5.7378011   8.2351484
  15.1113148  52.8790283  57.6359825  15.4459057  52.6511230  56.7686081
  14.8030357  53.7805977  57.5444870  70.7761688  40.2804756  12.1197433
  70.1690063  39.8112831  12.6919632  70.3443146  40.2861519  11.2655172
  63.9276428   3.1283979  12.5427217  64.1199036   2.7741919  13.4109402
  64.7532730   3.5177348  12.2546663  67.9516754  18.5138397  34.9751434
  67.0577850  18.3962803  34.6536179  68.5063858  18.2894096  34.2280464
  45.0630150  10.7902527  65.2823410  45.3480835   9.9926014  65.7281189
  45.5037308  10.7605944  64.4331512  48.4958229  55.8862076  75.7918243
  48.9373550  56.5592842  76.3097534  47.8506851  56.3674660  75.2737350
  23.7034435  44.8601837  12.6665859  23.7515697  44.9862938  11.7189512
  24.2067566  45.5882835  13.0309725  83.8999710  70.6134109  44.3150520
  83.9074020  69.6963043  44.5890808  84.6888809  70.7104263  43.7817192
   2.1683216  46.0289497  16.2624817   2.5579221  45.1760941  16.4550457
   1.2605253  45.9491959  16.5553570  48.3182182   5.1220655  72.2966309
  47.6961823   5.6229053  72.8243256  48.4256210   5.6389623  71.4981918
  84.8882446  56.5054588  59.3131561  85.0889740  57.3882561  59.6239853
  84.4735947  56.0764923  60.0616798  66.8590622  54.4929733  29.3303528
  66.9194412  53.5760994  29.5985489  66.0488434  54.8070755  29.7317486
  72.3203812  59.2245064  75.7782898  73.2325439  59.4545898  75.9551010
  72.1286469  58.5160408  76.3927307   8.0093880  71.1025391  47.7553482
   7.4238825  71.2523575  48.4976196   7.7458000  71.7553406  47.1068077
  63.1919174  44.8900414  10.6135826  63.0803642  45.2612495   9.7383728
  62.3431740  45.0169754  11.0375528  13.5338583  65.5574646  75.8479309
  13.2578754  65.1491089  76.6684875  14.3675165  65.9781723  76.0582962
  30.1557026  51.6877480  10.1049728  31.0817490  51.4695969  10.2102385
  29.8878117  52.0157051  10.9634075  72.6553726  47.9981880  17.5662994
  73.0930328  48.8042946  17.2926655  73.3697968  47.3878288  17.7487545
  73.6903534  59.0394440  55.6062927  74.3603439  58.5536079  55.1253471
  74.1076508  59.2633247  56.4381409  37.1065826  34.5158424  70.5636368
  37.7191887  34.4504204  69.8310623  37.0004654  35.4567566  70.7038193
  35.9573631  24.8539524  86.4917831  35.6726608  25.7254562  86.2167206
  36.8946457  24.9503174  86.6604614  48.4183731  21.7265816  62.5690765
  47.5172577  21.5579929  62.8444023  48.9132614  20.9753361  62.8961067
  65.8914337  54.1462784  22.4026909  66.1988144  53.2838364  22.1235180
  65.8138885  54.0764694  23.3541870  32.9221344  63.6666222   8.2062006
  33.7207527  63.4709206   7.7161608  32.3324432  62.9405365   8.0029907
  74.1567459  13.3649321  25.0781822  75.0273132  13.3425951  24.6808720
  74.3120804  13.1861115  26.0056133  30.9001007  24.4637108  69.0111618
  30.8251667  24.3650780  68.0620041  31.7880135  24.7939186  69.1482849
   7.6582055  41.9679947  37.8753014   7.2342095  42.5682869  37.2620239
   6.9365659  41.5892487  38.3773155  70.5919495  67.2521667  30.9377308
  70.4271088  68.1565552  31.2044659  70.6336899  66.7637863  31.7599087
  61.4096794  57.9676018  25.8743725  61.3230705  58.9206772  25.8549805
  61.6308098  57.7656479  26.7835178   6.1317830  23.6993847  29.5757713
   6.4846044  24.1764603  28.8246746   5.5838189  23.0161209  29.1896172
  53.2188034  24.9987259  55.8109360  52.7154846  24.7967014  56.5996628
  54.1312599  24.8684826  56.0691795  15.7822828  39.2717934  54.2756996
  14.9037132  39.6515427  54.2639503  15.6784391  38.4422531  54.7418633
  45.8817673   6.5444794  73.8508911  45.1424141   6.2804761  73.3032684
  45.6157074   7.3850756  74.2235107  58.7369461  43.8492012  14.6760445
  58.8749924  44.2672539  15.5259905  58.0609894  44.3802109  14.2549181
  45.0701065  32.1581116  39.2307663  45.8461876  31.6715584  38.9529305
  44.8038826  31.7377357  40.0484695  67.9479141  18.4798641   8.6098089
  68.4011612  19.0839386   9.1979303  68.5537262  17.7459488   8.5069227
   4.8636680  28.4356918  17.1435738   5.0167813  27.6327362  17.6416206
   5.2563319  28.2650661  16.2874584  22.9115219  55.0210075   6.9135962
  23.8388176  54.7879715   6.9588585  22.4863873  54.4346695   7.5394545
  25.8039513   3.3881829  24.9051170  26.3491058   4.1442208  24.6873016
  26.2248669   3.0028372  25.6736031  40.8769150  22.0781517   3.0332541
  41.3106003  22.9220009   3.1599910  40.2863922  21.9974670   3.7822590
   2.9524705  35.9312134   6.9896770   3.4066808  35.4492531   7.6807914
   2.1076591  35.4892311   6.9049501   2.3531983  40.0975189  70.8627319
   2.5391963  40.0377197  71.7997818   2.5313206  39.2191315  70.5266647
  16.1268120  37.5681725  45.1438179  15.1858950  37.4400673  45.2642136
  16.5320206  36.9835510  45.7843323  33.4226761  50.6305580  47.3255806
  32.8661537  51.1714783  46.7652969  33.0856895  49.7419205  47.2115669
   9.7904024  35.0558891  23.5299377   9.9741278  34.7898636  22.6289902
   9.8318329  36.0119934  23.5105419   0.1827834  16.1783123   4.5923510
   1.0135430  16.5888233   4.3524518  -0.3977237  16.9122791   4.7936845
  56.7102432  42.0792618  64.1409760  56.4254189  41.3207474  63.6313019
  57.6094666  41.8726349  64.3957825  58.3848076  57.6018715  10.1790571
  57.6219940  57.7292290  10.7430868  58.4160118  56.6571655  10.0281038
  83.9256210  36.1836891  24.4277077  83.9552917  37.0865135  24.7443542
  83.2194901  35.7768593  24.9297981  26.4695396  27.7482433  68.2825775
  26.9167023  28.4600163  68.7404556  26.7828655  26.9526005  68.7127075
  50.4584122  -0.1021079  47.4968643  50.2703705   0.8195000  47.3193474
  49.6811562  -0.4211201  47.9554901  48.3747177  40.0786667  88.4122849
  47.8477821  39.6446686  87.7413025  47.7535324  40.2783585  89.1126328
  10.4413719   5.6091933  69.3001480   9.7085590   6.2148857  69.4112930
  10.0680494   4.7461624  69.4791412  31.8627415  32.4500694  75.0893326
  31.4223690  31.7067432  74.6772995  31.4673729  33.2196732  74.6799088
  27.0686111  56.0331535  67.5432510  26.1936913  55.7964897  67.2354584
  27.4174194  56.6034012  66.8581390  22.6717548  -0.0988843   6.7821398
  22.5468445   0.8411292   6.6517396  21.7845116  -0.4572386   6.8068943
  49.4000931  70.8450775   4.3128581  50.3374176  70.6524887   4.2891102
  49.2191696  71.2589951   3.4689569  41.9462090  29.4389172  85.1711349
  41.1181297  29.8926105  85.0140381  42.5249557  29.7487068  84.4744873
  42.6720543  62.5684357   3.9007676  43.4026070  61.9837418   4.1024141
  43.0623016  63.4423065   3.8838406  39.3032188  17.9237118  73.5028152
  38.5205307  18.4726486  73.4549255  39.9551086  18.4734821  73.9375839
  77.9952087  66.4855576  28.6611691  77.8710403  66.9480591  27.8323727
  77.1433563  66.0892487  28.8442554  69.8372192   0.9985033  18.4354916
  69.7108002   1.6236863  19.1492119  70.7340393   0.6837149  18.5488644
   4.4841599  15.2329283  16.6876984   4.2990432  14.5199261  16.0764771
   5.4344707  15.3408585  16.6490669  47.7869797  36.3627853  67.8184967
  48.2671928  36.3769531  68.6464005  48.2325211  37.0102005  67.2720718
  83.4511566   8.9165096  61.2852364  84.1240768   9.1903791  60.6620102
  83.1988831   9.7228880  61.7350616  40.9619751  56.8950272  38.2042236
  40.4729424  56.0846596  38.3470001  40.2907333  57.5482025  38.0066719
  28.6604099  66.9938431  14.5202551  28.1608086  67.5591965  15.1093264
  28.4676170  67.3299408  13.6449852  66.9593506   8.6081972  32.2854500
  67.4845734   9.4052725  32.2143936  66.7265244   8.3934679  31.3821697
  83.6948471  23.7398014  22.2632008  82.8212357  23.7822037  22.6521034
  84.2792969  23.5793018  23.0040684  62.1356926   2.5990801  68.0663528
  61.7623787   2.7291133  68.9381104  63.0215340   2.2759204  68.2309113
  73.1340485   6.3615098   0.5265694  72.8207550   6.7263288  -0.3010715
  73.9706345   5.9518266   0.3063137  53.0879555  62.8689728  13.9058943
  53.1934242  63.7502327  13.5474472  53.3914413  62.2885742  13.2078466
  61.2444878  53.0560989  30.8882923  61.0251083  52.5174522  30.1280499
  61.6134453  52.4392509  31.5204334  41.3050880   6.6296663  76.9076691
  40.4696045   6.4174523  77.3237915  41.9208832   6.7132134  77.6357117
  83.8248672  59.3580055  75.2404327  84.1472778  58.4592361  75.1734009
  82.8909607  59.2929535  75.0408783  69.1060638  28.6452312  58.7798309
  69.6970215  28.1941166  58.1769257  68.3033218  28.1241188  58.7631683
  79.6237640  41.5440292  53.2972755  78.9006729  42.0328751  52.9043388
  79.6151123  40.6997604  52.8463097  29.7366390  43.6792374  19.5927334
  30.2813320  44.4409409  19.7910938  29.8315125  43.1112862  20.3573647
  44.9851646  37.1481514  39.1834946  44.2929497  37.7788467  38.9852638
  44.7398186  36.7824974  40.0333977  83.6991577  26.7772331  68.8084259
  83.7094040  27.6300793  68.3739319  84.4390869  26.8084755  69.4148483
  14.9573183  52.3338890  43.2208786  14.1541233  52.8115463  43.0136299
  15.1488047  51.8321266  42.4285393  27.6708832  58.3619232  69.5333252
  27.9494305  57.9452248  68.7178497  26.9406815  57.8242340  69.8397980
  84.3047867  21.9574642  49.1371918  84.3648529  21.4807625  49.9650688
  83.8133850  22.7502079  49.3523941   1.9409670  28.2702541  48.4654236
   2.1698146  28.5324688  47.5737381   2.2511592  27.3675156  48.5366783
  48.8263016  51.3651123  73.4055862  48.0266800  51.8670311  73.5634537
  48.7175064  50.5706291  73.9282608  23.3340511   4.9368787  17.3744297
  23.5797119   5.3191814  16.5319767  23.0897884   5.6874361  17.9159374
  36.9490166  67.8038483  76.6028824  37.2771225  67.3464203  75.8287125
  37.0355530  68.7323761  76.3870621  24.5701103  58.1273956  42.3339539
  24.2529182  58.9898987  42.6017342  23.9860802  57.8680649  41.6212921
  27.0584526  43.5464439  50.0068855  26.3203564  43.8526688  49.4799385
  26.9130917  43.9332047  50.8703194  74.3574295  56.2844429  33.9530830
  73.4297562  56.4735870  33.8121033  74.7192535  57.1019287  34.2951927
  27.6576462  36.7390785  19.0866508  26.8372116  36.3826447  18.7459526
  27.4102898  37.1692390  19.9051914   6.7626920  43.2178307  41.8794594
   7.5634456  43.2500381  41.3560219   6.9277301  42.5332565  42.5278053
  73.5460358  55.7239914  76.7657394  73.8814926  55.6995392  77.6618958
  72.6291351  55.9820786  76.8601837  55.2221298  51.7564316  24.0832615
  55.1536026  52.7058296  24.1841679  55.0446930  51.4092331  24.9574471
  37.9085312  10.9587374   2.6756792  37.2898178  10.9533978   3.4060218
  37.6617813  10.1997623   2.1471879  62.6123619  48.9575996  44.3386116
  61.8380013  49.3684196  43.9541359  62.2728500  48.1895561  44.7980423
  74.2112198  19.2504921  69.9722061  73.7943420  18.5123253  69.5277328
  73.5086136  19.6482639  70.4863663  31.2387428  22.3126850   6.4009609
  31.9766941  21.7080383   6.3231130  31.3283882  22.8980808   5.6489582
  55.2759171  18.1472073  74.3952103  54.5350189  18.7532520  74.3919678
  55.7343216  18.3337116  75.2145462  53.2558823  51.5182800  70.1805725
  53.0431557  50.9331779  69.4534988  52.6226349  51.2933235  70.8622055
  36.3066750  59.6691437  82.6905212  36.2401428  59.5154915  81.7480774
  36.6873779  58.8627357  83.0383835  26.4702339  65.2249832  85.4601593
  25.9755344  65.9066086  85.9150085  27.3334236  65.2392197  85.8735962
  52.4779434  43.7396088  35.1159821  53.0420609  42.9723244  35.0196838
  51.6296921  43.4577332  34.7735634  59.7390594  29.6823959  76.4033661
  60.5056152  29.8599854  75.8583069  59.2489014  29.0185261  75.9183426
  46.0067253   8.4337959  56.2329063  45.3367805   8.8005733  56.8098640
  46.6164284   9.1565256  56.0840683  48.6116333   0.5995691  29.9452019
  49.3912125   0.8050153  29.4291801  48.9358521   0.0548901  30.6624451
  84.1926651  22.4239235  53.7580910  84.4493256  21.7394047  53.1401978
  84.3935852  23.2429466  53.3052483  72.1391220  69.0691528  37.8650856
  71.7714844  68.4474335  38.4932098  71.4611969  69.1626358  37.1958275
  84.1132507  49.5129013  32.9570885  84.9934540  49.5953903  33.3240776
  83.9714355  48.5690384  32.8846703  22.9713097  36.0545692  84.3763351
  23.8574371  36.2590065  84.6750259  23.0932522  35.6777496  83.5049210
  50.9657440  32.8474579   9.6092691  51.3350143  32.2760353   8.9359570
  50.9710617  32.3149185  10.4046335  79.5749435  31.8862705   4.5852771
  79.4785767  32.0710678   5.5195127  78.7008286  32.0276794   4.2217455
  55.9064636  15.6157370  79.1462555  56.5338860  15.1291304  79.6808472
  55.2608681  14.9613314  78.8794403  67.9666977  58.8586082  87.7129440
  67.6951675  59.5083275  88.3613052  68.2630081  59.3764954  86.9644623
  34.6344032  35.3244667  62.2202072  33.7330742  35.3739510  61.9017830
  35.1693764  35.3281174  61.4264679   9.3029575  52.2669373  81.8598022
   8.9694176  51.9141579  81.0348587   9.6218948  51.5005875  82.3364792
   9.1348848  22.0728970  71.9091568   8.5363846  21.6270275  72.5085144
   8.5625191  22.5712891  71.3258591  40.6329842   5.7760086   3.9611933
  40.2681389   4.8911047   3.9691582  40.4564629   6.0999184   3.0779300
  71.8176651  17.4445896   0.0566028  71.2384491  16.6838589   0.0116417
  71.5139236  17.9319725   0.8223870  80.2111969  53.4002647  37.7163391
  80.0687332  52.4649391  37.5710602  79.8408737  53.8222046  36.9410629
  61.5950165  28.5837173  84.6703568  62.1091690  29.3827820  84.7860260
  61.3518219  28.3246365  85.5591583  75.5014038   1.0828687  47.6047211
  74.6640091   1.4118309  47.9315147  75.4514008   1.2009767  46.6561546
  17.8260956  57.0125313  73.0336227  18.6365910  57.2984543  72.6122208
  17.4948883  56.3153076  72.4675674  84.8448715  45.1368256  62.2541771
  84.8386841  44.4202347  62.8887558  85.6283569  44.9825783  61.7263565
  75.0090027  20.9698715  60.2161865  75.2668533  21.8907909  60.2569084
  75.0618973  20.7472115  59.2867470  70.6383209  12.9957514  60.6929131
  70.1824722  13.1955080  61.5105515  71.2760391  12.3232813  60.9323502
  37.5636177  52.7785873  63.2533112  36.9436378  53.1792145  62.6439209
  38.3622818  53.2975388  63.1581535  16.1173840  22.8443718  11.5075169
  16.7223186  22.5764465  10.8157778  15.4940023  23.4237404  11.0693865
  53.9532738  37.6428375  76.9510651  54.0453987  38.3334007  77.6074753
  53.3006821  37.0474815  77.3197250  73.7970352  57.4019508  38.0626526
  74.1721039  58.2358017  37.7793694  72.9147263  57.6247292  38.3595200
  74.3655319  15.5248671  42.0535355  73.5228806  15.9763088  42.1021690
  74.9620743  16.0759296  42.5601959  80.3317108  23.9973183  20.8991604
  80.5943680  24.5454330  20.1596909  80.6636734  24.4588718  21.6692238
  18.1135368  67.4785080  29.8313618  17.7664776  67.3251114  28.9525833
  17.7803802  68.3427200  30.0729694   4.9063840  40.2098389  57.4987068
   5.7717361  40.4617119  57.1762848   5.0846262  39.5724640  58.1902390
  31.4225636   6.2965369   1.8207865  31.7232418   5.7466693   2.5442991
  31.2514095   5.6814756   1.1075984  52.2175179   9.5492868  78.9538498
  51.3205681   9.2363892  79.0713501  52.4802208   9.2079220  78.0990448
  59.5843506   5.1812348  65.2638931  60.4622116   5.5562382  65.1934052
  59.7329788   4.2412033  65.3662872  70.8528061  56.5822449  66.3264542
  70.2487106  56.1872292  65.6977615  70.2857056  56.9596901  66.9988861
  41.3658981  57.2465591  41.2833214  41.1862373  58.1496544  41.0218430
  41.1275291  56.7236404  40.5178375  62.2094307  32.1738281  51.5189247
  62.2764091  31.8521423  52.4179611  61.5593300  32.8749962  51.5632362
  42.5368729   4.9205303  81.9433517  41.8029175   5.4747639  81.6780853
  43.2933235   5.5070457  81.9400482  34.5558586  66.1739426  79.9795532
  34.8143883  67.0929031  79.9094849  34.3711777  66.0473785  80.9102020
  56.2897835  51.5008621  34.2816811  55.7939873  50.7424202  34.5901985
  55.8415680  51.7699776  33.4798622  44.7026863  36.6156654   6.5954356
  44.6368523  37.5094337   6.9317050  44.3087959  36.0731087   7.2786007
  51.1890488  19.2679768   4.2231979  50.2617950  19.2284088   4.4574380
  51.6492691  19.0154228   5.0236011  64.9076767  21.6781960  22.9957790
  65.5910645  21.5433598  23.6523151  64.0881882  21.5461235  23.4724598
   3.5378659  32.9986229  74.6603317   3.9955928  32.4637222  74.0117950
   4.2098122  33.5890236  75.0011292  47.9270210  39.1716270  22.4162350
  47.0833817  39.0963020  21.9703293  47.9650192  38.4049072  22.9880104
  57.9937325  34.7441978  56.0846558  57.9348602  35.6806793  55.8955269
  58.9180336  34.5314445  55.9556885  59.2194710  58.2086067  54.3180313
  60.1178207  57.9228668  54.4840202  58.7618752  58.0521469  55.1440773
  63.0727844   0.5027183  30.0704288  63.4527550   0.7830632  30.9030533
  63.1941872   1.2520748  29.4873695  78.0337677  57.7805862  24.9416351
  78.9358368  57.4605179  24.9493465  77.8376541  57.9662666  25.8599453
  83.1461563   7.7401700  22.7208462  83.3239136   8.6782379  22.6525612
  82.3087158   7.6879978  23.1814995  71.2875671  28.2594910  27.9548569
  71.9795990  28.7630844  28.3834782  71.3609161  27.3826733  28.3317451
  34.1192932  44.8855896  75.2714157  33.9913635  45.7366371  74.8523865
  33.7127419  44.2598953  74.6718674  24.0278568  56.5482368  15.9905329
  23.7025871  55.6553345  15.8758373  24.1609802  56.6352539  16.9344273
   5.7586999  27.9551029  13.8491573   6.1426864  27.2020035  13.4001265
   6.4982510  28.5414867  14.0086832   4.4049430  43.8853302  72.9119186
   4.2780008  43.2488060  73.6154480   3.9410367  43.5105171  72.1632233
  85.0956573   7.7935643  10.3327503  84.8136597   8.0859880  11.1994667
  85.3346405   8.5990839   9.8742151  72.1265030  43.3189812   4.1511393
  72.1401596  43.3850822   5.1059566  72.6260834  44.0784225   3.8513057
   1.9569385  61.7757187  37.3028831   2.4822881  62.2681389  36.6721992
   2.0580831  62.2552872  38.1250839  66.3841782  53.1267357  64.2059937
  66.5897598  52.2576332  63.8615761  66.8079910  53.1507835  65.0639191
  79.7629471  15.9952650  83.4669800  79.7267151  15.0394182  83.5027084
  78.8513412  16.2730255  83.5567169  53.2513008  41.3542900   6.8380423
  52.6241226  41.6646118   6.1849113  53.3651428  40.4251175   6.6382608
  70.0579453  68.2374802  20.6776562  70.8607559  67.8240509  20.3601532
  69.3734741  67.5887299  20.5138035  45.6581573   6.5216036  64.1994705
  44.8300514   6.6136961  63.7283058  45.8873558   5.5973153  64.1025620
  81.7321243  71.2952957   1.8272026  81.2019806  71.9817810   2.2320678
  81.2665100  71.0780640   1.0195868   7.8350263  58.4910507  87.9939499
   7.3567905  58.6015282  87.1721725   8.7527809  58.4254684  87.7300262
  13.5705490  36.7170982  17.2464447  13.5929127  36.1921196  18.0465260
  13.1386614  37.5309448  17.5059814  51.6885490   9.7082729  59.8160896
  51.0697212   9.9228115  60.5141258  51.9518433  10.5569611  59.4602280
   7.3675990  38.8470802  55.1440659   7.2046738  37.9053574  55.0906754
   8.0475988  38.9350128  55.8119736  66.2394485  11.4063301   8.6008177
  65.4332657  10.9577808   8.8559875  66.8835144  10.7048607   8.5041437
   1.1202261  54.5391769  74.3471146   1.9015850  54.1838264  73.9235229
   0.3936396  54.2350197  73.8032532  39.6561546   5.9250560  80.1269150
  38.9419250   5.8866220  79.4908066  39.2620773   5.6295638  80.9476547
  60.9671707  39.6666985  63.2710533  60.4682121  39.7005119  62.4548874
  61.8805847  39.6073494  62.9910851  41.5656929  62.8546562  11.3974724
  40.7804184  62.8660851  10.8502598  42.2692947  63.1359291  10.8126087
  70.0200806  14.7322588  32.2223396  70.8340302  14.9053316  32.6953735
  69.3946686  14.4861135  32.9038849   6.4515324  21.4911633  60.9359550
   6.0104046  21.5504475  61.7833748   7.3588762  21.7336521  61.1207733
  23.0352840  65.5466919  38.7734299  22.7740288  64.7360153  38.3366394
  22.9423523  66.2216797  38.1011314  32.8802376  57.8800697  18.6574936
  33.3360176  57.0905533  18.9493179  32.0292969  57.8405647  19.0940361
  35.8946762  45.2104263  63.9849281  36.8228226  45.3124962  64.1955414
  35.4796944  45.0077972  64.8233566  23.0480919  60.3506927  86.2910309
  23.5639668  61.1216393  86.5271454  22.1754951  60.6953430  86.1012268
   1.3685864  55.2569122   4.4296050   1.3076063  54.6116791   5.1340113
   0.6456414  55.8618851   4.5957060  59.8260612  36.8405190  11.1592627
  59.4337234  36.7248917  12.0246725  60.7004623  37.1869850  11.3370533
  26.7164516  36.6921387  15.4414530  26.1841412  37.4742813  15.2960844
  27.4346142  36.7710876  14.8135681  75.3555679  43.3001366  15.2690725
  76.0131149  42.6484413  15.0258474  75.1037369  43.0645790  16.1620026
  69.8082352  32.1991310  39.2617493  68.9936600  32.0315742  39.7356949
  69.8475494  33.1522369  39.1825447  44.8525200  25.2536221  10.5096617
  45.6155472  25.8157082  10.3751955  44.6956940  25.2844086  11.4534254
  61.8779144  19.7814026  10.0442705  62.5625916  19.9289742  10.6967058
  61.6356621  20.6589737   9.7486105  33.7650757  12.4330759  71.0280762
  34.3472290  12.3608799  70.2716904  32.9214325  12.6917763  70.6571732
  57.4543953  47.3126106  69.8522797  56.7746239  47.4322281  69.1890793
  57.4363708  48.1222992  70.3624878  24.9252453  57.4855499  73.2088928
  25.0125179  56.7746887  73.8439484  25.2285652  57.1077919  72.3833466
  21.0974445  47.6272202  15.4539518  21.8485088  47.8295555  16.0117989
  21.2722092  48.0957336  14.6377497  79.2129364  38.1446381  56.1924667
  79.3777618  38.9463921  55.6962280  78.4086151  37.7897148  55.8138771
   6.7644906  29.8356361  39.7712936   7.3393602  29.1919422  40.1853142
   7.0562472  29.8663216  38.8601570  85.1373138  56.3682899  16.2283268
  85.9475098  56.2322769  16.7195587  84.9123306  57.2851257  16.3865376
  75.9906998  34.1538010  39.2012672  75.4004974  33.9791412  38.4682045
  76.1846008  33.2894096  39.5638466  33.2699432  48.5843277  29.9686508
  34.1065331  48.2503853  30.2924271  32.7543144  47.7994576  29.7833500
   8.1437187  25.0231476  81.4344406   7.8747244  24.1677933  81.7694702
   8.7322826  24.8211937  80.7070923  17.1820679  15.0432501  85.1133881
  17.9125443  14.4551945  85.3052902  17.5875759  15.9047060  85.0149536
   3.0030706  34.0476456  39.1799889   3.3944795  33.8423271  40.0290337
   2.4481709  33.2929192  38.9832611  49.9233360  26.3765621  13.6094818
  50.1867065  25.5708866  14.0541782  50.4488716  27.0612888  14.0232391
  56.2077065   2.8628042  16.0115910  57.1170578   2.5677161  15.9643288
  56.2690773   3.7966745  16.2124672  49.7890434  46.7715912  33.2493668
  50.1384087  46.8187103  34.1392860  49.1423607  47.4761124  33.2083206
  44.0514107  31.4258213  42.0196648  43.2624588  30.8839302  42.0314255
  44.7382088  30.8565025  42.3666763  11.8619404  35.4480934  73.9395752
  11.7711535  34.7578201  73.2826767  12.1729851  34.9940338  74.7227173
  82.7640686  53.3201256  20.9351158  83.6645050  53.4687614  20.6464081
  82.3176041  52.9779968  20.1606159  43.6895065  58.8447495   6.2021770
  43.3051414  58.6389771   5.3500314  42.9390335  59.0467072   6.7609544
  25.5171223  40.4179611  79.4688568  26.3714466  40.2248192  79.8549423
  24.9531250  40.6085434  80.2184067  46.0291405  62.3961296  56.0134354
  46.4488106  63.1778030  56.3727417  46.2493553  62.4127197  55.0820618
  59.4284630  43.1558723  24.0036030  59.1968002  44.0486069  23.7474995
  58.8368835  42.9534721  24.7283821   8.6672201  50.9626961  78.8489227
   9.6116266  50.8138504  78.8022919   8.5237827  51.7550011  78.3313141
   9.6201525  37.4725266   1.9449401  10.1588383  37.8080521   2.6615105
   9.4494734  36.5605545   2.1803260  57.0948906  34.1940422  86.9366302
  56.1848984  34.2633400  87.2253189  57.0618515  34.3694839  85.9962234
   7.6735506  34.4336052  80.2065125   7.0685220  33.8693466  80.6879501
   8.2023020  34.8524208  80.8856659  13.8900118  50.0944901  57.6307220
  13.5850067  49.2866135  57.2177544  14.5132360  50.4630280  57.0046196
  24.1784458  61.4669533  80.1820755  24.4197960  60.6281013  80.5748978
  23.4696693  61.2523308  79.5756073  67.5821838   1.0227644  36.3711128
  67.5834503   0.6997375  37.2721596  68.4208450   0.7333778  36.0117493
  16.4921856   2.6674025  27.7219734  16.9990501   2.1120589  28.3143539
  17.1455956   3.0566614  27.1407986  75.2753372  62.4356117  57.7075729
  75.8348236  62.9183617  57.0991669  75.5317307  62.7542458  58.5730019
  76.2622452  67.8410645  70.4710007  76.7815781  68.5131531  70.9123764
  75.6334915  68.3327637  69.9426651  35.5063972  30.8627014   9.6942415
  35.6788826  31.4445724   8.9540348  34.9444237  30.1767654   9.3338041
  51.9135933  30.7802525  30.2457008  52.4757576  30.0114536  30.3413715
  51.1110497  30.5498657  30.7137566  61.0322189  25.8649044  53.4894218
  61.9059372  25.9345398  53.1047173  61.1837845  25.5098648  54.3653221
  29.9091911   1.2076287  87.8949432  29.8633327   0.3696276  87.4346313
  29.6001663   1.8493687  87.2554855  64.6638565  44.1201401  67.0642548
  64.0197372  43.8818550  66.3974991  65.0656891  44.9232407  66.7329025
  50.8639297  71.5530014  41.8510437  50.1623650  71.9745178  41.3546982
  50.4739037  70.7409515  42.1745949  56.1678085  18.7408390  16.2732944
  56.1862450  19.2805061  17.0636425  55.9368057  19.3504162  15.5723753
  52.8222542  43.2083473  59.9548264  52.9667854  43.9042168  60.5960045
  51.9565697  43.3939362  59.5909843  34.3834152  38.8098488  71.7642899
  34.6233978  38.9844818  70.8542633  35.2202034  38.7465401  72.2247314
  13.7715034  55.0591393  57.2266846  13.6796427  55.3723984  56.3268738
  13.1614799  55.5973358  57.7311134  52.4031754  30.9687061  24.6563911
  52.4507408  30.9518642  25.6122589  53.1706734  31.4734230  24.3872452
  84.7332840   3.7367380  55.7217293  84.4442215   4.6307797  55.9043922
  84.0454178   3.1825693  56.0904770   1.6413637  60.8459816   7.9551191
   0.9301574  61.4344292   7.7018390   2.1199803  61.3257980   8.6310892
  72.0987701  27.7523708  73.4220963  72.6369553  27.8493958  72.6364899
  72.7214584  27.8058453  74.1471024  48.6845284  32.0448914  39.7694206
  49.2943802  31.9823456  40.5045433  49.1847534  32.4810867  39.0796852
   3.1237044   4.0084624  75.6979065   3.7486041   4.6169024  76.0922852
   2.9188988   3.3883820  76.3977509  63.2641792   8.7531595  69.5890503
  62.6226807   9.3505554  69.2045670  63.0715675   7.9051337  69.1890717
  48.4591179  64.9352112  32.3920364  48.8871155  65.7911301  32.3707886
  49.1771049  64.3109360  32.4969559  86.5046692  45.5567513  76.8542557
  86.5397491  44.8223000  77.4671021  86.3893585  46.3273354  77.4102554
  21.5932102  44.8786850  30.0794334  21.4018707  44.3743706  29.2886848
  21.3873997  44.2824554  30.7994213  23.1043644  66.6551132  41.0705643
  23.1493320  66.0462799  40.3333206  23.7504730  67.3302765  40.8633728
  55.4182205  41.9798965   8.8346300  55.9682579  41.2382431   9.0869083
  54.5547714  41.5963860   8.6809797  33.3747597  44.8205643  26.7188301
  32.6540642  44.7276993  27.3418922  32.9649582  45.1748314  25.9296589
  82.6874237  14.4698553  63.5277138  83.5705414  14.5648918  63.8845139
  82.2388916  15.2768259  63.7803917  26.9575272  63.1311684  30.7791443
  27.5942802  63.1907234  31.4913445  27.2876453  62.4271164  30.2209644
  79.3393631  17.2471752  64.7124710  80.0905533  16.7504654  65.0368652
  79.6980057  18.1066380  64.4912567  84.3811188  34.1155167  68.1939392
  85.0956421  34.6719704  67.8840179  83.6624985  34.7233315  68.3682098
  38.2260742  47.7813835  25.8070126  39.0475235  47.6787872  25.3264675
  38.4897423  47.8211632  26.7263222  67.5127563  32.6325493  81.2643280
  68.2599792  32.1109123  80.9714279  66.8418350  31.9867115  81.4856415
  68.3153915  55.2232170  78.4095306  68.3337631  54.4528542  78.9773712
  68.9922638  55.7990799  78.7651443  43.7198410  68.7008362  48.0525780
  44.1888084  69.2585907  47.4319229  44.2392654  67.8978348  48.0928192
  70.5797882   9.9566727  82.3430023  69.9765930  10.6918955  82.2341919
  70.0404816   9.2569113  82.7113953  86.8689880   2.3764496  56.3443298
  86.1387711   2.9079769  56.0273247  86.7680511   2.3741510  57.2961922
  53.6726608  11.5350676  84.9248276  52.8510857  11.2527304  84.5229187
  53.8696938  12.3721409  84.5044479  22.1611614  69.8456955  61.5474052
  22.8855877  70.4713364  61.5494308  22.4783859  69.1136627  61.0185089
  67.5376205  59.1317825  60.7999611  68.0574493  58.4056282  61.1445007
  68.1397171  59.8758774  60.7943764  11.7942247  39.6190605   0.1317947
  10.8679810  39.4719086   0.3232359  12.2300854  38.8204193   0.4291669
  86.4844818  55.3062859  76.7861938  86.6795578  54.6919975  76.0785065
  87.0236588  56.0732384  76.5930405  10.0600376  61.3481789  24.7681427
  10.7087126  60.9077148  25.3171806  10.5757360  61.9223785  24.2019405
  40.6683311  38.8945885  11.5668612  39.8127861  38.5395966  11.8082199
  40.7994995  38.6094666  10.6625767  43.9656487   8.5408125   7.1798820
  44.3103867   8.8261852   6.3337455  44.0457687   7.5871420   7.1618342
  27.1311188  36.7001915  75.1595383  27.3077393  37.6409492  75.1558990
  27.8399887  36.3254318  75.6823120  62.3502731  70.3736649  12.1710424
  62.1577644  70.3712692  13.1086817  61.7569351  69.7188721  11.8030443
  11.7253208  29.1867638  59.5259209  10.8930635  28.8700638  59.8770370
  11.4830761  29.9195557  58.9597359  76.5467453  37.5167770  58.0639381
  76.7384262  36.6181717  58.3322601  76.2761688  37.4409599  57.1489105
   3.5035949  35.8551140  58.6858406   3.8337493  36.0949097  59.5517082
   3.1150501  36.6611900  58.3459778   2.3944294   4.8233604  39.5699272
   1.9146609   5.2321157  40.2903252   1.8488398   4.9803400  38.7992630
  51.2196350  22.9264183  71.5347824  51.2411232  23.4602699  70.7405701
  50.6779900  23.4267654  72.1451111  24.1091022  58.7784042  24.6602077
  24.8727093  58.2222519  24.8145885  24.2213268  59.5123978  25.2642689
  47.3721313  67.8542557  60.8065567  47.5825577  68.4556732  61.5208702
  46.4206581  67.9105759  60.7184753  23.9295616  29.7048168   0.9148514
  23.7724323  29.0064926   0.2793321  24.7705498  30.0806770   0.6546630
  67.6936340  64.2670670  34.1846008  67.1918106  64.9759216  34.5870018
  67.0357590  63.6151848  33.9427681  78.3084488  28.9117832  50.3958130
  79.2091599  29.0201283  50.7011223  78.3941650  28.7069378  49.4647255
  49.2576981  13.9475985  77.2080765  49.2694969  14.8527365  77.5192337
  49.1816483  13.4216232  78.0041885  67.1197205  32.5940590   0.6682094
  67.7513580  32.5530472   1.3862534  67.1041107  33.5171318   0.4153780
  55.8797836  48.3779602   3.5698822  55.5580139  48.9101982   4.2974935
  55.2050400  48.4605560   2.8959882  39.8608437  14.4395409  11.0489025
  40.2652359  15.1961145  11.4735174  40.4877243  13.7280865  11.1796150
  70.9251480   2.3666337  71.8107071  71.2588196   3.0859749  71.2745667
  71.3743439   1.5903361  71.4763107  51.4829140  20.4225292  64.0395584
  50.9946327  19.6427383  63.7754860  52.3806114  20.2507076  63.7552299
  25.7211971  37.6415710  55.8567963  25.1770229  37.4844551  56.6284294
  26.2267494  36.8355408  55.7520905  13.8984852  68.9395218   6.8722754
  13.2009840  68.3003006   6.7269516  14.5215578  68.7794342   6.1634836
  64.4775696  30.6949768  45.8566856  65.2089996  30.1557026  46.1573906
  64.8682327  31.2965393  45.2228584  53.0184288  65.4509888  36.0918388
  52.2642479  64.8768463  36.2252502  53.6597748  65.1582947  36.7393265
  73.9969559  30.6162910  80.5565720  74.5706482  30.0898514  79.9998245
  74.5608444  30.9092255  81.2724304  68.2790298  11.8807516  53.6606674
  67.8556595  12.6129189  53.2124252  67.8037872  11.1071739  53.3574257
  66.5888290  33.4929047  84.3030624  66.9820404  34.0689659  84.9586258
  66.2923431  32.7309189  84.8007584   6.9369793  37.9839973  28.7094994
   6.1988487  37.5384636  29.1253071   6.5879178  38.8376160  28.4531345
  64.4468002  55.7051392  56.7844620  63.7727737  55.0548401  56.9820328
  64.0155945  56.3263130  56.1975708  28.8293438  17.9197502  72.8703766
  28.6451149  17.9363251  71.9312210  28.9960117  16.9975948  73.0655212
  75.2423401   8.2125797  67.2590485  76.0716019   8.5095158  67.6337280
  75.3306656   7.2609487  67.2058640  67.3046112  38.2726364  25.0118370
  66.5709381  38.1352310  24.4126148  67.1037445  39.0991669  25.4508457
  48.0037117   7.2228594  77.8158417  47.2015343   7.7449861  77.8047562
  47.7294540   6.3560486  77.5164261  33.0834427  34.8724289   8.3554525
  32.9131622  34.6888351   7.4315853  33.3068924  34.0210686   8.7316036
  69.0995102  52.0701752   7.9849205  68.2013168  52.3525467   8.1573935
  69.1827469  52.1050682   7.0319848  26.5098724  24.9156723  85.9494247
  27.4455719  24.7354374  86.0400467  26.4521866  25.8704815  85.9141693
  39.4492531  20.7837162  10.5972271  38.8906517  20.8857918  11.3677969
  40.1019058  21.4789124  10.6807365  16.5107841  47.9878922  58.5583458
  16.6933784  48.9221039  58.4576340  16.4395618  47.6597748  57.6619644
  75.2533340  16.3934193  68.9083481  74.9283524  16.0983849  68.0577087
  74.9396896  15.7334089  69.5266037  57.0445976  45.6879921  21.3685341
  56.5841217  45.0216141  21.8785648  56.5006905  46.4712791  21.4513702
  49.6137161  49.7391396  32.5938377  49.0635071  50.5117722  32.4652252
  49.7450333  49.3892441  31.7126102   7.1625595  47.7289391  48.6861076
   6.5662427  47.5182343  47.9676056   6.7781577  47.2992859  49.4502182
   3.2389357  30.4239979  49.9739914   2.3552356  30.5406780  50.3228340
   3.2064595  29.5844727  49.5153236  38.7784958  56.7886353   4.8199348
  38.0068169  56.2716599   4.5886703  39.4404716  56.1386070   5.0554824
  11.7443962  60.8260460  76.7275009  12.1828432  60.1290855  76.2393951
  12.3890638  61.1052170  77.3776550  52.6793022  65.4288712  81.8642731
  52.3059654  65.0681839  81.0600586  52.1003609  65.1149368  82.5588989
  20.2115479  38.7596207  55.7277298  19.7970333  37.9115753  55.5688972
  20.2697239  39.1636772  54.8619423   6.3225131  30.8214741  67.2828751
   6.7025657  30.7783241  68.1603317   7.0772638  30.8884697  66.6979828
  35.8423843  46.8400993  54.2378197  35.3430099  46.1970100  54.7411041
  36.7577705  46.6074715  54.3933220   7.3973899  23.2768917  70.3737564
   6.7302938  23.0443974  69.7278748   7.7821755  24.0871544  70.0396271
  30.6527061  19.1103420  84.5670242  30.6922417  19.9642467  84.9977417
  31.4312534  18.6487141  84.8784637   0.5199180  13.0546989  45.1049576
  -0.0596819  13.4547405  45.7532349  -0.0296314  12.9423122  44.3293304
  78.1932373  34.6686020  53.9856033  78.1767731  34.5125237  53.0413589
  78.9906311  35.1779709  54.1303024  55.5794868  43.7697601  22.7659760
  54.7791672  43.9792747  22.2844963  55.7627182  42.8576775  22.5406704
   7.0138035  43.5421867  -0.0851557   6.8284922  43.8549118   0.8003347
   7.8082972  44.0097046  -0.3429091  34.4568481  53.3504715  13.6528788
  33.8797150  52.6721001  14.0035391  33.9055481  54.1313362  13.6023540
  25.9451275  35.1582527  17.5879917  25.8923225  35.7148285  16.8110332
  26.2718945  34.3202515  17.2605572  45.4135246  50.3863564  72.0386276
  44.6370811  49.8850670  72.2877731  45.9896927  49.7447701  71.6231384
   6.3227148   7.3957639  23.3599529   6.0215077   7.2785587  24.2609348
   6.1601667   8.3200226  23.1713886   7.1191850  26.8726044  60.2614326
   6.8083525  27.1185894  59.3901634   6.3872199  26.3940506  60.6505928
  50.0190735  29.7616615  16.7543926  49.1931763  29.9451370  16.3066635
  49.7739258  29.1966324  17.4871101  77.7956085  16.7782974  70.0599136
  78.6357117  17.0765724  69.7113571  77.3209686  16.4527607  69.2950745
  69.8953476  69.9455261  36.3198357  69.2256775  69.6313324  35.7123337
  69.4203339  70.1143799  37.1335144  64.3107758  33.6729202  64.7206497
  64.1853790  33.3546867  63.8266487  64.9070206  34.4160919  64.6289139
  50.7952232  39.4780769  24.6791878  51.0013084  39.4696274  23.7444744
  50.5977287  38.5653152  24.8891716  81.5033264  50.5382271  33.4069481
  82.3600998  50.2355614  33.1060104  81.5888977  50.5914688  34.3588295
  58.8841248  54.9947090  35.8028183  58.1660347  54.4316978  36.0919456
  58.4510841  55.7596130  35.4238358   8.1563854  29.2759495  13.9898653
   8.4462223  30.1881809  13.9975386   8.7308140  28.8368454  14.6171227
  36.4893913  61.9336586  71.5318756  36.5289688  62.1777802  70.6071777
  37.2864304  61.4245834  71.6795273  58.3284531   6.3730392  84.1262207
  58.8579140   5.7318935  84.6003876  58.8931580   7.1423903  84.0524445
  38.9426994  64.1654587  17.9795532  39.3851814  64.4777832  18.7687912
  38.2536125  64.8104324  17.8201694  13.5139608  26.6269245  13.7809515
  13.7781725  25.9131031  14.3613691  13.3135052  27.3535824  14.3708820
  21.8621655  55.5651360  45.7428665  20.9426575  55.7086067  45.9668121
  21.8349476  55.0181313  44.9578323  77.8351212  36.8838730  85.1018295
  78.3786469  36.1894875  85.4741745  77.8826752  37.5942993  85.7415695
  15.6929035   3.2804832  14.8875027  16.0543213   2.9055808  15.6906576
  14.9761715   3.8403676  15.1859264  23.0294704  17.4578495  44.9761047
  22.3059731  17.3523293  44.3583260  23.7036324  16.8560963  44.6604614
  61.4740257  40.6728783   5.8509464  61.5755310  40.0345573   5.1449180
  60.5272408  40.7548294   5.9654517  40.7953720  39.8691444  64.5635910
  41.6610985  39.4620247  64.5318222  40.7393456  40.2445641  65.4423141
  82.7070312  55.2569923  10.6177597  82.6459274  54.7179108  11.4063597
  81.8607101  55.7010498  10.5650148   7.1382117  55.2506218  18.6006908
   6.5320024  55.1048241  17.8744087   8.0026779  55.2730942  18.1902943
  79.6322556  51.5310440  40.2278900  80.1938629  50.8675919  39.8270607
  78.7423477  51.2065239  40.0901299   5.0861592  46.6106796  72.8443909
   4.5770001  45.9165688  73.2629547   5.6867137  46.1480370  72.2599869
  83.2625961   0.6578547  38.9638977  82.4896698   0.9739102  38.4960022
  83.5080948  -0.1457787  38.5054932  32.7375870  65.5032425  76.0838470
  33.5298653  64.9805603  76.2076569  32.2160339  65.0026779  75.4564285
  59.2164650  60.0431633  63.6245537  59.6061325  60.4694176  62.8612061
  59.8991280  60.0809402  64.2944641  67.0499115  31.1978989  71.7750168
  66.2200165  31.6420326  71.9489517  67.3834686  30.9655876  72.6416168
  60.1828690  17.1470432  10.1521044  59.5236778  17.3412037  10.8184395
  60.6175003  17.9850616   9.9938297  72.1729584   4.0029635  76.2126389
  71.9375687   3.4119763  76.9278717  73.1259003   3.9369397  76.1511688
  54.4646645  60.7612495  33.4705162  54.0102196  61.3095207  32.8308983
  55.3111153  61.1903877  33.5953941  56.4560623  31.7262249  48.4287682
  55.9889832  32.4855728  48.7772751  57.0648880  31.4793053  49.1248932
  61.2804451  70.9549026  59.4644318  60.7427635  70.1778107  59.6169357
  62.0944176  70.6139679  59.0936890  85.1823807  31.6695404  23.1493244
  84.6924591  31.0662918  22.5904827  85.8446655  31.1215839  23.5704632
   5.5290389   3.1243687  11.0967159   6.3174596   3.1865849  10.5575008
   5.8171363   2.6750579  11.8912926  43.6230316  14.2801199  23.2857094
  44.3219070  14.8163242  22.9111538  44.0228195  13.8655472  24.0502567
  69.1504669  23.6306953  52.5799599  69.4089050  24.5433006  52.7087555
  68.2454071  23.6792278  52.2721481  33.4314842  57.9841690  39.2437439
  34.3124924  58.3115044  39.0623474  33.0076065  58.6928787  39.7277832
  52.2579384  56.0622520  76.3649216  52.0075836  56.9438858  76.6411057
  52.8320084  55.7466049  77.0628052  83.4269638  52.9183731  71.0413971
  82.8152771  53.6301384  71.2297058  83.9158249  53.2190628  70.2753448
  46.9441147  64.0014191  46.0840607  46.4944344  63.3302498  46.5974312
  47.5233536  63.5096474  45.5019302  63.8095016  69.4438782   9.5685759
  63.4333763  68.6528473   9.1825199  63.0862808  70.0707626   9.5825500
  50.1566467  63.3902092  74.9993057  50.1236305  62.7506409  74.2879028
  49.5193405  64.0593262  74.7495956  18.3587856  13.9017096  63.3047943
  19.1353321  13.5738001  63.7583199  18.0701294  13.1675167  62.7626991
  69.1971207  55.5734482  64.2534180  69.6849899  54.7499199  64.2500458
  68.2829361  55.3098297  64.3583069  44.7523270  21.5548763  83.9313660
  45.6880760  21.5418682  84.1324615  44.3258476  21.3452778  84.7622833
  45.4249763  56.0849419  35.3666916  44.5889168  56.1556511  35.8273888
  45.9951515  55.6157722  35.9757957  78.1567993  62.2879372  62.6206779
  78.3765259  63.2152023  62.5305023  78.9949493  61.8588142  62.7926903
  13.7055063  41.3966560  59.4309731  13.2690744  41.0018806  60.1858978
  14.0241117  42.2400589  59.7525215  44.0212479  39.9931030  36.4344444
  44.2282982  39.2450142  35.8743362  43.9880142  40.7389107  35.8353615
  71.3103409  68.2076492   6.3645406  72.2414780  68.0178833   6.4794416
  71.1707993  68.1585007   5.4188418  44.8217163  37.4847488  68.7668839
  44.7652664  38.4258156  68.9325256  45.7350426  37.3393669  68.5200348
  45.2323494   5.0041690  33.9264145  44.5142097   5.5951524  33.7000351
  44.8607864   4.1274214  33.8290138   0.9217471  34.2703857   5.9989524
  -0.0231299  34.4224205   6.0169501   1.0269766  33.4789391   5.4709635
  40.3193016  61.5091400  31.7346973  41.0448456  62.0901947  31.9631481
  40.6300392  60.6345558  31.9687366   2.7001903  32.2768517  83.4712677
   2.8467538  33.1941566  83.7021408   3.5793309  31.9106636  83.3750916
  71.1926575   0.9565089   2.2273057  72.0903931   1.2461606   2.0647948
  71.2860184   0.2017902   2.8086104  84.2286682  29.6774635  52.8704720
  83.9576797  28.7770538  53.0495148  85.1788712  29.6690178  52.9857140
   7.1349826  65.0192490  34.9172440   6.8063726  64.1720505  34.6164055
   7.8140435  64.7999268  35.5552139  43.5351105  57.9611435  57.3245163
  44.0357895  58.6677589  56.9167824  42.6209488  58.2267609  57.2245636
  43.9421387  38.4246101  18.9932919  44.0857239  37.8859329  18.2151928
  43.1183853  38.1023064  19.3590546  51.0396347  19.4572697  60.0519867
  51.6945381  19.1599598  60.6836014  50.2073441  19.3888893  60.5198021
  38.6232491  48.5274887  30.0539455  39.1386681  48.8696327  30.7843666
  37.7878838  48.9911537  30.1123486  64.1147995  23.3583012  40.6464462
  63.5771904  22.6774197  40.2419586  63.5744095  24.1472015  40.6035156
  74.8740768  43.4060860  31.9327011  74.0704498  43.1650658  31.4719143
  74.5742111  43.7430534  32.7769547  58.5405312  41.2255249  42.5367279
  59.4518890  41.4956360  42.6494217  58.5879326  40.2825775  42.3791313
  69.0601044  45.8092880  26.5658607  69.8955994  46.2429237  26.3922501
  68.6089172  45.8119354  25.7216740  51.1194038  64.2280426  27.1168785
  50.5152512  64.1233597  27.8519115  50.8655777  65.0587158  26.7146492
   1.8712273  61.9564476  64.3581314   1.5717936  62.8540344  64.5027237
   2.5028427  61.7986946  65.0598450  28.7689381  62.2549515  45.9985466
  27.9257164  62.7071838  45.9721413  29.3418121  62.8447762  46.4885979
  48.7453499   0.1625200  19.3656368  49.6796799   0.0657353  19.5497246
  48.4769173   0.9223768  19.8821583  71.9100876  46.1938477  63.2803612
  71.6828690  45.3548737  63.6812668  72.8567047  46.2684631  63.4011536
   9.8179026  61.4387512  82.4526596   8.8934631  61.2355957  82.5953903
  10.1699810  60.6610146  82.0197601   0.6157256  40.8986855  49.1689835
   0.2999999  41.6816101  48.7177887   0.1820201  40.1726189  48.7206993
   6.5264239  70.2249985  54.2225304   5.7287579  70.5275192  53.7884293
   7.1206112  70.9742966  54.1810074  12.3882647   3.2072363  69.3463821
  12.9377451   3.7825749  68.8141327  12.8818579   3.0879827  70.1577835
  81.0030518  27.9121532  79.6959686  80.9120331  27.0276356  79.3416061
  80.1138077  28.2662697  79.6874390   0.9500965  45.6413765  66.0034332
   0.2613463  46.2944641  66.1272659   1.5827578  45.8259201  66.6976318
  76.7258911   1.6323545  35.4913139  77.1027603   0.7532076  35.4552269
  77.3619308   2.1844556  35.0364838  81.2407837   8.5752392  81.3947296
  81.1766663   7.8626356  80.7588730  81.5323410   8.1507549  82.2015991
  57.0567856   8.3893595  36.1708107  57.1261253   7.4452934  36.0288124
  56.3287048   8.6626654  35.6127510  10.1418476  67.0240936  64.6067886
   9.3059225  67.4863205  64.5451202   9.9013433  66.0984421  64.6463928
  67.0758896  53.1193085  52.9981308  66.1295242  52.9800606  53.0331917
  67.3602905  53.0625687  53.9103432  57.8360291  21.4648094  15.2733479
  57.5278015  21.9738407  16.0230923  58.7863045  21.5795174  15.2803469
  36.3065987   8.3703194  87.5986710  36.8931236   8.5653219  86.8677826
  36.8215332   7.8054509  88.1748657   1.7307194  45.7340126  29.9779644
   1.0247892  46.1593819  29.4911842   2.5008256  46.2756882  29.8054676
  29.3950176  17.2525082  69.0864563  28.5473099  17.5491028  69.4175949
  29.9339657  18.0432854  69.0655289  61.8057671  22.4469624   9.8598604
  61.0137062  22.6707897  10.3485031  62.5123177  22.8828983  10.3362780
  69.7398605  21.9314404   6.9024153  68.9005890  21.5528774   6.6406136
  69.7676926  21.8182964   7.8524971  48.9472275  70.0595016  16.8449955
  49.1057129  69.1397400  17.0574856  49.2737389  70.5406799  17.6053181
   1.4558088  19.7877388  14.2273817   0.9467241  20.5901546  14.3422518
   0.8113981  19.0833149  14.2963295   3.1366713  47.5325737   3.9486494
   3.8664596  47.1716194   3.4453053   2.4510231  46.8675079   3.8869383
  16.1041069   9.7680721  76.6499863  16.2900467   8.8343935  76.7494888
  15.1528740   9.8331928  76.7345200  76.9686813  36.1330185  82.5111847
  77.0644379  35.1885185  82.3888016  77.3992996  36.3110619  83.3473053
  35.7178955  34.9224281   3.7908061  35.9897728  35.4949646   3.0735080
  35.1195564  35.4583473   4.3113942  15.7066851  61.6947784   3.8099363
  15.5482826  61.3394775   4.6845231  15.8303595  62.6333389   3.9514897
  65.3524246   0.4967667  72.5259094  66.2464905   0.6494448  72.2200165
  65.3368683   0.8601356  73.4113159  83.9500656   0.3509616  30.4562149
  83.6601334   0.1148315  29.5750713  83.8321381  -0.4483844  30.9694118
  72.3960724  56.4267044   4.9287677  71.7626877  56.1572533   5.5939369
  72.1268311  57.3127823   4.6866665  49.8609848  23.3229103  13.5359135
  50.2900391  22.7100849  14.1330652  48.9599724  23.3766727  13.8545399
  55.1906853  30.4177189  40.3949242  54.8427315  30.1700039  41.2515450
  55.5626678  29.6084213  40.0443573  26.2729912  49.6763306  78.5660324
  26.9284058  48.9793739  78.5357819  26.7216187  50.4426727  78.2086945
   8.5361767  66.9188919  18.9934025   8.0774202  67.7441101  19.1508331
   8.0304451  66.4918365  18.3019600  60.3101234   9.0940838  69.6746292
  59.8056831   8.6113262  70.3293915  60.2788277   8.5419912  68.8933182
  82.9141235  15.5831261  77.2598343  82.4975128  15.0708408  76.5668488
  83.8074875  15.7266140  76.9475250  34.6249352  29.0913544  83.0543442
  34.6428299  29.9103909  82.5592804  35.2508545  29.2276802  83.7655945
  53.8933029  65.2405472  61.7773285  53.9923630  64.9148483  62.6719437
  53.5580750  66.1309586  61.8823471  45.6358986  42.5173569  58.3360176
  44.7023849  42.7282791  58.3531876  45.7668686  42.0785027  57.4954910
  13.2374210  13.6869135  71.4102554  12.6483927  12.9333582  71.4481125
  13.5909920  13.6701021  70.5209122  70.1729279  60.0811462  53.7773361
  69.9496155  59.1981316  54.0717087  70.0959396  60.0424423  52.8240204
  37.4661560  37.7469406  27.2988758  37.4785080  37.9415741  26.3617535
  37.8949318  38.4999313  27.7055607  83.1560898   2.1632864  36.1959953
  84.0193939   1.7679641  36.3170509  82.5563431   1.4188132  36.1480293
  54.7723541   2.4835505  85.4115295  54.5407066   3.3207173  85.0093842
  55.0528641   2.7129078  86.2975006  55.0965118  62.4135399  28.8447590
  55.8548584  61.9403954  28.5023022  54.7857628  62.9354630  28.1049862
  19.1956539  55.1037483  67.3403015  19.5141048  55.7785873  66.7407913
  19.9762630  54.8164291  67.8139343  76.0888977  43.9348259  63.3904610
  76.9916992  43.7457314  63.6462555  75.8128815  43.1623001  62.8972626
  40.5556831  16.7574730   9.0804329  40.2578468  15.8487568   9.1223688
  39.8786011  17.2084026   8.5759974  73.8648834  60.1165123  21.9543514
  73.9262848  59.3167915  21.4319420  74.0956268  59.8413010  22.8416214
  28.8930302  62.0561333  60.6215744  28.0063763  61.7211266  60.7551613
  29.4224281  61.6002579  61.2759056  86.6521912  67.1756363  65.3464127
  87.0933151  67.1698074  66.1958847  86.2371292  66.3152161  65.2861633
  25.6969662  47.9496498  24.0648746  26.3425827  47.8787041  24.7679977
  24.8525524  47.8470116  24.5038090  23.0641365  69.0589142  46.8692284
  23.9558773  69.0256271  47.2155228  22.8956718  69.9909210  46.7305870
  42.2770615  24.8803577  71.0417557  42.0315285  24.0247517  70.6897888
  41.4431610  25.3247318  71.1946259  52.8636169  31.7518349  81.7285690
  52.5058594  31.5981674  82.6030045  52.6341972  30.9649200  81.2342377
  22.7603340  68.6908722  19.2392025  23.7071171  68.6157532  19.3583260
  22.6597652  69.2095108  18.4409981  26.8344536  38.2130356  21.0798664
  27.1911125  38.2437477  21.9676075  25.8881302  38.1407967  21.2043076
  37.3564339  20.3712101  25.0989323  38.0587769  20.2697506  24.4565487
  37.7654724  20.8345222  25.8298645  27.1372204  52.8006821  14.3216534
  26.8291931  52.7051239  13.4204206  26.9010353  51.9749641  14.7443123
  38.0444603  20.7085724  63.3882751  37.6232605  20.1299362  64.0238876
  38.9802284  20.5340157  63.4887772  81.7969437  63.4923172  83.5069809
  81.1169281  64.1249390  83.7385178  81.7768784  62.8490372  84.2155151
  64.6907120  55.3857231  86.6090393  63.8850555  55.6522636  87.0518723
  65.3831406  55.8682594  87.0606384  76.0517578  63.0347137  64.1028748
  76.7803574  62.6928291  63.5847130  75.4640350  62.2871399  64.2121582
   6.6012788  64.2144928   3.3248534   6.1445494  63.3868294   3.4752116
   7.4869089  63.9563599   3.0693929  63.3531189  52.1641006  58.2539558
  62.6907578  51.7527504  57.6987038  63.7052803  52.8758278  57.7194862
  39.0916710  25.0700874  84.5250778  39.1234741  25.4905510  85.3843918
  38.8128815  24.1727715  84.7076569  12.4369602  34.9568710  14.2005043
  13.0942736  34.8585930  14.8893528  12.1450653  35.8653603  14.2758350
  77.0798111  44.9706650  72.6953430  76.9963837  45.0029602  71.7423325
  77.8276291  44.3937683  72.8508911  83.1918030  16.9927464  80.8057022
  82.7686310  17.2161655  81.6346970  83.3387451  17.8358383  80.3769455
  58.0342712  15.7666912  23.8724766  58.5199203  16.2516365  23.2052402
  57.3750610  15.2771749  23.3804893  57.0467491  18.4716072  59.9324074
  56.4873390  18.9674091  60.5303001  56.7001038  17.5799408  59.9640427
  84.5969696  31.8098965  48.6783104  84.1308289  31.2302685  49.2807846
  85.3354721  31.2870255  48.3661270  12.1732197  49.6698036  45.9340630
  11.7762184  49.3799171  46.7553940  12.9890347  50.0945320  46.1991692
   4.2038198  12.4282999  14.4717989   4.7055044  11.6158562  14.4048634
   3.3036847  12.1418982  14.6265993  27.2363529  51.2909889   3.9081933
  26.3036366  51.3869858   4.1006951  27.6749611  51.5228004   4.7268009
  58.4114342  27.4962215  81.1856384  58.2756653  26.5803814  81.4286118
  59.1640167  27.4781361  80.5944366  86.6584244  40.8988304  64.1577225
  86.7675247  41.7251740  64.6283417  86.6992111  41.1426506  63.2329941
  21.6708374  58.1289902   1.7356915  20.7376862  58.1219978   1.9487920
  21.7034149  57.9469032   0.7965345  64.7288132   6.8969741  28.3628540
  64.4778214   5.9899535  28.5376396  63.9028969   7.3806558  28.3751717
  78.7634811  14.2754002  32.5619812  78.1999664  14.2283688  31.7896652
  79.3408432  13.5159483  32.4838066  11.0918531  50.3542862  37.1461792
  11.1537180  51.3064499  37.2222290  10.3198309  50.2073135  36.5997238
  32.8196564  49.4074249  36.0993767  32.9567680  50.2446480  36.5426483
  32.9637108  49.6004829  35.1729813  25.9582729  50.0815697  10.9069490
  26.5796719  49.3537292  10.9255333  25.8553810  50.2849731   9.9772873
  50.1239319  26.0177326  20.3287868  49.3785553  26.5253086  20.0078297
  49.7711372  25.1398678  20.4741135  32.6227303  20.7985458  17.4851379
  33.3275146  20.9882717  18.1044254  32.5570221  19.8436069  17.4822769
  73.9323120  35.8386612  22.4830780  74.8248596  35.6213379  22.7520847
  74.0057831  36.7080727  22.0894279  28.9343529  38.6111946   3.3213062
  29.0992355  38.8752975   4.2264552  28.5647774  37.7310638   3.3921468
  75.1298065  10.1477880  61.4366112  75.2084579  11.0156288  61.8327141
  75.4666595   9.5489159  62.1030273  53.9079018  49.4758492  63.5337639
  53.4264374  49.0521164  62.8232155  53.8681526  50.4095078  63.3265648
  26.8586464  70.6562042  68.5642853  26.5985088  69.9853592  67.9329987
  27.8117638  70.7003479  68.4877930  48.7357559   2.0900221  47.6484222
  48.0416565   2.1046417  48.3073921  49.0698433   2.9868860  47.6325150
   5.4323530  46.6707344  46.8446922   5.1614966  45.7729034  46.6529388
   5.8382621  46.9768448  46.0336647  63.2204590   9.1813602  38.2725296
  63.0234566   9.8321609  37.5988235  64.1635666   9.0362415  38.1968613
  68.2996750  68.5239792  43.7861671  68.2924805  69.4746017  43.6743469
  68.5444489  68.3924103  44.7021408  18.4253788  38.3545990  26.0243168
  18.7111912  38.0635109  26.8902340  17.9001484  39.1362648  26.1956863
  12.7262383  60.7416954  48.3741875  11.9749432  61.2661285  48.6512375
  12.3803549  59.8530731  48.2908134   0.7904369  69.2007828  58.6262932
   0.6131071  68.2991791  58.3581429   1.6340326  69.1553040  59.0763016
  78.4919891  66.6335678  57.1893806  79.0892792  67.2666397  57.5877495
  78.9369965  65.7914963  57.2848549  43.4644661  37.3185463   9.0270414
  43.8441315  36.8220787   9.7520275  44.0807037  38.0359612   8.8793821
  82.4566650  18.1878033  75.6386337  82.7507858  18.7998714  76.3132477
  82.4972534  17.3292999  76.0600128  31.4196663  57.9085999  61.0778084
  31.4653416  57.4315681  60.2492065  30.4861259  57.9353981  61.2876053
  52.5633545  59.9175949  17.2858791  53.3525162  60.2367172  16.8481369
  51.8421402  60.2476234  16.7500057  25.4805470  45.0823288  16.9018669
  24.8479309  45.4181328  17.5368977  26.1695080  44.6871986  17.4361286
  70.4431534  19.5148411  36.3867455  70.6209412  18.6975670  36.8522415
  69.6413956  19.8496914  36.7883530  51.8694305   7.4118733  42.3731537
  52.7032547   7.3282847  41.9105759  51.4195099   8.1299582  41.9280052
  55.4621925  40.0500793  13.0167141  55.9868240  39.2580032  13.1333704
  56.1006355  40.7313118  12.8056650  48.6236115  43.2780991  37.2009621
  48.0941925  43.3617973  36.4079018  48.8920708  42.3594055  37.2138748
  68.9147720  39.2999077  83.4171524  69.1020584  40.2385483  83.4273453
  69.7718887  38.8836479  83.5083237  56.9636078   0.0987370  57.9915581
  56.3915329  -0.4813941  57.4891586  57.6096535   0.4071267  57.3561440
  41.0972443  48.3361244  40.5350876  41.2006874  48.5102081  39.5995522
  41.3024178  47.4059792  40.6297531  77.4284973  31.7733364   1.5490937
  77.4191284  30.9564095   2.0478673  77.6006851  32.4510803   2.2027364
  69.4985886  54.2626877  20.9068069  68.7679749  54.8465118  21.1107273
  70.2800598  54.7894478  21.0742989  34.0694046  53.5872078  63.9217644
  33.1758652  53.3384323  63.6852798  34.3611259  52.8959541  64.5161514
   6.0901041  55.4221420   3.6100829   5.3002915  55.9599228   3.5533178
   6.7978730  56.0066566   3.3387232  19.3479481  55.7703476  46.2876968
  18.8805466  56.5467529  46.5958595  18.6732941  55.2344055  45.8707504
   5.1226830  14.9653692  80.9010239   5.1169419  14.8218594  79.9546585
   6.0401297  15.1394415  81.1113129  52.1285477  45.0097122  45.4935608
  52.2433777  45.0663681  46.4421577  51.8399811  45.8848534  45.2345428
  79.4139862   1.1083310  83.3645325  79.9922409   0.3510485  83.2730408
  80.0005722   1.8637191  83.3254166  30.2480278  69.1272736  76.4176559
  30.6607475  69.0297470  75.5595322  30.3538799  70.0545197  76.6303558
  23.4598885  19.4910355  68.7619934  23.6182404  20.0555782  68.0053940
  22.5112743  19.3634567  68.7712784   1.2750181  67.5426941  50.0260429
   1.7191896  68.3561707  50.2652016   0.5821264  67.8159485  49.4248238
  53.4702492  44.4814873  66.8113785  53.7648888  43.6692924  66.3993607
  53.0417366  44.9661865  66.1059113  14.5620718  38.7656288  27.9238720
  15.3041239  39.3561287  27.7938786  14.8114223  37.9631386  27.4655418
  69.9081879   3.0241623  24.0060196  70.3866882   3.0141156  24.8349724
  70.2254333   2.2524240  23.5369720  33.9662285  66.3457336   8.2836323
  34.1029243  66.6210785   7.3771377  33.6534691  65.4436493   8.2153749
  61.8152046  36.9999390  58.2727394  61.2496185  37.6235008  58.7282791
  62.7010231  37.3359528  58.4093246  49.9672432   9.9036798   0.2203961
  50.7916718  10.1911287   0.6127269  50.2189636   9.1992464  -0.3767984
  34.1583138  61.9229355  57.8553047  34.0938873  61.6917801  58.7819366
  34.9545746  62.4507141  57.7949104  29.1832848  42.3357201  31.9184093
  28.3509102  42.7925835  32.0395012  29.0160770  41.7179108  31.2066631
  70.5891876  42.0670586  26.5524120  70.7103729  41.3728676  27.2002144
  71.4560852  42.1867485  26.1645966  80.3874054  14.0231400  11.6361990
  79.8941193  13.6515570  12.3675184  80.4344864  14.9593048  11.8301306
   7.5828042  60.7552071   0.5737289   8.3326073  60.9589081   1.1327753
   7.7406645  59.8583984   0.2786850  53.8220787  22.3149624  74.8699875
  54.3693466  22.6457710  75.5822372  54.0946274  21.4037724  74.7618942
  62.5941277  35.0772705  33.0705681  63.4319878  35.1888199  33.5197601
  62.0744781  35.8340950  33.3415146   7.5997710   0.2303413  79.6170120
   7.2337832   1.0992469  79.7822037   8.5314798   0.3879572  79.4643402
  40.7766495  46.1108780  84.0638123  40.3359146  45.6458092  83.3526917
  41.3505325  45.4549065  84.4595337  10.4949446  49.8057709  64.2523499
  10.8055887  49.0583115  63.7414360  10.5462732  50.5466270  63.6484261
  40.8045807  16.4759235  79.6590958  41.4913368  15.8551979  79.4155807
  40.1615143  15.9480839  80.1324615  13.7033501  23.1514778  14.5071955
  14.1899185  23.8665657  14.9172363  13.0247927  22.9274044  15.1440496
  76.7690582  18.0441628   2.3903184  77.3682632  18.4443417   1.7602093
  76.0956955  18.7087116   2.5358725  14.1377783  60.5976486  38.4500694
  14.3805304  59.9707985  37.7686272  13.3158150  60.9796181  38.1423225
  25.7042065   4.6802568  58.8879204  25.3434715   3.9935050  59.4487038
  26.5177193   4.9398990  59.3203773  37.6361160  14.5267439   4.9313817
  37.0442619  13.8347616   5.2265110  38.5017776  14.1182642   4.9328165
  24.0096436  37.6352425  87.3815308  24.2520847  38.4421463  87.8358002
  23.1270351  37.8024178  87.0509491  81.7118225  33.5594139  83.0173340
  81.7035675  34.4592552  83.3435974  82.5611954  33.4690666  82.5853195
  54.5495224  57.9258881  14.8811655  54.7803307  58.7480507  15.3136101
  53.8131027  58.1525040  14.3132191  28.8120403  56.8186035  79.4473877
  29.6479073  57.0711288  79.0552292  28.1736088  57.4138107  79.0544968
  59.2154922   6.4522920  74.2780762  59.2487526   7.2485714  74.8082275
  59.8257713   5.8528943  74.7076263  77.2153320  47.5224075  19.9741116
  77.5172577  46.9811020  19.2446880  77.0313568  48.3749123  19.5796204
  42.4495506  52.4964752  36.2463760  42.9771843  52.7339325  37.0088997
  42.2261772  53.3336449  35.8395767   1.8649604  66.5512085  73.2838516
   1.0521473  66.0796814  73.1015625   2.5548589  65.9030228  73.1419830
  75.4015579  35.5519447  48.9479027  75.6965103  35.1378784  48.1368675
  75.9788971  36.3079453  49.0545731   4.7137890  32.9036446  49.1908913
   4.3307815  32.0679588  49.4576645   5.5444117  32.6657829  48.7789230
   2.4774024  58.3816223  51.8328972   1.8763037  57.8364296  51.3252792
   2.1336761  58.3498497  52.7256889  27.6464596  23.7218456  11.6583529
  27.1120872  23.1715107  12.2308998  27.1366215  24.5252609  11.5543327
  52.1974297  24.3107624  35.4650726  52.9542236  24.8840771  35.3434067
  51.5814629  24.8330212  35.9789429  44.4223442  71.1191483  53.5865669
  45.2011375  71.5926971  53.8788948  44.7651215  70.3284531  53.1699905
  73.5030518  50.8995705  29.0832386  74.0539780  50.9573631  28.3026123
  73.8429489  51.5777321  29.6670170  18.0380135  15.1735134  71.5831146
  17.7365875  16.0773602  71.6749649  17.9545975  14.8027668  72.4616470
   0.1296129  43.7609978   7.1141357   0.7223987  43.0578804   6.8486891
   0.6479482  44.5600433   7.0188193  64.7666321  41.1945953  43.1094513
  64.4647751  42.1026001  43.0841179  65.4437103  41.1483612  42.4344254
  24.1958427  34.0646935   0.5398659  24.8194237  34.4988403  -0.0422818
  23.3503246  34.1644707   0.1023989  50.0141716  31.1185265  67.2610245
  49.8442001  30.1800117  67.1801987  50.9686699  31.1902847  67.2570190
  15.4909868  56.7685738  43.8433113  14.8582554  56.3776093  44.4458313
  15.1754026  56.5247078  42.9731560  76.5889130  41.3059425  32.9312553
  75.9971313  42.0439568  32.7851181  76.5320511  41.1358871  33.8715134
  14.9607496  42.2515259  85.1329498  15.4035873  41.4071465  85.0483780
  15.1194153  42.6899834  84.2969971   3.7989836  16.4687042   6.0912352
   3.9659538  16.9388618   6.9081221   4.6090150  15.9876652   5.9218764
  64.1397705  30.3944092  34.7794266  63.8751869  29.9034081  34.0015144
  64.7011948  31.0926228  34.4424858  61.1197739  40.6087532  39.8869629
  61.1447754  41.2622566  40.5859222  60.2906456  40.1489029  40.0185623
  48.3328094  29.6931477  44.1565628  47.9710464  30.4387035  44.6356316
  49.2741699  29.8634472  44.1238365   8.1361208  49.6476784   4.2944064
   7.4205117  50.1640549   4.6652074   8.2615595  48.9309425   4.9163280
  49.6238708  46.5825233  86.9675903  49.0433769  45.9022598  86.6262817
  49.5301704  46.5224953  87.9183044  60.7294846  64.2765350  22.7223072
  61.2635117  63.9598045  21.9937973  60.8217468  65.2287521  22.6906471
  65.1082535   4.7097764  40.4616089  64.5802002   5.4968109  40.5956459
  64.7647400   4.0800600  41.0953941   9.9510126  68.4056473   7.6454902
   9.9593582  69.0555115   8.3482323   9.0457306  68.0960617   7.6162934
  67.3418655  13.2899990  42.0314903  66.9700546  14.1268845  41.7529106
  67.0536346  13.1900091  42.9387703  61.9692802  28.6099682  43.4222374
  62.4918633  28.3447571  42.6653976  61.0827560  28.7139969  43.0765724
  73.8122864  22.8608418   9.7718716  74.0527725  23.7204418   9.4262066
  74.6309967  22.5032730  10.1155148  12.7064838  54.0885582  26.0139980
  12.1471205  53.3285561  25.8535633  13.1797771  54.2154503  25.1917305
   1.6985431  43.0922966   4.1175165   1.8874494  42.1563530   4.0500121
   2.5545757  43.5149994   4.0485220  76.0779953  28.6757069  78.7060318
  76.2892380  29.5934505  78.8773727  76.2198257  28.5688553  77.7654495
  65.1378555   6.3640079  48.5876999  65.5306778   7.1699634  48.2524948
  64.4787903   6.6616054  49.2148361  48.4362411  16.8250656  11.7813997
  48.2044792  16.9469166  10.8607101  48.9950981  16.0479679  11.7868824
  27.9578876  37.4903603  67.6188660  28.7623558  37.1979103  67.1904526
  27.5591049  36.6871033  67.9534988   8.6162863  60.9363060   7.4144902
   7.7733879  60.4949722   7.5192742   9.2602329  60.2994804   7.7243600
   0.6823031   7.6818671   0.2866626   1.4633895   7.1345549   0.2055121
  -0.0370689   7.0588541   0.3895742  11.7392235  62.6175728  22.9122467
  12.2521343  63.1472397  23.5226612  11.0652647  63.2137070  22.5856953
  57.7031517  48.7824402  46.1001511  56.8120575  48.4780426  46.2719879
  57.5897522  49.6555672  45.7246208   8.0243645   9.6055431  26.2879448
   8.2145433   9.6400175  25.3504620   8.7780018   9.1547546  26.6688023
  58.2976379  11.6298075  58.3523102  57.7513313  10.8610897  58.5161819
  58.9899750  11.5764627  59.0111389  30.4344807  57.4925880  20.1081676
  30.3559971  57.4995270  21.0621185  29.5407429  57.6280136  19.7933254
  65.9599380  38.5785484  34.5849800  65.9983597  38.3352280  35.5099373
  65.3356018  39.3034363  34.5537453  42.6204109  67.5794907  71.5367279
  42.9260864  66.7408752  71.8824539  42.1487694  67.9816666  72.2661438
  49.8396912  53.5311050  86.3678513  49.2219200  52.8489418  86.1047134
  49.3245430  54.1217079  86.9174347  29.9772453  35.9723129  11.2091713
  30.5299988  36.2426033  10.4759331  30.5889206  35.6063919  11.8480654
  86.1484451  71.1780624  27.2743359  85.8763657  70.9626007  28.1664028
  86.2636642  70.3291168  26.8474331  30.2629471  43.4277306  37.1897621
  31.0685177  42.9113350  37.2147293  29.7102032  42.9785004  36.5503082
  26.8834972  11.8920059   0.1717645  26.2371826  11.5235872   0.7740759
  26.5061798  12.7278605  -0.1024816  60.4295044  60.4497719  12.7013283
  60.4320869  59.5151596  12.4946260  59.8990402  60.5180359  13.4951677
  76.9788132  28.8335018  72.3742447  76.1690140  29.1711597  71.9915619
  77.0344620  29.2581787  73.2302704  42.4689560  50.0261345  31.3142681
  42.1938820  49.8538170  32.2147522  42.9731331  49.2514610  31.0654411
  25.7493725  58.4196968  88.4465942  25.6885910  59.2924957  88.0583115
  25.6761436  58.5711212  89.3888931  59.1508331  57.5413170  38.4468460
  58.2298470  57.7767563  38.5590439  59.4067421  57.9602280  37.6251068
  53.5558434  27.9179382   6.0533328  54.5029030  27.8037224   6.1324773
  53.1908264  27.3912964   6.7644186  55.8502769  20.8885632  62.1236534
  55.5424042  21.4729843  62.8163986  55.9159546  21.4481277  61.3498306
  42.1123505   2.5508151  26.5453014  42.5318642   1.9952660  27.2022667
  42.7158279   2.5406435  25.8023720  69.8953629   7.7776866  41.8724289
  69.6193008   8.6615114  41.6297913  69.0923691   7.2578688  41.8374405
  57.6181641  13.3823280  73.2914734  57.1444397  12.8684187  72.6374741
  57.7943726  14.2174444  72.8581543  74.5813522  20.4550133  50.9813118
  75.4222565  20.7922230  50.6724472  73.9312668  21.0403767  50.5927582
  16.1353760   7.0454125  88.2087021  16.9629211   6.5949125  88.0400391
  15.7277555   6.5417509  88.9132614   1.5843742  28.8794956  15.7214432
   1.4260660  29.0789642  16.6441479   1.6432977  27.9246464  15.6895027
  62.2630692  20.1059799  22.1582432  62.0022430  19.6112385  21.3814335
  62.8705635  19.5267391  22.6183090   6.5585909  58.1919937  57.1687431
   6.5634851  58.9878807  56.6369781   7.4643221  58.0948029  57.4627457
   0.4520516  40.8348465  56.8675003   0.6400937  41.6574059  56.4155426
   1.0555056  40.2031937  56.4762344  83.2867508  54.9545746   3.3043945
  83.9568253  54.4359169   3.7496178  83.0573578  55.6394463   3.9325352
  67.6770020  59.9273148  68.4628983  67.5476532  60.0346222  69.4052277
  68.6274033  59.9342957  68.3492737  77.1416473  32.2330246  62.7037125
  76.8479843  31.3242950  62.7685966  77.0616302  32.4447594  61.7736626
  84.8328934  58.2439537  49.3830070  85.6813049  58.1697006  48.9460602
  84.9274902  58.9995651  49.9629517  59.4998512  32.9880180  87.4576187
  58.5988159  33.1515160  87.1789856  59.6933708  32.1068993  87.1375885
  14.1181507   0.7396664  78.7042084  13.5001802   0.1359758  78.2920151
  14.6226654   0.1921919  79.3058472  43.1544762  26.2483273  76.6779404
  42.4245453  26.7823238  76.3644409  43.7779007  26.2447586  75.9516068
   0.9252706  56.9815598  32.9418373   0.0200610  56.7073517  33.0889320
   1.3802270  56.1789398  32.6867943  73.5838165   4.6173310  71.5518341
  74.3533096   5.0578094  71.1911621  72.9956970   4.5119371  70.8040085
  48.1373024  27.0383854  63.0778427  48.8662415  27.5087242  62.6732903
  48.1316910  26.1856556  62.6430397  42.5141449  53.2124100  12.5802698
  41.9437561  52.5632782  12.9919977  42.5004311  52.9875641  11.6499538
  17.2844372  68.6082001  83.0087128  18.1275253  68.2495422  83.2858429
  16.9467659  67.9689178  82.3813858  80.3208160  42.4829674  79.1733246
  79.7952957  42.3920975  78.3784637  79.8644714  43.1491623  79.6873016
  71.7510071  64.5558167  30.6240997  71.8751297  65.4992676  30.5205517
  71.9661026  64.1903305  29.7659683  85.2470474  47.1058807  53.6875267
  84.7381668  46.5499840  53.0973930  84.9075623  47.9882126  53.5376091
  85.9453354  56.6586342   2.0655074  86.0151672  57.0367737   1.1889416
  85.2790833  55.9767265   1.9798088  54.2035561  45.3256645  10.7402887
  54.0193520  45.7189369   9.8872728  53.8500595  45.9504700  11.3734484
  61.1645241  32.4231300  61.9363594  60.7161255  32.1959419  62.7509499
  61.1491089  33.3799286  61.9132805  41.3164024  44.1063843  78.9212952
  42.1958580  44.0305023  79.2914658  41.4583969  44.4250984  78.0299530
  39.6365204  50.9500046  71.6202469  39.7926674  51.2822838  70.7362595
  38.7020226  50.7434387  71.6368790   5.5922847  38.5563087   0.8655925
   5.1485848  38.2271767   0.0839064   6.1561956  37.8342438   1.1428260
   7.7279029  45.5805702  22.7925682   8.3814163  46.2092972  22.4862175
   7.8036914  44.8424873  22.1878204  69.1675873  13.6013079  45.8789558
  69.8155823  13.8682718  46.5309181  69.6872177  13.2706060  45.1462517
  78.7796097   7.8819256  65.3834686  78.5806961   7.1066737  65.9084930
  79.1695557   7.5343814  64.5813599  46.2271576  54.9851723  32.9934387
  45.6606598  55.4233246  32.3583527  45.7369499  55.0188026  33.8148994
  49.1597862  51.5758171  68.2829285  49.6314812  50.9401855  68.8211746
  48.2378120  51.3406067  68.3871994  57.5346222  19.4376221  21.9988270
  57.7701912  20.3108349  21.6853981  57.7172241  18.8598461  21.2578373
  55.2109489  40.8868828  84.9774704  55.9950905  41.0877266  85.4883652
  54.4888000  41.2358360  85.4999313  37.2989655  35.8248291  78.3287277
  37.1362915  35.2323723  77.5947266  36.7835274  35.4612999  79.0487289
  60.5081100  18.1951256  83.7034836  61.2424240  18.8078003  83.6629257
  60.9096375  17.3326797  83.5977020  62.6571579   4.4353828  72.9226837
  62.3709221   4.9080534  72.1410904  63.5153580   4.0822301  72.6881485
  29.0328159  51.6268120  67.9624634  29.8283634  51.2950783  67.5461807
  28.7253952  50.9003220  68.5046234  20.2641754  46.9771652  29.0153561
  19.5054836  47.1545906  29.5713596  20.7309475  46.2726250  29.4647751
  46.6859131  52.8308983  82.9738846  47.6007843  52.5508423  83.0023499
  46.6350594  53.5476837  83.6062317  78.6393890  33.2238655  37.6544113
  78.3044510  34.1007729  37.8417091  78.6481018  33.1698647  36.6987762
  73.2022629  50.2675400  63.7795677  72.3057175  50.1251259  63.4760017
  73.6049652  49.3995895  63.7526474   5.6493177  20.4671936  83.1690979
   6.1250143  19.6392155  83.1027985   5.1828933  20.4093399  84.0029678
   2.3977082   1.3367711  88.3899689   2.2810128   1.4645517  87.4485474
   3.1627963   1.8679279  88.6107559  54.3389854  46.5203819  49.3288116
  53.7822456  45.8858299  48.8775749  54.1822052  47.3456116  48.8698463
  52.4481544  48.9314651  45.8617172  52.3214607  49.5383034  45.1323814
  51.6770439  48.3648224  45.8385353  85.8688660  12.0667124  11.4702759
  86.3740234  11.9062347  12.2673292  85.0360718  12.4211531  11.7818136
  25.3603916  53.4119720   7.4259338  26.1900558  53.7765045   7.7341609
  25.1754169  52.6930733   8.0302525  72.5548325   3.1201427  55.9090118
  73.2538910   2.5268862  55.6340714  71.9320221   2.5587327  56.3707008
  12.1996193  52.9981308  79.4620514  13.1492834  53.0322037  79.3471222
  11.9744501  52.0781631  79.3235397  80.7421951  18.8089695  61.1872139
  81.0631027  18.2178993  61.8683052  81.5341873  19.1907196  60.8087387
  16.7137756   6.6893644  23.2717533  17.3045025   6.1076322  22.7933598
  16.2188873   7.1423678  22.5890331  21.1898079  24.5094700  85.0029373
  21.0873985  24.7565250  84.0838547  21.9838428  24.9630280  85.2858200
  42.2902832  41.4983406  74.3869629  42.3763733  41.5125656  75.3401794
  43.1250458  41.1477852  74.0762939  78.8418503  18.3675995  86.3792953
  78.9426727  17.8855648  87.2000961  78.2508087  17.8270741  85.8551483
  22.7823086  50.5708199  18.7275887  22.8000546  50.2495079  19.6290741
  22.0824833  51.2238235  18.7197971  79.8370743  27.5022793  32.3220901
  80.6712494  27.8137550  32.6733284  79.2408600  27.5187321  33.0707550
  36.6242332  25.5999222  78.0148773  37.0892868  26.2960796  78.4789047
  36.2553635  26.0309181  77.2438965  31.1797256  55.0107574  70.6767426
  31.0254631  54.2433891  71.2277298  30.5455418  54.9258347  69.9648209
  56.8796577  30.9895687  12.4423933  57.0984344  30.6597176  11.5708618
  56.0630112  30.5445652  12.6688719  46.6011581  46.2280960  72.5675354
  46.7681351  46.8524971  73.2735596  45.6786308  45.9935684  72.6684113
  31.8408203  54.2544632  10.3244553  31.4778328  55.1244392  10.1582680
  31.5271835  53.7206306   9.5944653  54.7717628  31.8166809  51.8299446
  53.9479446  31.3486843  51.6938057  55.1371651  31.4316330  52.6264687
  41.2658386  66.0732040  66.3031921  40.6342850  66.2935715  65.6184998
  40.7329140  65.9423523  67.0874786  43.0282097  14.4324942  66.0068283
  43.9492569  14.5244980  65.7630310  42.9149399  15.0310364  66.7451706
  86.5321884  53.8320885  49.1502991  86.3785706  53.3068275  48.3649750
  85.6610489  53.9640121  49.5243988  13.1074848  37.5481796  83.2204285
  12.7866020  38.2181549  82.6167755  13.6865940  38.0215416  83.8177490
  81.7244949  27.6101017  57.0167732  82.2844009  26.8666611  56.7930984
  82.2102509  28.3762283  56.7112808  54.9929428  71.0284958  14.6603603
  54.1368370  70.9162140  15.0735283  55.0765648  71.9738464  14.5356464
  80.4295120  12.9687529  42.4767151  80.2600632  13.8699512  42.2021980
  81.2506332  13.0178480  42.9661827  83.9029160  36.0886612  72.4174881
  84.0182724  35.8585281  73.3394241  84.4696808  35.4784813  71.9455872
  55.5741348  20.4884243  14.1410799  55.2597733  21.2643242  13.6769800
  56.3568230  20.7870502  14.6041698  66.8367996  45.3796692  87.1249771
  67.4539490  45.5228043  87.8425217  66.6130142  44.4508209  87.1832275
  53.1246948   4.0394607  18.1341743  52.6536102   4.2924452  18.9280949
  52.5543671   3.3972628  17.7116318  12.4323788  68.1900253  63.3811951
  12.3275652  68.0588150  62.4388428  11.8181591  67.5728302  63.7787361
  28.8471565  59.3143120  22.6722832  29.0544491  59.8389015  21.8989353
  28.0628948  58.8239517  22.4258862  25.8597393  67.9970932  69.5476151
  26.4859390  68.5016022  70.0668182  26.1311913  68.1390228  68.6407547
  35.1533585  17.6721230  87.2843323  35.4989586  16.8764114  87.6888504
  34.9420700  18.2437305  88.0224762   9.7009563  30.9702702  22.7801628
   9.9317064  30.0634575  22.5784817   8.9071579  31.1343288  22.2710457
  33.2322121   1.6289592  71.4565887  33.5196152   2.5391026  71.3839874
  33.9364967   1.1929291  71.9362640  66.4897079  31.1360645  28.0164394
  67.0124130  30.4394875  28.4136715  65.7985382  31.3107891  28.6551781
  80.4552994  10.6986237  65.0697021  79.8224258  11.1147966  64.4844666
  79.9191513  10.2042389  65.6896667  74.2790680   9.5810566  25.7807083
  74.7433395   9.4726143  26.6107254  74.0397415   8.6910734  25.5220890
  12.9665670  58.9973488   1.2338266  13.9052353  59.1845474   1.2433261
  12.6202879  59.4706154   1.9903589  21.4918499  18.9134464   7.5061531
  21.1973228  18.6080170   8.3641729  21.4245892  18.1433010   6.9417191
  54.2154770  25.2645187  84.8880310  53.6342010  25.8764477  84.4364929
  55.0238762  25.2797165  84.3756866  40.9713058  24.0521107  44.5978928
  40.7877274  23.6159973  43.7658272  41.8913841  23.8551502  44.7736588
  47.0924263   9.6340761   6.6284060  47.3358421   8.9654455   5.9881616
  46.3628082  10.1011572   6.2213068  77.3511887  14.6073122  74.2966614
  76.6537704  15.2622280  74.2663879  77.2211533  14.1573639  75.1314545
  78.9309235  44.4496460  80.2742462  79.1606979  45.1676712  79.6844330
  78.7207108  44.8788719  81.1035843  25.1860790  27.0284691  80.4572525
  24.7576694  26.2391357  80.7883835  26.1195011  26.8167076  80.4677429
  32.5512276  15.7901058   8.2792759  31.6784039  15.7218943   8.6662579
  33.1458740  15.5268250   8.9816380  42.0716934  44.3748398  33.8144836
  41.8565750  44.7549591  34.6662254  41.2837410  43.8942032  33.5608063
  19.1743412  66.4721680   6.2849674  18.8660107  66.3416672   7.1817021
  18.4060192  66.3012695   5.7402582  19.2288990  24.9529915  29.3064289
  19.6927147  25.7301559  29.6180706  18.4936352  25.2995129  28.8009167
  50.6055794  50.6578293  36.9150658  50.0472717  50.2555237  36.2497253
  49.9925461  51.0294456  37.5493546  16.3057728  57.5235863  75.4170074
  16.8163662  57.3017273  74.6383514  16.9298611  57.9612350  75.9959793
  13.9905500  54.5825844  20.5823746  14.1392450  53.6374092  20.6101170
  13.6553135  54.7465286  19.7009163  57.4605598  43.8134232  51.3902931
  58.3040199  44.2250519  51.2022133  57.6572189  42.8782043  51.4443665
  40.1227837  55.1638451  52.6721573  40.0046806  54.3441734  53.1521835
  39.5478249  55.7867432  53.1167336  40.1834297  58.2483788  21.3099346
  40.5701027  57.8852386  20.5131607  40.8263206  58.8868103  21.6186886
  17.2861576  50.1735077  64.9969330  17.4216824  50.9688416  65.5120087
  17.1883545  49.4796219  65.6490021   4.7733684  12.0792189   2.9702756
   5.4519558  12.7524538   3.0203311   4.8979425  11.5543289   3.7609737
  77.5057373  51.9154510   4.3006482  77.2508469  52.5181999   4.9991875
  76.7009811  51.7719345   3.8026409  51.4182396  20.7202797  73.3970718
  51.5044861  21.4772835  72.8176422  51.7490845  19.9849339  72.8812790
  19.5628586  63.4608612  17.4375458  19.2974472  63.7903099  18.2961788
  18.7539501  63.4465561  16.9259853  15.0185804   7.8921509  20.7930508
  14.6575508   7.8735838  21.6793613  15.2565584   8.8082733  20.6505127
  50.6599007  13.8344498  14.1945343  50.6609726  14.0014353  13.2520132
  49.7386017  13.6916075  14.4114189  20.6579762  50.7775497   9.8662930
  21.2031212  50.0403824   9.5912876  19.8510151  50.6804047   9.3607140
  65.6692276  20.2225552  14.6415510  64.7573242  19.9432774  14.5599327
  65.6942139  21.0837727  14.2245226  14.6637802  36.9590797   6.3811460
  15.0235415  37.7851791   6.0580978  13.7359676  36.9946327   6.1484866
  14.0832720  40.5534439  25.9857864  13.5288057  41.2390900  26.3581944
  14.0290556  39.8337326  26.6145229  53.1520576  52.8141212  49.2331047
  53.6963844  52.1492729  48.8113022  53.7366867  53.5628166  49.3509903
  81.9177017  17.4933872  83.1767273  81.1898804  16.8820210  83.2895813
  81.6678085  18.2608643  83.6912766   3.1134393  25.0563278  75.8148651
   2.3057513  24.9715252  76.3215027   3.2738335  25.9991875  75.7758713
  20.0775909  47.4611931  54.1204262  20.1993694  47.6049232  53.1819496
  20.4120293  46.5773468  54.2727509  27.0706139  19.7438564  12.1067982
  27.9026966  19.4850960  11.7106771  27.3081932  20.0586662  12.9789696
  19.9518852  47.8668442  68.1966248  19.7536201  47.3778839  67.3979721
  19.3662376  48.6233521  68.1659088  60.0199890  50.9377708  12.3778191
  60.1089249  51.1429634  11.4471111  59.9546814  49.9832611  12.4074659
  59.9988174  68.5099182  83.6687698  59.8039627  67.5744324  83.7246933
  59.6365356  68.8786087  84.4744034  18.1932468  39.2852783   8.6138124
  18.5986252  39.3622360   9.4775124  17.6624889  38.4905701   8.6682959
  65.8337402  62.7570305   8.8113708  66.7123947  62.8390388   9.1821499
  65.4339447  63.6155243   8.9505978  73.2911453  39.8369598   3.2929223
  73.2587204  39.4751549   4.1785164  72.4115219  40.1835785   3.1434457
  83.8838577  18.0750751  20.5281239  84.3269119  17.5839996  19.8361835
  84.4903030  18.7831059  20.7452679  80.7168808  53.5554848  15.9811478
  81.5513916  53.1199112  16.1546307  80.5882111  53.4594727  15.0375071
  75.6329498  53.4853363  37.0872917  75.9704285  54.1921577  37.6375198
  75.6277542  52.7180214  37.6595078  55.3792648  10.8037519  31.1744537
  56.2243385  10.3772640  31.0323696  55.4581299  11.2100296  32.0375595
   5.7451286  58.9108887  31.9727211   6.1800699  59.2516212  32.7543602
   5.3509197  59.6809692  31.5630760  34.9352112  56.4073105  62.2000275
  35.0313492  55.4752426  62.3955803  35.8078880  56.7734222  62.3436394
  13.6385489  62.6856880  88.9548187  12.7554426  62.5494614  88.6116028
  13.6088705  63.5551414  89.3540649   9.0160933  50.4086571  13.9000301
   9.4456425  50.1736755  13.0775328   8.3819323  51.0825005  13.6550646
   4.3403106  63.5251656  55.7058640   4.3495240  62.6069145  55.9759789
   4.7897196  63.5307388  54.8607407  62.5428123  45.1918678  88.2446976
  63.3164787  45.7387733  88.3809586  62.3575745  45.2679253  87.3086777
  77.0220642  66.3475723  34.5781212  77.6847076  66.4995422  35.2519493
  76.4150314  67.0820389  34.6691933  58.1830635  61.0685120  14.6642342
  58.5241318  60.3993378  15.2576237  58.4641266  61.8976097  15.0513086
   8.8223820  65.4895706  21.1269760   9.1889992  64.7578583  20.6305656
   8.7498169  66.1994019  20.4889278  50.4536018  35.8458557  29.2810154
  50.9402275  35.0481720  29.0733376  49.8795128  35.9794006  28.5268154
  73.1280289  32.7569122  38.3958321  73.6670532  32.1218719  38.8674355
  72.5590057  32.2231178  37.8412971  42.4457397  62.0122414  77.5413513
  42.5524483  61.4212418  78.2867126  43.1124802  61.7305641  76.9149704
  51.6095848  71.5134277  20.0574894  52.0624504  72.3066788  20.3436852
  52.1881485  70.7984543  20.3226376  85.3028107   0.7513704  46.4796448
  84.5060349   0.7088198  45.9508896  85.0934448   0.2519142  47.2689095
  39.1905556  53.4625015  66.8149948  38.7213898  54.1764832  66.3833237
  40.0496674  53.8306999  67.0213623  71.4749603  24.0507050  35.1572762
  70.6229019  23.6653748  34.9529762  71.2776871  24.9574718  35.3919792
  75.7647400  50.4517288  14.4184055  76.2608032  49.8690872  14.9934626
  75.3048477  49.8630028  13.8199606  59.9869957  35.5090752  84.4740067
  59.8169250  34.8717613  83.7803650  60.1663361  34.9771194  85.2493134
  70.3041458  55.8162422   7.2236953  69.9324188  55.3506203   6.4745293
  69.7384644  55.5782967   7.9582849  76.2168045  66.4300690   7.2943511
  76.8808441  66.2326889   6.6338077  76.7053223  66.8330231   8.0121317
  28.6905689  31.2791882   2.6479604  28.9478569  32.1815605   2.4588616
  28.2566261  30.9813118   1.8484639  37.9247093  67.8305054  46.8146858
  38.3583031  68.2603607  47.5518799  37.2379036  68.4427338  46.5506668
  84.6486435  37.9320946   5.0648451  84.3642426  37.4321823   5.8299823
  84.0340042  37.6836128   4.3744020  71.8326569   9.9981995   1.5123274
  72.3317642  10.7759399   1.7618222  70.9378967  10.3162308   1.3919702
  18.9925308  43.7064819  42.6296997  19.6678524  43.4218102  43.2454376
  18.5578823  44.4360352  43.0713654  37.7092018  44.6754456  79.8311920
  38.2279091  44.4175873  79.0691681  36.8593636  44.2564583  79.6953506
  54.3061714  58.4070778  87.8459320  53.6440277  57.8355751  87.4571075
  54.7892990  57.8397369  88.4467163  24.5252533  31.1759834  62.9321785
  23.9661160  31.9513092  62.8824959  25.4153252  31.5164051  62.8420830
  78.4147568  18.7499485  44.5543938  78.4999771  18.7139397  45.5071106
  78.4905930  17.8383427  44.2725143  32.3983917  46.4539413  53.3755188
  31.4502907  46.5212898  53.2623901  32.5089645  46.0600128  54.2408676
  55.8593292  18.7274380  63.8615036  55.7489395  19.2976532  63.1006508
  56.2286873  19.2971592  64.5362091  65.8125000   0.5986673  83.8848801
  64.8782959   0.4117656  83.9774246  66.1551743  -0.1380496  83.3788605
  58.2349548  20.6858196  49.1873550  57.8358688  21.2712078  48.5437088
  59.0459137  21.1263332  49.4413605  61.4192200  35.2610207  14.4512806
  60.9517593  35.9911842  14.0456018  61.8357239  34.8067665  13.7188816
   9.9496927  53.4079056  19.8827648   9.2296638  52.9120789  20.2725677
   9.6107512  54.2994919  19.8026295  23.0499420  37.4206161  65.8402176
  22.2017784  36.9775085  65.8177414  23.5389900  36.9670830  66.5267792
  15.6277819  50.2937851  74.9210815  16.1304150  49.5199852  74.6664734
  15.3353319  50.1066017  75.8130875  85.7644958  47.2470932   1.8602880
  86.5219193  47.8235435   1.9615319  85.3095551  47.2995224   2.7008290
  49.8841972  46.5195618  61.8147888  49.0102158  46.1295700  61.8319511
  49.7694244  47.3438263  61.3418732  31.9802456  52.4116211  81.9822540
  31.2366390  52.2285194  82.5564957  31.9111938  51.7589493  81.2854843
  51.5014229  43.6822395  42.0435066  52.3034592  43.2344475  42.3126793
  50.8662453  43.4671211  42.7265167   5.6971879  69.0777588  24.0586205
   6.1102786  69.9222870  24.2385006   6.3958745  68.5456161  23.6779747
  68.6589813  13.3905821  65.7095184  68.5765839  12.7690601  66.4328079
  67.7788925  13.7513914  65.6023254   2.0794342  70.2733536  50.5779686
   2.8474355  70.7241898  50.9289017   1.7707466  70.8406296  49.8714638
  77.0178452  27.5633678  86.2425766  76.7236862  27.3663082  85.3532639
  77.9733505  27.5550232  86.1861572   2.2033665  63.8478928  32.5390587
   3.1417363  63.7561111  32.7041969   1.8237683  64.0164490  33.4014549
  30.5149536  43.9370728  27.3941383  29.6583481  44.0561218  27.8043652
  30.3519497  43.3321342  26.6704597  17.8966389  42.8116074  11.9996605
  17.8969784  42.5861244  11.0693970  18.7451954  42.5061874  12.3204460
  47.1367416  67.7009583  50.6922035  46.8046684  67.2551498  49.9129677
  48.0637245  67.8501816  50.5060081  42.8013344  14.7551546  73.4393692
  42.2328949  14.7195520  74.2086792  43.5863113  15.2114000  73.7424927
  24.3967361  41.7533340  41.9222679  23.4517040  41.6289673  41.8346443
  24.5659485  41.6510963  42.8588257  59.2204704  70.1922073  72.5074692
  59.8714714  69.5049591  72.3656082  58.7555199  70.2575531  71.6733322
  47.1760254  37.1725922  86.3185120  47.4300842  36.3766670  85.8514099
  47.5862770  37.8819313  85.8237762  27.6104679  39.0042000  23.5563679
  27.1006222  38.7925262  24.3383408  27.6270790  39.9609718  23.5330105
  83.2306824   1.5989618   0.6988124  83.5755005   2.2059596   1.3537047
  82.8022766   0.9126787   1.2103978  61.2988853  37.2219582  47.0575142
  62.1837654  37.5115776  46.8353844  60.7254486  37.8761292  46.6581879
  31.1331081  53.4927292   2.6948729  30.6869717  54.3301659   2.8209474
  30.6275291  53.0524826   2.0116444  19.3994122   7.9033756  68.0862350
  20.3506870   7.9233212  67.9817734  19.1426449   7.0347247  67.7768021
   8.5865269  36.0425301  49.1240616   8.6486731  35.5578461  49.9471359
   8.9033861  36.9199867  49.3383064  11.0897999   1.7452803  30.6883907
  11.7896509   1.5930365  30.0533619  10.7727327   0.8697028  30.9098969
  22.7761211  66.6654816  56.5574341  22.8971806  67.1297607  57.3856964
  22.3758717  65.8323135  56.8061676  52.3584251  49.9673233  23.9798946
  53.1156540  50.5467567  23.8956585  51.8394699  50.3525009  24.6859798
  35.4562492  11.2232590  87.3039017  35.4999199  10.2692785  87.3690643
  34.5241432  11.4137020  87.1983414  74.5612869  17.5526428  33.2895241
  75.0684357  18.3505325  33.1398392  74.9492950  17.1659431  34.0744743
  78.0042877  16.7120743  17.7840061  78.2921829  17.5157223  18.2170162
  77.1413727  16.5343113  18.1581974  83.9185867  28.7008266  40.9152298
  83.8801498  29.6504536  41.0290909  84.8153839  28.5302219  40.6273460
  79.5066681  39.4341202  70.8640747  79.0966873  39.3049393  71.7193298
  80.4287415  39.2197380  71.0056381   4.2815404  46.5066948   9.7884064
   3.9218047  47.3830566   9.9255667   4.2644224  46.3866692   8.8389149
  44.3208885  69.6140823  43.6051369  43.6553802  70.0448227  44.1415977
  44.8855553  69.1680832  44.2363777  51.6216049   5.7154207  57.2508049
  51.3693047   6.2156172  58.0269394  50.9476967   5.0403032  57.1714439
  66.8175507  25.0742722  23.8833065  65.9741364  25.0867062  23.4308414
  66.6264267  24.6825314  24.7355042  70.2940674   8.8011322  26.4717503
  69.8896027   8.6539383  25.6167774  70.0515518   8.0318089  26.9870739
  78.7512817  64.0507431  83.8736877  78.1453400  63.8577766  84.5891037
  78.2010117  64.4336395  83.1904449  81.9824371  10.7467546  62.5775261
  81.5064850  10.3884373  63.3267365  81.6514359  11.6405010  62.4886971
   7.0330906  21.7869263  66.2878876   7.1496782  21.3526459  67.1328964
   6.3471875  22.4358978  66.4447479   0.6056442   6.4353991  23.0894547
  -0.2584242   6.1859393  22.7617550   1.2041206   5.8022461  22.6930027
  19.0875683   9.5264196  81.5068588  19.1859627  10.2049875  80.8389511
  19.9218998   9.0573626  81.4964752  80.0134125  13.5458279  82.3872833
  79.1749420  13.6619005  81.9403763  80.0202484  12.6249189  82.6482697
  26.7686329  44.8474960  86.6413879  26.9274101  43.9673958  86.3001404
  26.0630817  45.1927910  86.0943985  57.3941917  15.7125568  71.7188034
  57.8598938  15.3304214  70.9749451  57.3870621  16.6527920  71.5395279
   7.5440154  41.8965263  63.5454865   7.9631605  42.7321167  63.3397293
   6.7580323  41.8819389  62.9993629  82.9001541  68.9559708  86.7029877
  83.3372421  68.6497116  87.4975891  82.1631317  68.3560104  86.5886307
  41.6988297  19.2239113  19.7335835  42.2360268  19.8485203  19.2462292
  41.9379349  19.3658676  20.6495018   3.5463834  17.4498672  17.7689381
   3.7717147  17.6343861  18.6807556   4.0145125  16.6400661  17.5656948
  83.3173141  12.6777821  34.7468300  84.0915604  12.1491957  34.9401665
  83.0680161  13.0549364  35.5905304  39.6030731  31.0383720  84.6731339
  39.7598152  31.2281570  83.7481232  38.8907356  31.6276741  84.9211807
  65.9560013  58.1092758  10.9897127  65.0201569  57.9511070  10.8655834
  66.0188599  58.5043869  11.8592930  71.2511139  46.8003426  49.0716934
  72.1529541  47.0407524  49.2841187  70.7595673  47.6175079  49.1544647
   1.9651756  38.4993782  24.8164330   1.4571431  38.7999840  24.0629253
   1.5868537  37.6480026  25.0361176  54.5862160  27.1143589  14.1233711
  54.2810898  26.2379322  13.8888369  55.2998199  26.9617386  14.7428150
  57.6951447  42.0143394  70.0853119  57.2132912  41.2826729  70.4709473
  57.0315552  42.5140419  69.6097336  79.6747742  48.9988251  19.3207989
  79.2453766  48.2610016  18.8878345  79.5839691  49.7246704  18.7034359
  17.3571148  52.1405678   3.0691569  17.7737675  51.4644775   2.5348074
  17.4419594  52.9411659   2.5513940  73.9279327   5.8553200  73.9307709
  74.3933792   6.6568694  73.6917877  73.6161652   5.5019288  73.0976181
  18.7144394  31.6813107   2.6767778  19.6249237  31.3898468   2.6288638
  18.7711735  32.6047821   2.9221690  11.0392981   8.3385744   0.2024105
  10.6184664   7.5995588   0.6417145  11.9567070   8.2856588   0.4703523
   2.9775269  40.8941956  83.3174210   3.0444846  40.5661201  82.4207001
   2.1658385  41.4014473  83.3268967  59.2130623  52.9850388  61.0257950
  59.4996414  53.6666794  61.6336327  59.3971748  52.1641464  61.4823837
  31.0311775  32.7109718  45.1159897  31.9677544  32.9077263  45.1345444
  30.8336315  32.4026985  46.0003929  10.9750042  49.8007622  59.5411949
  11.4647808  50.4906197  59.0934792  10.4577541  49.3871460  58.8501053
  51.7154846  36.5767288  78.0171738  51.1144218  37.0534172  78.5896454
  51.4655190  35.6583672  78.1189575  39.8371582  35.3299561  15.4430122
  40.1118126  35.7836533  16.2398548  40.4653893  35.6120033  14.7781763
  33.8349342  24.6224308  70.5130692  34.4346924  24.6670418  69.7684021
  34.3660240  24.2708721  71.2276230  53.1445923  53.3546600   6.6003327
  53.2771568  54.2989655   6.5170236  52.2514114  53.2097244   6.2881598
  57.7575684  41.3485565  13.5040140  57.9642906  42.1149178  14.0389786
  58.4124870  41.3599701  12.8060312  60.4650459  34.7563934  45.1160660
  60.9926796  33.9636192  45.0194092  61.0239906  35.3575630  45.6084175
  21.9402771  36.0951080  75.7654800  22.5727310  35.4433746  75.4630280
  22.3520985  36.4898033  76.5341415  42.2499352  31.4068642  54.3558350
  41.3280106  31.6054420  54.5197029  42.5860405  32.1828423  53.9073677
  47.8610802  52.7033157  34.8381081  47.4204521  53.4157639  35.3012428
  47.4150963  51.9110527  35.1375351  46.0436249  17.3420830  13.3116789
  46.8378944  17.2488956  12.7856712  45.4319229  17.8077106  12.7413750
  14.6803331  51.4294510   9.9574919  14.4692907  50.7337952   9.3347931
  14.4302559  52.2369041   9.5083637  50.7738838  16.3068333   1.7929859
  50.8074493  17.2475014   1.6190574  50.1599159  15.9648609   1.1431154
  75.7772903  10.8789282  58.4080811  75.4074402  10.3233442  59.0942078
  75.6442413  10.3827209  57.6004257  62.5881386  14.4858084  23.0511093
  62.2260284  13.6003380  23.0835609  62.1486702  14.9505396  23.7632370
  80.2657928   3.7636931  65.3314667  80.0130081   3.6664276  64.4133835
  79.8395386   3.0310440  65.7761688  65.9257507  23.0916023  42.7961044
  66.7857437  22.6933384  42.6618500  65.5763779  23.2105598  41.9129181
  64.0008163  27.7275562  45.3251305  64.5485077  27.0829487  44.8770790
  63.4052773  28.0480499  44.6477470  34.3102036   3.5032785   3.4223700
  33.9084320   2.8292913   2.8741417  35.2509117   3.3987730   3.2796316
  76.3859787  36.0123940  41.2964897  76.2010651  35.6238441  40.4414635
  76.2384262  36.9497337  41.1705818  64.0315552  66.6831055  83.0166626
  63.7683258  66.2274933  83.8162613  64.5473862  67.4283829  83.3244247
  33.4280968  41.3240395  71.9333801  33.7017899  40.4077873  71.8908386
  33.6547737  41.6818199  71.0749817  43.9647484   4.8481383  85.2382736
  43.7556534   5.1524262  86.1213989  44.5304718   5.5307598  84.8774109
  43.7934456  33.9273605  37.4902344  42.8836403  33.8343430  37.7727890
  44.3060417  33.5500641  38.2051659   4.4129705  41.4595757  25.7227879
   4.1260810  41.4297943  26.6354980   3.7901235  42.0471878  25.2949963
  53.9616089  53.2667351  73.1839828  53.0830345  52.9181824  73.3351517
  53.8744431  54.2083931  73.3320236  52.8910713  16.1766605   8.6221600
  52.4668808  15.3318634   8.7725401  53.0469322  16.5259724   9.4996109
   5.7669230  60.3686485  23.5808525   5.2469411  61.1447105  23.3720951
   6.1915865  60.5813217  24.4119129  74.6128616  61.3857422  66.5403671
  75.1371841  61.9049187  67.1501007  73.7247391  61.7300072  66.6349487
   4.9062753  43.8635445  51.3902512   5.4623976  44.1517487  50.6664429
   4.2170711  43.3475151  50.9719887   1.7071515  49.0709877   1.5488826
   2.2843215  49.7083817   1.9693972   2.1939559  48.2475510   1.5836604
  51.4976730   9.4518557  10.3813896  50.8548012   8.7624092  10.2152290
  51.8498917   9.6642666   9.5170660  40.7191277   2.2311661  17.1620731
  40.1695290   1.6001312  17.6267986  40.3588791   2.2553740  16.2755814
  77.8252335  53.9255905   9.1328411  78.7818756  53.8931427   9.1295719
  77.5780106  53.6145363  10.0036764  82.3406296   0.2817985  47.8715973
  83.1785889   0.1055479  48.2993660  81.9908524   1.0431104  48.3345146
  34.4416122  67.1146164  65.6011429  33.8314438  66.8268890  64.9220734
  35.2785950  67.2094574  65.1465073  37.6796799  38.0329323  82.3522873
  38.2389755  37.6300354  81.6881332  36.7948799  37.7459106  82.1264877
  59.6170883  69.8429718  27.9683666  59.0073051  69.5289841  27.3006763
  59.3154411  69.4340057  28.7795334  38.9476433  54.0242729  30.9711494
  38.2278824  54.6069145  31.2134361  38.7953911  53.8270226  30.0469513
  81.7480087  38.6532669  14.4877729  80.8125458  38.5277443  14.6471214
  81.8868866  38.3195381  13.6014490  78.5429535  24.6813068  22.9516659
  79.0553284  24.0411110  22.4578552  78.4049835  24.2706223  23.8052082
  62.9104004  60.8003159  79.1357117  62.1221161  60.2876892  78.9566879
  62.5909996  61.6932068  79.2659760  52.2207909  45.2292404  61.6912651
  52.8965797  45.7616196  62.1109276  51.4083824  45.7133789  61.8390274
  62.3295135  15.2687626  15.3861599  63.2734909  15.3183155  15.2355452
  62.2348442  15.3339739  16.3364315  79.2394714  60.6772995  73.0397186
  78.9575272  61.2294273  72.3104095  78.5914230  59.9735718  73.0718384
  63.9218254   2.8523784  76.9107361  63.9674797   1.9219848  77.1309967
  63.0022430   3.0843432  77.0403137   4.0230575  68.6911545  30.5720768
   4.0852871  69.0803757  31.4443512   3.9364214  69.4394608  29.9815178
  73.0721130   0.1281692  40.4632683  74.0007019  -0.1031318  40.4419479
  72.7726212  -0.0000558  39.5632172   0.0306227  30.3778534  48.2087936
   0.5466456  29.5729160  48.2538338   0.2194969  30.7352028  47.3411179
  70.3030090  30.2444420  69.4494553  70.3154678  29.3253212  69.1824417
  69.4051743  30.5305424  69.2813492  31.2190876  19.5067902  73.0859833
  30.4492378  18.9398708  73.0394440  31.8208256  19.1475754  72.4339828
   9.0924072  40.6471443  65.6971207   8.6872072  40.9847145  64.8983154
  10.0307026  40.7834663  65.5657730  37.9164734  37.1025925  75.0543365
  38.6239243  37.0856094  75.6988983  38.3002014  36.7158775  74.2672958
  67.1618805  59.7713737   3.0984435  67.1779785  59.3888741   3.9757500
  66.3670654  60.3045616   3.0841689  57.3151321  58.0995522  62.9437294
  57.8982506  58.7268524  63.3711586  57.3824959  57.3078079  63.4774284
  84.6248550  32.0678062  36.0853271  83.9081268  32.7022476  36.0806198
  84.4070511  31.4656773  36.7968292  14.4547873  28.4802418  58.4784088
  13.6359739  28.9545307  58.6227226  14.5434427  28.4396553  57.5261879
  57.1675148  58.3955078  22.0014858  57.8730812  58.8204041  22.4892025
  56.8603096  59.0661964  21.3915386  59.7664795  65.1336823  11.2892818
  59.6866341  65.0271759  12.2371807  58.8630219  65.1812134  10.9766579
  83.7631989  59.1522141  68.2914124  84.1692352  59.3926010  69.1242294
  84.0659561  59.8197746  67.6758347  73.7095490  18.1893311   6.8526740
  74.4644470  18.4658260   6.3331451  73.6252213  18.8613453   7.5290747
  50.4302483  63.3923302  55.6640701  50.4190559  62.9180870  56.4954567
  51.3050995  63.7782631  55.6202354   2.7375534  32.9668083  77.6918411
   2.7463911  33.5512009  76.9337921   1.8922133  32.5207176  77.6405182
  33.4281197  49.8637161  33.4241219  32.9446945  49.3978653  32.7418404
  33.7674942  50.6444931  32.9865799  83.9247818  51.8143959   9.1223354
  84.0604477  51.8331566   8.1749840  82.9911728  51.9935760   9.2341852
  84.6128464  40.4019012  58.2342339  85.0295410  40.9040985  57.5339508
  84.8243332  39.4901657  58.0336189  68.8126221  55.5484772  58.3923569
  68.2560577  56.3254166  58.3391418  69.2393417  55.6175766  59.2463837
  66.2930069  44.6008263   3.1878824  66.2792358  45.3502617   2.5925767
  67.0478973  44.7590637   3.7547393  76.4011154  15.2857046   9.0875473
  76.1902618  14.5810070   9.7000608  75.7561874  15.1943693   8.3861561
  63.1307983  58.8739281  76.9376068  63.4769516  59.3069611  77.7179260
  62.2100029  58.7114258  77.1424561   1.2431775  13.1008787  59.6773567
   0.5755677  13.7776251  59.7893600   1.8838084  13.4923601  59.0835838
  43.1277237  34.4779472  65.1705780  43.9118080  34.9453773  65.4585953
  43.3895645  34.0508194  64.3549576   2.8057668  43.2410469  24.3411503
   2.3991928  43.4896889  25.1712742   3.5032980  43.8840942  24.2139969
  57.4181976  10.3941212  46.6522789  57.8060989  11.2615690  46.7676010
  56.7652016  10.5135107  45.9626579  35.3737946  48.4679985  40.9825020
  35.5170517  49.3316307  40.5953979  35.2568245  48.6406746  41.9167061
  49.3826180  26.5024090   9.0493813  50.0381927  26.8687057   9.6429100
  49.4192734  25.5586643   9.2050610  80.7547913  31.8122959  42.7991447
  80.1088257  31.8910847  42.0971832  80.5848846  30.9532528  43.1856804
   7.5636086  34.5830269  76.8007660   6.6719790  34.9297218  76.7686310
   7.4595232  33.6825676  77.1082916   7.0509586  65.7063065  29.7446995
   7.2244649  66.6450729  29.6751232   7.5278311  65.4320068  30.5280170
  41.3866081   9.5317497  14.7938805  41.1361465   9.0332603  14.0160570
  41.4455032  10.4372911  14.4893198  28.0085144  41.8358841  55.5937691
  27.5794086  42.5455971  55.1158485  28.4367371  42.2690125  56.3321877
  24.3795681  52.9847565  62.5295753  24.8208561  52.2527237  62.9604187
  23.7192822  52.5721855  61.9727631  12.4142733  51.5460472   4.2232146
  11.8239470  52.2971077   4.2836590  13.1271467  51.8464775   3.6594911
  18.1579113  56.6078033  39.8945808  18.0593433  55.6618538  39.7864304
  19.0019550  56.7119904  40.3338623  15.3839626  55.5265160   4.0960045
  14.5219727  55.9124413   3.9402292  15.9966164  56.2518883   3.9746764
  44.8102341  25.5840111  71.6938019  44.5087242  26.4904289  71.6327362
  44.0100327  25.0613670  71.6413345   8.2625713  66.4707336  81.1774139
   8.7293606  65.7712097  81.6345825   7.3837919  66.4599457  81.5567093
  65.0637970  25.3866138  61.9502640  64.9269104  25.2222252  61.0172729
  65.5062790  24.6001987  62.2696304  75.0548477  19.7150974  80.9541321
  74.2565231  20.0987949  81.3170319  74.7453766  19.1174393  80.2734985
  81.8155136  18.4292164  14.4712772  81.9230194  17.7453423  13.8102236
  81.5020218  17.9649315  15.2474194  68.5124664   8.5700550  67.2870255
  68.7136002   8.3229780  68.1896439  67.5917435   8.3341722  67.1736298
   4.6795168  61.2206955  62.7488060   5.4806137  60.8055000  63.0683212
   3.9720886  60.7283707  63.1652145  66.0236969  48.4556999  59.8216820
  65.5045013  48.4649391  60.6257858  66.1491165  49.3800240  59.6069260
  56.2984543  30.6881485  53.8591385  56.7334023  30.2121716  53.1516800
  56.6790924  30.3274288  54.6599083  55.9553261  66.5705109  33.9389915
  56.5693169  67.2789078  33.7455711  55.2580986  66.9890442  34.4439049
  50.1116753  51.3966484  26.8554192  50.9664307  51.6647263  27.1927032
  49.4870377  51.7102585  27.5094147  60.1541634  15.8114719  13.6540365
  60.7833328  15.7160273  14.3690653  60.5893059  15.4175406  12.8979282
   9.2602692  56.3249130  51.9762802   8.5569239  56.1496658  52.6014442
   9.6168127  57.1707191  52.2477913  66.8189087  35.4141159   0.1246555
  67.5344849  35.6852989   0.6996671  67.0099792  35.8382950  -0.7118824
  59.9054527  30.6250992  46.1677132  60.7178192  31.0657825  46.4168930
  60.1135979  29.6922073  46.2189255   8.1129045  52.7834129  25.8571434
   8.3478003  52.1632462  26.5473957   8.4371042  52.3797836  25.0520287
  48.6913567   4.0293121  66.7416229  48.0824089   3.4661655  67.2194061
  49.1651688   3.4325578  66.1622925  31.6430149  67.4480362  19.0144329
  32.1434937  67.3007965  19.8169746  32.0210762  68.2431870  18.6388855
  16.5519447  37.8409157  22.6354923  16.4677868  38.5378723  21.9848022
  15.6918945  37.7983856  23.0535088  84.7943268  41.6255455  16.6572895
  85.4469986  41.9164619  17.2941723  85.1243820  41.9397850  15.8155365
  77.8683853  18.5916824  14.9986086  78.1802521  17.9815426  14.3302517
  77.8279724  18.0692844  15.7996693  77.2761230  14.8106871  60.6860390
  76.8663330  13.9588928  60.8368721  77.2573853  15.2402782  61.5412216
  47.6562157   7.2189546   7.6983743  48.5607414   6.9072747   7.7287211
  47.7283974   8.1708384   7.7686467  35.8552094  66.2649155  29.3345814
  36.0411530  66.2205887  30.2725010  35.3524094  65.4710617  29.1523075
  45.7435608  39.2713432  87.0437698  46.0296173  38.4681015  86.6087952
  45.3776703  38.9751358  87.8772049  61.9554520   5.8585410  84.6858368
  62.5435944   6.2396789  85.3377991  62.1471596   6.3389287  83.8804092
  82.6630707  69.9322357  50.6711655  82.7438431  70.4783478  51.4531326
  81.8235168  70.1857681  50.2876358  28.1592541  16.0301151  77.9017258
  27.6148396  16.1080189  77.1182861  28.0994091  16.8883801  78.3212891
  54.8773308  28.8648758  83.6149063  55.1107597  29.7171822  83.9827576
  55.6397743  28.3125305  83.7876053  61.8072433   3.7024972  49.4899940
  61.0576096   3.2562118  49.0961609  62.0138359   3.1833386  50.2671852
  68.2197418  65.7101822  71.7501678  68.4213028  64.9965286  72.3553925
  68.9859390  66.2824631  71.7910004  23.2706795  26.4117317   0.7275004
  22.5356617  26.2778664   0.1291181  22.9069691  26.2393303   1.5959617
  53.5077324  59.3929901  53.6317749  53.9893990  58.7624779  53.0963478
  52.8085747  58.8791962  54.0360413  82.8550491  58.4228745   7.7557416
  82.4158859  57.5723991   7.7634363  82.1757660  59.0455513   8.0147257
  29.5307274  45.5273285  79.0010452  29.8968010  44.8527832  78.4290237
  30.0937195  45.5163269  79.7750931  23.6309433  40.6219101  16.5512009
  24.1084156  40.0671768  17.1680641  24.1994343  41.3811378  16.4222736
  11.1513023  59.9191208  63.4105492  11.4167786  59.0010529  63.3567085
  10.3817825  59.9795189  62.8444901  57.8140068  35.9236259   1.1144552
  57.9875717  35.1711617   0.5488505  58.6790695  36.2901497   1.2976410
  58.5630302  38.0674057   6.8415923  58.9166946  38.9363747   7.0314612
  58.5608253  37.6196213   7.6875925  50.4387016  39.2996254   5.1866350
  51.0374565  39.4680634   4.4590664  50.8125381  38.5401993   5.6335731
  61.5841141   6.9245715  60.0957108  61.8313408   7.3918076  59.2977142
  61.5362549   6.0061169  59.8304138  49.7899742  60.7873459  34.9610710
  50.4440613  60.5344963  35.6125832  48.9617805  60.7882271  35.4409943
  50.3030205  65.9382324  48.7335701  50.5583992  66.6350021  49.3381577
  49.3489189  65.9006195  48.8007240  21.6884403  51.2734413  15.3284025
  21.9225826  51.1449165  14.4092236  20.8489132  51.7323608  15.2997990
  61.5504875   4.6004128   5.6841402  61.9181595   4.1956229   6.4697571
  61.5340576   5.5367045   5.8824320  66.1283722  54.6882744  40.5454330
  66.5947113  55.4831581  40.2867470  66.2762909  54.6200371  41.4886703
  36.3967514  24.9821510  69.3903732  36.6692772  24.6782169  68.5245819
  37.0358620  25.6568966  69.6194763  24.7693768  47.2267418  59.2278252
  25.1265583  48.1094475  59.3251915  24.3368816  47.2362099  58.3739586
  36.3128281  20.3287506   6.2403059  36.5107231  19.5800743   6.8029370
  36.2642937  19.9594898   5.3585339   1.4082624  62.8108139  67.7705460
   1.8140138  62.1990204  67.1562958   1.9877411  63.5726738  67.7677612
  84.3045654  30.2020378  38.0212326  83.4005661  30.1403942  38.3298111
  84.4226837  29.4286060  37.4697914  72.2122040  39.5267563  56.5405960
  72.8268127  39.4562950  55.8101768  72.7675781  39.6571655  57.3092194
  60.4738808  21.1639748  16.8020821  61.0825386  21.6881142  16.2814617
  60.6545830  20.2601700  16.5437870  57.9197922  52.7642097  64.2687225
  58.1295586  52.5999260  65.1880875  58.4166908  52.1024170  63.7877235
  14.7446337   8.6219959  81.4826813  14.0349512   8.0943537  81.1163788
  14.3017187   9.2817354  82.0163498  18.7748890  44.6592712   5.6772528
  18.4847412  45.0125389   4.8362722  18.1469097  43.9643440   5.8746090
  36.5250854  58.1243248  37.9876976  37.4506111  58.3307800  37.8572578
  36.3381577  57.4434814  37.3413658  62.6511879  24.7993164   4.3506231
  63.3379211  25.4635620   4.2922344  61.9272728  25.1574364   3.8368843
  27.3369865  25.7872448  69.9320450  28.0225544  25.1628284  69.6947021
  27.0333595  25.4944420  70.7912979  73.2386169  27.7237797  25.0777512
  73.5400085  27.1815395  25.8067036  74.0420380  28.0647240  24.6846809
  27.3793869  37.6168976  86.1853943  27.4358902  37.7331352  87.1338272
  27.2837925  38.5046959  85.8405533  78.3217621  52.3010178  88.2192230
  78.5690155  51.4497795  88.5804596  78.3245697  52.8910217  88.9729614
  48.6451492  55.5313148   1.6086987  48.2632790  56.3982162   1.4712498
  47.9954453  55.0639038   2.1337140  33.7563705  17.9507256  13.4750328
  33.7803841  18.7208710  14.0429497  33.1137199  18.1704655  12.8005333
   5.4458776  41.7815247  33.0809631   6.2344809  41.9377022  33.6005287
   4.8471966  41.3378448  33.6817665   9.4730692   5.8380928  87.8692322
  10.2803545   5.4171071  88.1646881   9.6054440   5.9785318  86.9316940
  62.3342323   9.2451668  47.7187042  61.8812256  10.0212212  47.3889198
  62.4232483   9.4012394  48.6588898  43.2679901   4.9079657  19.8729973
  42.7032433   5.3712649  19.2544136  43.1257172   5.3542423  20.7077599
  33.7659149  18.2520561  17.2088928  33.8402710  17.3612194  16.8666782
  34.5161858  18.3465958  17.7957401  30.5631809  43.9512863  76.1047821
  31.3438950  43.8156052  76.6417236  30.7679405  43.5252647  75.2724304
  72.6267700  59.1538010   1.2611588  72.5790863  58.2171516   1.0697306
  71.8390503  59.5207062   0.8597755  55.9145355   1.1210335  33.2917137
  55.4362984   0.3160358  33.4904594  56.1156349   1.4978493  34.1483345
  61.0481834  32.9733162  77.2090759  61.2361374  32.6605186  78.0939865
  61.5524292  32.3937607  76.6380386  53.0737724  21.8720722  22.3557415
  52.8790245  21.4846478  23.2090931  52.7364235  22.7658367  22.4158688
  65.2689590  54.6533699  12.0542269  65.3681107  54.8660507  11.1262360
  64.3245316  54.5599213  12.1789541  86.0944214  69.2001877  70.4486008
  86.3108063  69.5231628  69.5738983  86.9429779  69.0361557  70.8600464
  85.4155502  29.8368702   2.6106477  86.2819290  30.0301971   2.2525294
  84.9758987  30.6863995   2.6458132  58.0632706  35.7453842  59.5243149
  58.2284279  36.1021500  58.6515732  57.1383133  35.4993744  59.5113983
  24.2692490  57.1658592  60.9982262  23.5074005  57.5897179  60.6030502
  24.9868679  57.3496513  60.3920288  23.3511486  24.8872318  81.0635986
  23.1371155  23.9784775  80.8524399  22.6835594  25.1494617  81.6974716
  68.9108963  19.7439442  22.4870129  68.6553268  20.1332855  21.6507549
  68.5014954  18.8787212  22.4834576  16.6154041  42.7514381   3.4409118
  16.9114780  42.5144882   4.3197899  15.7094316  43.0357094   3.5618982
  83.5948486  70.8371887  57.9074326  84.1108551  71.2069702  58.6238327
  82.9549942  70.2718430  58.3400993   4.7821403  32.6590424  55.3400879
   4.9331493  33.2774773  56.0549088   4.9914412  31.8036404  55.7152061
  77.4834137  43.4493065   7.3721547  77.1857300  44.3425331   7.5446939
  78.1530380  43.2874374   8.0367041  12.8291025  37.8268852  47.0006256
  12.3180590  38.0448227  47.7800941  13.7402267  37.8782921  47.2894897
  40.2409821  13.6380453  74.5563278  40.1760254  12.7785378  74.9725723
  40.0365448  14.2588816  75.2556076  56.6848488  68.3244247  82.1858215
  56.7158165  68.7150574  83.0591431  55.7643623  68.0946808  82.0587158
  84.9938889  62.9755630  63.9116745  85.1393127  63.0503235  62.9685440
  84.4819260  62.1730537  64.0122070  52.5973244  39.7114105   0.6378288
  51.9702148  39.2078667   0.1187810  53.4170914  39.6514015   0.1473036
  51.7183418  57.3334389  83.3620224  52.0923576  58.1966820  83.5385361
  52.4276733  56.8462448  82.9428253  42.6914787  62.0648308  48.3932915
  41.9742622  62.5261497  48.8280525  42.9287796  62.6298027  47.6579514
  52.4197655  34.0114059  28.7437057  53.1684227  34.4096489  28.2996922
  52.6747704  33.9845467  29.6659222  11.4370794  29.5995255  67.2183075
  11.2261391  29.3094730  66.3308411  10.8413801  29.1039066  67.7802124
   6.3474355  66.0176773  74.8528671   6.6795568  66.2007370  75.7317352
   6.1050682  65.0919724  74.8764114  54.9610138  24.0000477  40.9480591
  55.1681137  23.3282719  41.5977249  55.4310036  23.7249413  40.1608772
  20.5857010  47.3049889   0.6886746  19.9075985  46.8641205   0.1767701
  20.1210690  48.0021858   1.1515672  69.6118011  53.1282043  32.5465889
  69.2900085  53.2924385  33.4329910  69.5244141  52.1819687  32.4315414
  56.9986649   9.5938044  79.5925217  56.9156380   8.6402340  79.5989609
  56.4797745   9.8743229  78.8386688  74.4477463  69.0953979  68.8910599
  73.5906906  69.5078125  68.7833481  75.0032578  69.5238724  68.2398758
  67.7002945  13.2364092  76.3694992  67.6455917  12.3862705  76.8059692
  66.9712219  13.7393427  76.7324677  66.9986343  69.6457596  83.8800888
  67.9287109  69.8344345  83.7552567  66.9813385  68.9522400  84.5396042
  18.0939064   3.7536776  25.6817207  18.0066624   3.4937377  24.7646313
  19.0098629   4.0172815  25.7698555  33.5452271  40.4550400  65.9850998
  33.0198326  40.2511482  66.7588043  32.9126091  40.7815704  65.3452530
  71.4064560  57.1018143  77.2959900  70.8619385  57.1747665  78.0798340
  70.8248367  56.7274742  76.6343155  70.3085632  57.9564857  49.6298790
  70.2897568  57.4083786  50.4143867  71.2342834  58.0002327  49.3903923
  22.3966522  30.8588314  20.4830017  21.5484104  31.2820568  20.6156540
  22.9713058  31.2656174  21.1314850  47.0647926  13.6932840  63.5702820
  46.6271362  13.9609795  64.3783798  47.8964539  14.1670723  63.5800476
  38.1901321  48.4101143  16.9241371  38.0142632  48.8662338  16.1011810
  39.1305923  48.5213547  17.0633945  77.8136444  11.8756485  42.1745186
  78.4441910  12.2242355  42.8047028  77.2584152  12.6231651  41.9527779
  65.4815140  13.5053415  10.4749393  65.4494095  13.1091013  11.3456831
  65.4106674  12.7651310   9.8721943  72.1032257  29.1462402   4.6193581
  71.4120331  29.1632042   3.9573915  72.6956177  29.8538723   4.3652782
  52.6416168  14.7121248  79.9266815  51.7202911  14.7155504  80.1862640
  52.6328125  14.9830027  79.0086517  70.2272644  34.8494492  31.2681198
  69.4059830  34.3591423  31.3045406  69.9598007  35.7677841  31.3049526
  21.1316528  23.2665272  18.5811920  22.0238991  23.0724411  18.8683491
  20.8713493  22.4985600  18.0725632  47.8025856  31.6397057  63.7159195
  47.8981361  32.5767822  63.5456696  47.1061821  31.3582611  63.1225891
   5.0616674  56.2757683  26.1458855   5.8135037  55.8988571  26.6029530
   5.0107718  57.1751137  26.4696407  19.3325214  11.1250706  64.8685303
  19.4533787  11.0583477  63.9213371  19.9409370  11.8124456  65.1397858
  28.5795517  59.3731384  45.6530838  28.7633915  60.3066521  45.5482826
  28.0477772  59.1466179  44.8901024  83.0490723  32.4628868  18.5389309
  83.7464066  31.8532715  18.2974224  82.2405701  31.9710770  18.3951550
   4.3771839  67.2906265  62.7422905   4.8268766  67.2722244  61.8974991
   4.3653717  68.2158813  62.9872322  86.2835770  46.7239990  73.8083878
  86.1885223  47.0333786  74.7092056  87.1611023  47.0055923  73.5497665
  45.6379395  56.8367767  50.5240784  46.0913887  57.5926971  50.1509819
  44.7122650  57.0797272  50.5057487  84.6422958  56.9778175  65.4249268
  84.6521225  57.3521881  66.3058243  84.3041611  56.0904922  65.5455399
  43.2146568   2.7200763  24.0755768  42.7729301   2.0710964  23.5279140
  43.8109360   3.1715760  23.4782238  77.3349533  18.6264877  40.6474571
  78.1730423  18.4458008  40.2217903  77.2185364  19.5721169  40.5554428
  61.6628685  57.1754837  45.1016846  60.8231888  57.2580643  44.6496315
  62.0512199  56.3780479  44.7418137  44.6052132  71.1904755   9.5406809
  45.1089783  71.4306564  10.3183460  44.1601830  71.9983292   9.2846527
  60.6796913  15.5280695  50.3617783  60.6136131  15.9695377  49.5150375
  60.3007202  16.1477299  50.9851837  16.6970711  47.7535858  73.5993500
  16.3919163  47.7288551  72.6924362  17.1924648  46.9417381  73.7075958
  66.8996353   7.8233380  77.5862885  66.1674957   7.5106668  77.0548401
  67.6534119   7.3230872  77.2735519  59.5278091   6.7309136  68.0433350
  59.5546761   6.2130456  67.2387695  59.0980034   6.1608047  68.6808929
  53.4662895  36.5286942  89.0496063  53.5464516  35.7191849  88.5451279
  53.8396301  37.2027664  88.4817352  67.4413986  21.3976383  23.9359093
  67.7899704  22.0618134  23.3412609  67.9812012  20.6239777  23.7737465
  22.0451756  53.8084793  89.0889969  22.9353733  53.4568367  89.0778503
  22.1134930  54.6478310  88.6339569  60.9223480  60.3439369  66.4668427
  61.1687775  59.6323318  67.0577011  60.0154724  60.5443611  66.6984482
   9.3099785  33.4657364  86.5513611   8.9913721  32.7488785  87.0998383
  10.2577486  33.3366737  86.5152283  61.0253601  67.8125305  11.7964830
  60.5254745  67.1339874  11.3426924  61.5715218  67.3319931  12.4185944
  66.7081757  69.9717026  51.7678185  65.9964294  70.5016327  51.4089050
  67.0305862  70.4773941  52.5138512  44.5332947  23.5480175  59.8481407
  44.5299721  22.7095032  59.3864975  45.4591179  23.7824860  59.9122124
   7.4775534  36.9269295  74.0162582   7.1224990  36.0385361  73.9859161
   6.8360448  37.4240417  74.5237808  14.4363022  66.3321533  68.8089447
  14.7746611  67.0002899  68.2128448  15.2109461  65.8411026  69.0828552
   2.1736326  27.0231323  88.8700409   1.2992339  27.1135445  89.2488327
   2.1235917  26.2283230  88.3389969  81.3335114  54.0065613  29.6878433
  82.1531830  53.9748993  29.1945171  80.9532166  54.8565369  29.4661427
  83.4248276  50.2935143  46.0872612  82.9563828  51.1082611  45.9056625
  82.7597809  49.7118301  46.4554939  47.5959892  44.3777008  59.1329956
  47.7509079  44.8642883  58.3233871  46.9062119  43.7530708  58.9087677
  56.9840584  28.0692101  17.0177612  56.7767982  28.3138084  17.9196739
  57.0158272  28.9010620  16.5452709  75.1909332  45.2684898  43.3229599
  75.8073425  45.3973732  42.6020813  74.3661880  45.6321182  43.0007820
  50.1716690   7.3083453  82.3577881  50.2151413   7.2069144  81.4069748
  50.8415680   7.9615183  82.5598602  72.8237991  19.0868950  56.7553101
  72.6497650  18.2729721  57.2280388  72.5910339  18.8911972  55.8477020
  76.1635284   4.2950988  41.6877975  76.0062256   5.1418734  41.2701111
  75.3849640   4.1441073  42.2237778  49.0277443  49.9127846  86.7225876
  48.0715523  49.9187508  86.6791382  49.2546272  48.9963264  86.8802719
  59.7499962  66.7473526  27.9656506  59.1204338  66.1221237  27.6065197
  60.1371765  67.1658249  27.1967545  23.4802094  21.0354271   7.3809805
  24.2732296  20.5607548   7.1319046  22.8133411  20.3551674   7.4746113
  10.1272755  40.5596390  17.0497303   9.9612551  39.6914101  16.6825104
   9.3001680  41.0285912  16.9392262  77.8532333  27.3120270  13.1639767
  77.8024597  27.6458607  14.0596390  78.1314850  26.4015465  13.2631378
  78.0783386   6.2027440  57.7555695  77.3977127   6.6632690  58.2463760
  78.8977127   6.4767761  58.1676064  38.4510384  44.9193420  60.5016861
  38.9762230  45.2599030  61.2258644  37.8265495  44.3249359  60.9175224
  11.7896080  15.3117933   9.7432499  12.3061256  16.0219460  10.1242027
  12.4388103  14.7241507   9.3566685  46.2523651  45.1520157  79.0441513
  46.2153435  46.0819588  79.2679138  47.1205330  45.0327034  78.6590805
  27.2418156  59.9713364  50.4299088  27.9499874  60.1970215  49.8267555
  27.2348804  59.0142593  50.4437523  29.7954903  61.1050186  86.4914322
  29.9245548  60.2154808  86.1623459  30.5057564  61.6115417  86.0974960
   9.5177431  41.1991043  20.0739441   9.8582687  41.6981850  19.3315220
   8.7466984  40.7501564  19.7272930  14.4313011   3.5880945  71.4645844
  14.6210651   3.2118816  72.3240509  15.2583418   3.5236154  70.9870071
  53.0800056  10.7463074  74.8055496  52.7825241  11.4379530  74.2144852
  54.0160904  10.6623783  74.6240845  70.4465790  50.9973869  59.4742050
  70.8488083  51.2927017  60.2910461  70.6002197  50.0527153  59.4594116
  30.0735512  60.5422287  62.7595215  30.6131687  60.1682320  63.4560661
  29.4166832  59.8699799  62.5783081   0.9888693  35.3433914  30.1535053
   1.8225840  35.3228455  29.6836872   1.0038226  36.1724167  30.6317596
  33.0054932   3.1365371  74.5895844  33.4073181   3.7652893  73.9900513
  32.8301849   2.3672259  74.0476761  34.5514832   6.1374760  86.2774353
  35.3801079   5.6627693  86.2121506  34.4938087   6.6321745  85.4600067
  35.5804367   5.5792098  40.3331718  35.9302330   5.1964331  41.1377563
  36.3540421   5.7705522  39.8029327   0.3693035  39.0688515  52.0477715
   0.6034791  39.7275314  52.7016335   1.1777457  38.5772858  51.9027977
  46.6095123  41.3019066  55.9977455  46.1234627  40.8192520  55.3291397
  47.0660133  41.9892654  55.5125923  19.9765320  62.6843758  31.2703037
  20.5285130  62.8433876  30.5046253  20.0604534  63.4802132  31.7954998
  65.6041946   7.2532706   1.9415834  66.3818512   7.5505261   2.4139378
  65.2672272   6.5279102   2.4674551  37.1283340   1.6763365  52.5760460
  38.0298882   1.4982560  52.3082390  36.6640320   0.8548634  52.4153137
  49.6997681  29.0666389  85.3385086  48.9217758  29.1230564  85.8932877
  49.3891525  28.6563835  84.5313873  78.9108429  19.4792786   0.7417977
  79.3736725  20.0616627   1.3441670  79.4949036  18.7279396   0.6388514
   9.3745461  20.0165310  13.2140274   9.6942186  19.1308060  13.0421772
   9.6320286  20.5183525  12.4406509  79.0226669   2.3587317   5.2340817
  78.3743439   1.7075425   5.5021539  78.6690674   3.1915040   5.5466404
  36.4946251  15.3132992  85.6935501  36.5758705  15.2392817  86.6444244
  37.1703186  15.9436016  85.4437790  56.9739723   4.8062811   4.2399302
  56.3054733   4.1423411   4.0710397  57.5844460   4.7232671   3.5073576
  54.6009750  20.0276928  20.9106865  54.6284180  19.2511845  21.4697132
  53.8643837  20.5385647  21.2463531  38.7777214  22.6260624  20.4442253
  38.3403091  21.8018875  20.2305927  38.2729836  22.9826355  21.1752014
  83.6971741   5.5782361  45.5435219  82.8800964   5.7803917  45.9993172
  83.4325790   5.0155516  44.8157806  21.0083733  66.6330414  42.9519577
  21.1962929  67.0266495  43.8040085  21.8149643  66.7513962  42.4503212
  66.1698761  59.8541756  13.3135605  67.0440292  60.2196274  13.4496593
  65.5774841  60.5012436  13.6964607  32.5864449   1.2206860  14.7100077
  32.0464211   1.0721297  13.9337749  32.2918510   2.0661895  15.0484915
  73.9512711  55.9447823  13.2116261  73.2447510  55.4285965  13.5997171
  74.6011276  56.0244331  13.9098921  25.9332485   7.8528976   8.3599329
  26.7696686   8.3107042   8.2759809  25.2841015   8.5521641   8.4365225
  70.2637634  18.6677456  44.1113358  70.0198517  18.8738689  43.2089767
  71.0622787  18.1461525  44.0304184  34.3797874  71.1145935   3.9505725
  34.7223625  71.5834656   4.7115135  33.4625015  70.9461212   4.1660557
  18.8915825  57.1120949  26.5304718  18.7144222  57.7562332  25.8449554
  19.6315403  56.6047096  26.1969185  68.1994934  63.5035896  12.9263391
  67.6078796  63.6526794  13.6638966  68.1283646  64.2984390  12.3977718
  78.7758331   9.0661240  72.8045197  78.5191727   8.8079023  73.6897736
  79.5725021   8.5649166  72.6303177   4.8602657  19.1563377  57.8362083
   5.0444093  20.0955162  57.8199120   5.6759124  18.7472897  57.5470161
  19.8714867  32.8096237  67.0232544  20.6002941  32.7279663  66.4081116
  19.7002869  31.9132481  67.3121033  66.6299286  18.9221916  32.2267990
  67.3089828  18.4672127  31.7286854  66.6878815  19.8319988  31.9350376
   7.9930615   3.1936932  29.6001167   8.7844725   3.5430937  30.0097771
   8.0084810   2.2593732  29.8075790   5.9174767  35.2435150  50.7207260
   5.8156657  34.5096779  50.1146317   5.5534854  34.9243965  51.5465012
  11.5921640  49.6468925  29.0775414  11.7932644  49.8187027  29.9974728
  10.8713713  49.0175934  29.1034241   7.1564670   6.8326869  88.9124374
   6.5525451   6.8671246  88.1705933   7.9575291   6.4526806  88.5517044
  27.3215733  66.4376373  65.3282623  27.6213837  65.8226242  65.9976730
  27.5546455  67.2995453  65.6732635  63.4036369  42.1404991  16.8557587
  62.9366379  41.6681557  17.5449829  64.1738129  41.6014404  16.6755352
  21.7323437  15.0127811  17.4854488  21.8040981  15.9666662  17.5198898
  21.3552227  14.7702713  18.3311443  57.0857544  16.0008888  49.9233856
  56.8238449  16.8095016  50.3635941  57.5566788  16.2944775  49.1434746
  74.1151199   1.3925234  35.4788551  73.7250061   2.2643125  35.4153786
  75.0571671   1.5547166  35.5285835  83.3923874  22.3260441  12.5147705
  83.1633377  22.1544075  11.6013641  83.4345474  21.4589996  12.9181185
  56.6897354  57.2619820  18.6691875  56.3830757  56.8692513  19.4864712
  57.0675278  56.5314941  18.1794033  76.8095856  35.2097168  66.4855118
  77.5215149  35.8177757  66.6846390  76.5589371  35.4206734  65.5861206
  21.3624153   3.8541265  66.1572952  20.5689430   3.6788585  66.6631775
  21.2726974   3.3100548  65.3748856  32.1532707  60.2891350  42.5772133
  32.9997444  59.8774223  42.7510185  32.0299149  60.8993187  43.3043251
  62.9155731  19.0537167  37.8427353  63.5533638  18.3780746  37.6126022
  62.6131477  18.8096027  38.7174835  30.5721931  51.1141472   7.5793753
  30.4297237  51.9914093   7.2239256  30.2146492  51.1541481   8.4663897
  81.6981277  50.4586182  25.9428959  81.2665939  51.0139885  26.5921822
  81.4687729  49.5658607  26.2009830  78.7668381  22.6491261  44.6323471
  78.3350983  22.3052940  45.4144020  78.0580597  23.0348911  44.1175156
  63.4669495  30.9323597  71.8616714  62.7374535  30.3133793  71.8921738
  63.6071167  31.1825542  72.7748947  62.9726181  47.0505600  81.2613220
  63.9092751  47.1965828  81.3939209  62.9232903  46.2094955  80.8069992
  82.4064713  25.0889034  10.3364582  82.8033447  24.2462654  10.1158113
  83.1226730  25.5993805  10.7142153  44.0110817  29.4626122  24.8692589
  43.1278076  29.3418541  25.2177906  44.4549904  28.6339073  25.0493298
  52.7750092  62.8662338  20.9771557  52.0450172  63.2347336  21.4746990
  53.5325775  62.9665489  21.5535717  61.9138756  47.1546402  46.5869026
  61.0755157  47.1286583  47.0480995  62.2882919  46.2840309  46.7213631
  11.3718433   2.1794965  16.1395359  11.9312668   1.9908992  16.8929996
  10.4871988   2.2217245  16.5026531  68.2738190  70.7797546  72.6592941
  69.0727539  70.4108276  73.0358963  68.0810699  70.2177048  71.9088440
  74.7180405  30.6405964  63.1688309  73.7950134  30.4447422  63.3297577
  75.0879822  29.8136654  62.8597069  33.0677261  38.6987076  18.8924465
  32.6562576  39.5346565  18.6730900  32.3372192  38.1265564  19.1274567
  33.3590431  50.4621696  41.9145699  33.8005295  50.4772339  41.0653992
  33.6265488  51.2778282  42.3380966  62.9714012  24.6038876  88.3426819
  63.7090378  24.9645061  87.8506622  63.3409920  24.3760567  89.1957474
  45.0412292  21.5228176  75.1798096  45.5001717  22.1349392  75.7550583
  44.2000275  21.3733768  75.6114120  58.3177299  53.5107574  26.8096390
  58.5863342  53.2000084  25.9450455  57.6841240  52.8600273  27.1118431
  57.1407318  51.1377525  37.0497513  57.3558197  52.0283508  36.7726250
  57.7819786  50.9376488  37.7316551  84.0550079  42.1272087  25.0028629
  84.4612732  41.7959251  25.8037567  83.2191391  42.4932022  25.2920074
  85.2788849  25.8584137  10.7328787  86.0592880  26.2800255  11.0926676
  85.4687271  24.9215050  10.7817831  58.8272820   0.6017174  76.2471542
  59.3760452  -0.1124330  75.9229889  58.3229485   0.2112371  76.9608765
  74.1003799  51.1405296  66.0656052  73.8813324  50.6764641  65.2575836
  73.3016357  51.6167984  66.2923355  53.5550919  41.8782692  12.2671967
  54.1133766  41.1287537  12.4740076  53.4899368  41.8721199  11.3122368
  22.2379684   6.2580223   0.2613080  22.7180424   5.4350843   0.1689287
  22.6956596   6.7251496   0.9602664  47.9876213  43.4163208  17.2481651
  48.4638557  44.2305374  17.0854225  47.8451996  43.4072342  18.1946678
  32.8056374  54.8045845  20.2979374  32.9060402  53.8671112  20.4631367
  33.5888138  55.0458527  19.8033104  70.5688629   4.8890529  32.5183640
  70.4138489   4.6138926  33.4219627  70.4251938   4.0978928  31.9990788
  73.4228668  35.8486633  84.8108826  72.7486649  36.4432297  84.4819794
  74.2454529  36.3168488  84.6681213   6.5857759  21.9639378   9.7852755
   5.8082509  21.5713959   9.3882885   6.5385613  21.7095032  10.7068319
  16.9742775  50.8154984   0.2571381  16.0677147  50.5349960   0.3824110
  16.9157486  51.5480728  -0.3561646  67.6062698  25.6662960  87.8239517
  67.0601120  24.8933468  87.6807861  68.1115646  25.4602089  88.6103592
  57.9795036  33.4211922  15.4194555  57.7931328  32.5178642  15.6753874
  58.5561790  33.7512245  16.1084785  79.1643829  48.3902779  29.0210285
  79.8693466  48.3471756  28.3749619  79.6112213  48.5461540  29.8530560
  30.4014988   3.6601853  12.6463156  30.3762474   2.7461071  12.3633766
  30.9799423   4.0900187  12.0163326  67.3657074  30.8671741  87.7158051
  67.9688644  31.4726334  87.2847061  67.0449219  31.3503036  88.4773254
  32.2217140  21.9009037  85.6277695  32.6190491  21.4732819  84.8691559
  32.9646149  22.2320290  86.1324387  72.4289551   8.3833342  43.0481033
  71.5474930   8.3816805  42.6749306  72.2936707   8.5479641  43.9812813
  16.5572701  59.7439766  61.2444801  17.3285923  59.9517136  61.7718697
  16.7848473  60.0361710  60.3618355  51.4589043  54.6140366  33.5754318
  51.3041954  54.2045403  32.7241898  52.3958626  54.4956779  33.7314072
  11.9883966  66.2257309  27.4721622  12.3706741  65.3490295  27.5107861
  11.0926857  66.1106491  27.7894783  86.7837524   1.8238212  15.3336658
  85.9143829   1.4788957  15.1300783  86.8142395   2.6724193  14.8918695
  80.2004318  69.5516052  59.3702431  79.3576813  69.3618469  58.9579430
  80.7991638  68.9022522  59.0013390  41.4952469   4.7899208  13.5079021
  42.3287010   4.8209562  13.0381985  41.7210770   5.0113273  14.4113464
  11.4331932  40.4899254  86.8021469  10.8268948  39.7846222  86.5759201
  11.8917437  40.1714096  87.5796509  13.7803144  20.6816006  54.8048286
  12.9257011  20.7043095  55.2353554  14.3641348  20.2860737  55.4520874
  78.7800674  42.5643501  67.7025833  79.1815796  43.3560715  68.0606308
  79.2880554  41.8463478  68.0802765  87.0404968  61.1747551  79.8741760
  86.4107971  61.8652000  80.0815353  86.5024414  60.4419556  79.5746231
  73.9861908   7.1521215  84.7126389  73.3524780   7.1152120  85.4290771
  74.6302109   6.4773741  84.9275360  46.0294456  22.4591827  72.7902527
  45.5615005  22.4398632  71.9554596  45.4306602  22.0427761  73.4101715
  47.9492989  54.6937141  88.1649780  47.7634659  55.5864296  87.8738556
  48.4146614  54.8041649  88.9941177  70.6574402  61.5856323   9.1289225
  70.8552322  60.9967346   9.8571472  71.2520905  62.3257027   9.2510643
  57.7897224  33.2689400   0.7214115  56.8437767  33.2138634   0.5858379
  58.1680565  32.9175148  -0.0845631  19.3018894  66.4917603   9.1986284
  18.4580727  66.9385834   9.2661352  19.8595009  66.9351196   9.8379517
  58.4767570   7.4123435  18.2721100  57.7712593   7.6687198  18.8660603
  58.3488197   6.4730315  18.1396065  43.8903084  41.1319962  43.0022354
  43.1471291  40.9806023  42.4182892  44.6444092  41.2022552  42.4168930
  64.3589783  28.7760124  78.7999878  63.7101059  28.1735210  78.4364014
  64.0069199  29.6468506  78.6157990   4.5683846  61.7637482  60.0820312
   4.5824914  61.4241829  60.9768639   4.3211727  61.0114708  59.5442581
  23.0936470  42.3082314  19.4346256  22.8679428  41.7206573  20.1557713
  23.3657207  41.7246361  18.7263699  70.7910843  51.7570000  54.0707741
  70.9420929  50.8147621  53.9958649  70.8940506  51.9426117  55.0041428
  83.8652725   8.8758593  85.4433823  83.9977570   8.2632895  86.1668701
  84.4539108   9.6055365  85.6365204  83.9669342  33.6990814  43.0739059
  83.7607880  32.9057693  42.5795479  84.7951736  33.5006142  43.5107803
  57.8291130  54.3114815  29.2436447  58.2098694  54.1693687  28.3770065
  58.5750580  54.2729340  29.8422337   2.9643304  54.8372536  81.5062027
   3.3285108  55.5277901  82.0600586   3.6945286  54.5665627  80.9496307
  39.8130035  43.7255249  15.6551847  39.1215210  43.9869003  16.2632675
  40.5500488  43.4886475  16.2181110   2.8030176  47.2212143  57.3605232
   1.8666949  47.1291618  57.1842880   2.8694441  48.0123291  57.8952713
  13.3346491  56.7964821  54.1046753  13.9565210  57.2226143  54.6945190
  13.4636049  57.2346573  53.2634811  67.9079590  20.4269485  12.4861870
  68.5700455  20.8509941  13.0321341  67.0827637  20.8328953  12.7516880
  20.2770405  65.1784668  62.3875694  19.4020824  65.0347519  62.0269775
  20.8042717  65.4495087  61.6360435  67.4341583  17.0235996  54.4714088
  67.7668839  17.7480068  55.0012817  67.3056030  17.4022808  53.6017532
  45.3231697  35.2745895  27.2576885  44.4812431  35.7299004  27.2487602
  45.2870369  34.7195244  28.0366821   4.3971629  28.5016956  66.9241943
   5.0095344  29.2347488  66.8620148   3.8158665  28.6107121  66.1715698
  18.7988605  53.8141022  26.9684715  19.0104961  53.5906754  27.8748493
  18.7753620  52.9722710  26.5134983  74.1081848  40.1445541  37.0672760
  73.5550232  39.7558899  36.3896408  74.5913544  39.4048157  37.4354668
  40.2907829  67.6597977  59.7691193  40.4387512  66.9377365  59.1584091
  40.3957787  68.4486694  59.2372475  80.5002747   4.9593601  86.6575928
  80.5158768   4.9075232  87.6132584  80.5741806   5.8945208  86.4672165
  50.0095444  21.1208839  25.9024963  50.0442047  21.6700249  26.6857433
  49.9980431  20.2247124  26.2386131  50.7355537  19.6360397  15.6258821
  50.3566093  19.3148270  14.8076801  50.0912590  19.4052315  16.2950954
  32.4682045  54.5597038  61.1393318  32.0170403  53.7513123  60.8960533
  31.7702751  55.1432457  61.4369926  84.9769363  19.4880180   7.9688206
  85.3845444  20.1704826   7.4355984  85.2637100  19.6786175   8.8619413
  21.7660751  50.8729630   3.4762969  20.9546204  50.9682884   2.9776115
  21.5198269  51.0835838   4.3769808  60.7654381   5.2081985  70.2374725
  59.8293343   5.3761601  70.3458099  60.8505287   4.2590947  70.3279953
  64.6689072  66.8596497  71.8357086  65.4233627  66.5722580  71.3214645
  64.2752686  67.5585709  71.3134079  69.5548172   6.8742995  60.5078049
  69.9002686   7.6363764  60.0429077  70.3230209   6.3293676  60.6785164
  19.0671940  37.3521423  23.4261265  19.0746403  37.5567398  24.3611755
  18.1464462  37.4199677  23.1734333  44.0031013  63.7863197   6.8897982
  43.9213142  64.4024048   6.1618032  44.0003357  62.9236755   6.4749880
  81.7369690  59.9220734  41.4940681  81.1916809  60.3782883  40.8531685
  82.3044052  60.6036644  41.8541832  85.1363297   9.4028158  41.8013878
  84.4361954   9.9640045  41.4680595  84.6974182   8.8077593  42.4092484
   4.0202641  32.1209908   8.1887970   3.8368657  31.4703846   8.8665190
   3.2687683  32.7132416   8.2157087  55.9589005  54.7298164  88.1087418
  56.7131042  54.1438828  88.1726990  55.2307777  54.1574593  87.8669128
   8.2456102  12.3801737  85.7569122   8.3293495  12.1857901  86.6904221
   7.3018322  12.3865232  85.5973053  40.7309685   4.7959104   0.2520886
  41.1918564   4.2480593   0.8874410  40.5946465   5.6270828   0.7068416
  81.4199524  37.5601044  22.1091213  81.8702469  36.9115944  22.6503296
  81.4168091  37.1787529  21.2311726  54.3451042   6.4917736  24.8771763
  53.4615250   6.7094803  25.1740284  54.5994072   5.7403736  25.4128628
  50.4423752   1.7721198  11.5142078  51.0480423   2.5114574  11.5668936
  50.1879768   1.7361435  10.5921345  78.0093231  31.5796299  29.8727398
  78.4180527  31.4602833  30.7300186  78.4331207  30.9292507  29.3127098
  30.8397503  52.9707603  52.8728752  30.9683075  53.9167709  52.9419289
  31.7131996  52.6004372  53.0000610  40.1187248  47.5223732  68.4728317
  40.8889389  47.6048737  67.9105225  40.4342346  47.7531967  69.3465652
  36.1211243  55.2288017  48.2142181  35.9244385  54.7380829  49.0121803
  37.0772743  55.2444763  48.1722260  15.4799089  34.3031006   6.3370242
  15.6991243  35.1908493   6.6200066  15.0535326  34.4207306   5.4881439
  22.6212749  21.7889290  23.8446674  22.4814053  21.6902866  22.9028931
  21.7419205  21.7603531  24.2216949  71.6755905  36.8883858  64.6533737
  71.6829910  36.0897026  64.1258469  70.7470932  37.0888519  64.7714462
  78.4370804   8.9396105   2.3880215  78.7604446   8.3580799   3.0761290
  79.0832291   9.6446218   2.3470190  76.2085953  65.2433929  24.0182438
  76.9572678  64.6780548  23.8282146  75.4837570  64.8532104  23.5297756
  50.1094360  37.6486244  49.1019554  49.5368958  36.9575424  49.4348755
  50.9160538  37.5563736  49.6089973  27.0813961  34.4156609  76.8659668
  26.3162575  34.2084770  77.4025040  27.5347385  35.1049576  77.3513336
  64.1050110  24.9129620  82.3095169  64.8619537  24.9576111  81.7253342
  64.3852692  25.3737431  83.1003189  49.0798607   6.7305117   1.5258065
  49.2784271   5.7956295   1.4729075  49.9034348   7.1352587   1.7980921
  14.0920849  51.9014664  14.8226566  14.9948778  51.6065445  14.7034101
  13.6513271  51.6588631  14.0083418  24.1987114   1.6503255  75.0932693
  25.1306915   1.4325680  75.0782089  24.1517181   2.4677334  75.5891190
  48.7440643   4.9587393  45.5634155  48.6713715   4.8042717  46.5052681
  49.1594582   4.1667581  45.2221718  28.5943432  58.4248276  48.3330269
  28.4299583  58.8144608  47.4743118  29.5480499  58.4182816  48.4144707
  70.1747971  51.7589188  45.3346939  70.7900848  51.0357475  45.2135277
  69.3998337  51.5001488  44.8359985  10.2355824  70.0162430   4.8112597
  10.8735189  69.7599411   4.1452427  10.5528851  69.6076813   5.6166353
  10.4758921  11.8104973  21.0011234   9.6783171  11.3524647  21.2662868
  10.2582169  12.7388077  21.0853119  10.4180183  56.6064301  14.5063286
  11.2496586  56.1364555  14.5673819   9.9099598  56.2923851  15.2543154
  49.2211037  60.5515900  55.5065308  49.6398544  61.4106064  55.5610046
  49.8019371  59.9704208  55.9975586  13.8437223  54.8681030  10.7531738
  12.8948689  54.9891205  10.7176180  14.1384888  55.0210533   9.8554268
  42.8900642  16.6570377  47.6535110  43.8114853  16.8110600  47.4449730
  42.4085007  17.1507874  46.9897766  35.4541245  70.9965973  69.2608795
  35.3613358  71.8843689  69.6065445  35.0998077  71.0469894  68.3731003
  78.1463394  31.1511536  71.3477402  77.9000092  30.2317715  71.4491653
  77.8989105  31.3676414  70.4487686  16.9503155  23.4470272  14.0948362
  16.6002693  23.2342224  13.2297268  17.2318077  24.3589668  14.0216208
   4.3653440  68.1824722   7.9199743   4.1513505  67.3524323   7.4939766
   3.5188558  68.6097412   8.0508451  39.3071861   4.4498854  11.8706417
  39.9007950   3.8554962  11.4117708  39.8689690   5.1637826  12.1722698
  52.6975746   0.8410181  36.6120110  51.8362808   1.2350627  36.7503319
  52.8450508   0.9125898  35.6689529  84.3096695  24.9543400  51.7856750
  85.2528915  25.0856686  51.8822441  84.1799774  24.8316746  50.8452682
  17.0483971  63.0816879  56.4784813  16.6822014  62.3339348  56.9507065
  17.6470737  62.6925240  55.8410110   5.1294279  32.4434433  35.3454552
   5.1281958  33.3683777  35.5918732   4.2171674  32.1692924  35.4395523
  59.3727303  14.9680347   9.2765169  60.0218544  14.4239550   9.7224436
  59.4994774  15.8424311   9.6447535  11.3664398  13.8127279  75.3540573
  10.8244820  13.7815561  76.1424408  10.8536911  14.3277969  74.7311401
  83.0784836   3.3144374  65.6378174  83.4849625   3.1416728  64.7886047
  82.1606140   3.4919760  65.4323273  14.4376240  58.1707916  12.0515251
  13.9730864  58.6730270  12.7209988  13.7522087  57.6701012  11.6090908
  33.2483521  55.0279579  24.6814861  33.5822525  54.9865799  23.7853661
  33.6890488  55.7854156  25.0665531  63.1805115   4.6582294  80.2564087
  63.9738083   5.0754495  80.5923233  63.3982239   3.7269745  80.2164230
  76.1277161  23.7923222  37.0386391  76.0769348  24.6432629  37.4740181
  76.9211807  23.3896980  37.3915405  24.5978127  40.6551781  11.9904432
  24.7284870  40.3204994  11.1032305  23.8889675  41.2925949  11.9039955
  48.4540977  67.1998444  75.9570923  49.0516319  67.9347687  75.8190079
  47.8863945  67.4840622  76.6734467   4.6962380  33.6484413  21.4147034
   5.4438376  34.2142334  21.2218170   4.6289873  33.6575966  22.3694935
  49.8527222  41.9010735  79.2525406  50.6438065  41.4523811  79.5510330
  49.7586670  42.6433487  79.8495407  16.9150372  22.7490883  16.6453438
  16.1479893  22.1771660  16.6175556  16.9480667  23.1478958  15.7758074
  45.5517082  58.1287651  33.5790863  46.3885727  57.8748398  33.1899681
  45.4412766  57.5326195  34.3197937  12.5027971  52.1214943  59.0412903
  13.2252197  51.8163376  58.4924583  12.8966656  52.2545128  59.9034996
  49.8384743   0.4242403  26.7573910  49.9380684  -0.3169444  27.3548508
  49.9623604   1.1958013  27.3101826  43.9452934  40.0058174  32.7338982
  44.7832108  40.2375717  32.3333778  43.6320229  40.8221893  33.1232986
  22.6712532  34.2728577  19.0279408  23.0721493  33.5671806  18.5204639
  22.5606861  34.9866295  18.3998203  85.2229309   2.5729187  52.9453812
  84.5716248   3.2648368  53.0606308  85.5533447   2.4055841  53.8280220
  86.0974655  56.1477470  26.8114872  86.1741486  56.6217384  25.9834270
  85.2411041  56.4025841  27.1549149  18.3581219  52.2267990   8.5659790
  18.3349380  53.0953560   8.1643467  18.6423569  52.3865814   9.4659300
  38.8703995  13.3240700  63.5212669  39.6096420  13.5835581  64.0711899
  38.2396393  12.9429579  64.1321106  56.5160484  63.3627663  80.9914017
  56.4690742  64.1928024  81.4658051  55.6601830  62.9578171  81.1319122
   1.9231191   4.8051877   5.6669722   1.0796009   4.8409009   5.2159357
   1.7129447   4.9877691   6.5827899  35.3115234  19.7493801   3.0744395
  36.2546959  19.9086494   3.1104290  34.9193382  20.5578861   3.4041946
   5.5449729  26.3297787  67.8698807   4.6602168  26.6888809  67.9368439
   5.8971038  26.7090816  67.0646667  16.4042587  42.9774361  24.5889606
  16.1890736  42.2993240  25.2293434  17.0249310  43.5473671  25.0430260
  63.4038696  22.9710426  69.5002670  63.7912979  22.1488304  69.2001038
  62.6283875  22.7042542  69.9939117  40.1245842   1.5013602  24.7619267
  40.4474449   0.6056391  24.6635571  40.7336502   1.9092472  25.3774738
  11.8369980  65.8868713  10.2865553  11.5406561  65.4255829   9.5019360
  11.0785961  65.8778610  10.8704872  31.4592762  26.2673321  87.4052124
  31.8662357  26.4649544  86.5616684  32.1046715  26.5478287  88.0540695
  79.8166962  15.8806992  54.1641693  80.5637436  16.4784794  54.1926804
  79.1310577  16.3304710  54.6579666  76.0773239  44.2653122  59.9448586
  75.9766693  44.6739120  59.0851212  75.8490982  43.3468056  59.8017082
   0.5589542  58.8980942  12.6445189   0.4548120  59.5729866  11.9737682
  -0.1376992  59.0782471  13.2757483  60.8618736  61.8939590  48.4258690
  60.8495750  61.2929344  49.1707535  61.5369148  62.5355835  48.6469421
  52.8414040  60.7585678  40.9435844  51.9527245  60.4050598  40.9046516
  53.0485992  60.9860535  40.0371895  19.1733131  13.1093645  19.5094013
  19.8193054  12.8893509  20.1806087  19.2148228  12.3813934  18.8892670
  42.3156319  15.7939615  60.4711304  42.8991318  15.0352564  60.4598122
  41.7073593  15.6176224  61.1888657  58.3242416  65.8141403   5.3631797
  58.0014572  66.5070877   5.9392519  58.2298470  66.1728821   4.4807835
   6.6022549   9.7275352  83.6327667   7.4077177  10.2398205  83.7036514
   6.2238975   9.9909735  82.7939072  27.9005871  24.8637390   5.5949211
  28.6710930  25.1696968   6.0734005  27.6221581  25.6210155   5.0799046
  60.9707489  14.0961561  34.0841904  60.2453918  13.8977413  34.6764107
  60.5574913  14.5239487  33.3342285  42.7216454  63.6585503  43.9822731
  42.8499184  64.5107193  44.3989067  43.3790474  63.0926704  44.3870392
  60.4999657  27.0164452  58.1085167  59.6412163  27.3289509  58.3933258
  60.8112717  26.4763031  58.8348579  28.0357437   5.6022062  67.0185242
  27.4857330   6.2776618  66.6216888  28.1242085   4.9349723  66.3379288
  83.2163925   4.5756888  52.4811325  82.3134613   4.2668014  52.5555840
  83.1532135   5.5258923  52.5778465  35.0122681  63.2405357  10.9466324
  34.2459373  63.2395973  10.3730726  34.8554497  63.9629745  11.5546827
  21.6918736  13.1215887  79.9775238  22.0812721  13.3847713  79.1436615
  21.9837685  13.7883291  80.5992050  50.1298103  47.4173431  45.6383858
  49.7923012  48.0615120  46.2607765  49.3648796  47.1559601  45.1257553
  51.0649414  33.2877197   5.3014526  50.8467522  33.4268188   4.3798909
  51.6842155  33.9874077   5.5092168  56.1281281  11.1303291   7.7723989
  55.7456360  10.2642555   7.6315117  56.7252197  11.0111942   8.5109930
  10.6518431  25.2182693  24.9623146  10.7235394  25.7337513  25.7656631
  11.3829565  25.5157280  24.4208145  44.6918373  44.4263878  14.7564297
  45.4926643  43.9101868  14.6645355  44.5275879  44.4478722  15.6991873
  57.0431671  54.2841911  48.2004089  57.7651596  54.8570709  48.4587975
  57.4677505  53.4678650  47.9366455  82.5414276  53.1868935  84.2442017
  81.8647995  53.4496765  84.8681793  82.9306259  52.4018135  84.6294403
  50.0007248  49.3903770   2.6056457  50.6050072  48.8256264   3.0874391
  50.5288467  50.1487999   2.3564196  37.8597412   1.3618425  19.6387882
  38.2372322   1.4000928  18.7599983  36.9176712   1.4580019  19.4991817
  83.4577789  68.4786835  27.8946686  83.3894577  69.4023743  28.1362591
  82.6637497  68.0789261  28.2495518  74.1886826  47.6074829  73.2835007
  74.3252792  48.4723244  73.6703110  74.7171402  47.6158676  72.4854431
  43.9290924  47.1521835  61.0079918  43.9392281  46.4620743  61.6712227
  44.3176842  46.7456779  60.2334061  48.2641830  68.1184616  47.4514771
  48.2454491  69.0404358  47.7080536  49.1588287  67.9736938  47.1434479
  51.2083511  36.5458336  85.6974945  51.6592026  37.2172928  85.1855316
  50.8648567  35.9366951  85.0438919   7.9165611  64.1086578  58.8865204
   7.3057337  64.3409653  59.5859146   7.8779111  64.8477325  58.2794762
  60.5601425  58.2240295  23.2778912  60.6186295  58.0963593  24.2247334
  59.8725357  58.8805962  23.1667652  62.4533424  35.5731812  79.6174393
  61.8160248  34.9024506  79.8627548  62.0102730  36.0898209  78.9443817
  74.3722763  56.1066704  79.3297729  75.0025482  56.7938461  79.5460434
  74.0569382  55.7952423  80.1781845  79.0564117  53.7909584  34.9828415
  78.2130432  54.2327805  35.0816536  78.8613968  53.0184593  34.4523277
  47.8991280  69.3271408  35.3435249  48.6940689  69.6098709  35.7955856
  47.6027145  68.5618820  35.8362274  44.7901344  29.7012882  22.1600285
  44.5390854  29.4683056  23.0538540  44.6432915  30.6457520  22.1084747
  50.5534897   7.1118388  50.0785675  50.9208450   7.0183411  49.1996231
  51.3053360   7.0184512  50.6635742  43.6072617  21.6634598  64.5679016
  42.8192482  21.3417263  64.1300049  43.3202095  22.4517307  65.0288391
  20.2877655  59.7854652  12.4354200  21.1284866  59.7758179  11.9778967
  19.7568893  59.1357422  11.9747000  17.7359238  60.6864090  23.3759232
  17.6491184  59.8548355  22.9098930  16.8518505  60.8795395  23.6879253
  83.5071716  45.0606689  44.0438957  82.6493225  44.6529350  44.1625137
  83.3108444  45.9530487  43.7586784  66.3356094  54.2478981  58.2988853
  67.1492310  54.1510506  57.8040352  65.7732620  54.7777710  57.7338791
  59.2694321  43.7104111  78.7848587  58.9137230  42.9085464  78.4018250
  60.0884323  43.4359665  79.1973572  17.5011692   1.9751853  79.1353531
  18.0581646   2.4573948  78.5242386  16.6094341   2.2311311  78.8997040
  85.0289078   8.3717203  76.3299408  84.6477966   9.1676474  75.9591522
  84.9580688   8.4909773  77.2770386  15.6746492   4.3657193  12.2563057
  16.1144390   3.7788951  12.8714924  16.1080894   4.2029667  11.4185266
  57.7499161  46.9531517  82.0361633  58.4563828  46.6165047  81.4849777
  57.0807419  46.2691498  82.0121841  50.2937317  60.1957016   2.4292088
  50.0402412  61.1005020   2.2467000  50.9590034  59.9958611   1.7706399
  68.1673203  18.3344707  64.7232361  67.2828979  18.0195274  64.9098969
  68.6103134  18.3212528  65.5716553  56.0584793  12.9321976  43.2407112
  56.2948265  13.6094074  43.8745575  56.0725403  12.1179457  43.7437325
  69.6052704   8.7124729  86.3528824  69.2423782   7.8348403  86.4724808
  69.1043777   9.2628508  86.9549026  21.2516174  43.9586258  26.8902817
  22.1698589  43.9307060  26.6214218  20.8989162  44.7362328  26.4576588
  15.4372864   6.4869738  61.9496002  16.3148575   6.8160210  61.7551079
  15.2201757   5.9281855  61.2033768  19.0464058  59.2368088  66.6340256
  18.9987717  60.0613937  66.1502686  18.4062271  59.3352699  67.3387985
  41.9884682  41.2895241  79.5928802  42.0989037  40.4357567  80.0113525
  41.0403976  41.4004974  79.5216370   1.0225551  48.8010216  75.8477020
   1.1726900  49.7311058  76.0169067   1.1922837  48.3743324  76.6875610
  82.6731567   6.8861885  34.9883881  83.1724930   6.1797829  35.3981247
  82.0558472   7.1663442  35.6641617   1.5731053   5.5110855  57.7388763
   2.3347380   5.9711847  57.3860893   0.8495973   5.7744117  57.1701698
  68.8951569  42.2532158  33.0835800  69.7852402  42.1226997  32.7565536
  68.9143524  41.9060936  33.9754143  55.3824043  30.3580036  36.9092941
  55.6745644  29.9434299  36.0975037  55.3493919  29.6430836  37.5449295
  77.0178909  16.5666199  83.4856033  76.9681244  16.9347343  82.6034241
  76.1591721  16.7457600  83.8686752  49.8910294  48.0709457  50.9069176
  49.5597878  48.8605309  50.4790535  49.3285065  47.3682098  50.5814056
  52.3836594  29.5722027  69.9639435  52.8884087  29.5347023  70.7763824
  51.6099205  29.0361423  70.1377182  25.5425930  50.9832535  55.1885643
  25.7564754  50.8632011  56.1138077  24.7215061  50.5060997  55.0686760
  35.6246376   2.4827082  14.5249777  35.5365524   3.0985689  15.2524309
  35.3227730   2.9715765  13.7593946  24.9456882   4.9337234  50.4010468
  25.2584305   4.0359321  50.5123787  25.7406158   5.4489708  50.2637711
   4.0840940  69.7217636  27.4809322   3.9542155  68.9561844  26.9212456
   3.2002037  70.0487823  27.6483459  86.1525955   6.1427727  50.3496017
  86.0012360   5.3741307  49.7995949  86.9527359   5.9374423  50.8331833
  79.9792175  40.3742714   2.2399247  80.3575745  41.0308075   2.8247623
  79.0332947  40.4786415   2.3427112  28.3762169  59.9848289   2.8915677
  28.9262009  60.7430687   3.0886018  27.5023632  60.3514061   2.7565317
  49.1108818  45.2129402  23.2737389  50.0090485  45.3709984  22.9829617
  49.1229706  45.4149323  24.2093067  81.8686829  46.3861389  24.3347092
  82.3869019  46.5361023  23.5440178  81.3405151  47.1788635  24.4288464
  10.6915770  36.9313812  33.1755409  11.0700293  37.3728790  33.9358597
  10.0148048  37.5315056  32.8623962  56.8359947   1.5300539  46.0750351
  56.6777191   2.0751352  46.8457909  57.4055328   2.0614541  45.5187340
  36.4761314  56.5439262  72.0841599  35.8591003  56.2085228  71.4337692
  36.9948654  55.7806244  72.3381577  68.1334686  44.2207336  73.8372650
  67.7781372  43.8275070  73.0401764  67.9156723  45.1499100  73.7635880
  64.0724869  53.5444908  83.2464676  64.6389236  53.5490189  84.0180664
  64.6507645  53.7873993  82.5234070  34.4957275  33.0410957  65.8791275
  35.2065163  33.6821976  65.8800278  34.6186867  32.5460320  66.6890793
  37.5185051  48.8151970   1.1903319  38.4509811  48.7431297   1.3941151
  37.2232628  47.9095650   1.0960070  48.2108994  16.3797245  20.4432964
  47.6268005  15.9737263  19.8028088  49.0866890  16.2676010  20.0736332
  24.8029842  27.7068138  76.4323044  24.2196712  28.1381493  77.0567474
  24.2433662  27.0777893  75.9769058   0.6452516  42.4663048  74.1787186
   1.3926904  42.6957321  74.7309265   0.6718541  43.1018715  73.4634781
  12.1395636  65.6849442   0.1491476  11.6754742  65.8522415  -0.6711351
  11.9934969  66.4732666   0.6720607  75.9197159  13.3995361  34.4021187
  75.9200211  13.0600634  33.5071373  75.5407944  12.6936359  34.9259071
  76.7729340  48.0455475  52.2239799  77.6781311  48.1847725  52.5023155
  76.3451843  47.6557198  52.9864044  47.5606003  49.6639709  62.7550278
  46.8992538  50.1576538  63.2399330  47.4985504  48.7744942  63.1031799
  77.6878357   0.9028014   2.7470427  77.0145721   1.5379912   2.5031545
  77.6300430   0.8468373   3.7008560  64.5769348  35.6973610   9.4634829
  64.8480453  35.4416924   8.5818014  64.3313522  34.8746147   9.8865757
  30.5805378   0.1549577  76.6448288  30.8855591   0.3481936  75.7583389
  30.1656704   0.9663859  76.9375687  47.2341270  44.9464531  66.7651978
  47.9606514  45.1220741  66.1672363  46.8925400  45.8124504  66.9879074
  78.6259460  23.1894836  85.2000046  79.5234451  23.1554642  84.8690033
  78.6107178  23.9564381  85.7725220  11.7557383  33.1641731  85.4036865
  11.4037409  32.2740440  85.4033661  12.6941748  33.0505753  85.5542374
   7.2993283  39.4407883  13.9087038   6.4092960  39.5996170  14.2231054
   7.6370363  38.7533302  14.4827995  19.6788292  38.8958511  66.9047318
  18.8983154  38.3736572  66.7194214  19.3459606  39.6733360  67.3530121
  12.5604467  25.3284054  77.9891052  12.8535891  26.2394142  78.0081329
  13.3621330  24.8165436  78.0964737  73.5227280   3.9917903  35.7300377
  74.2189102   4.2063670  35.1091385  72.9792099   4.7790685  35.7619362
  42.8122749  66.4161148  84.3601913  43.7615929  66.3146286  84.2914352
  42.6073837  67.1506119  83.7816086  27.8218803  60.8275261  80.2505341
  28.5596008  60.6422119  80.8316193  27.5868855  59.9756546  79.8826675
  13.5104132  52.4984703  46.2811432  12.8311338  52.9502716  45.7804565
  14.2546749  53.1003265  46.2723923  22.7641754   7.3633561   7.4303675
  22.8875599   8.0746994   8.0588570  23.4402828   7.5085421   6.7685275
  60.0671768  30.0169525  20.5748348  59.4675636  30.7555771  20.4693394
  60.9388618  30.4121647  20.5606060  41.9563713  29.5282288  78.3724365
  41.2339516  28.9595337  78.6387558  41.5901184  30.0688705  77.6725769
  60.2205200   0.7555992  30.5131989  61.0970383   0.6096715  30.1573219
  60.3363609   1.4556248  31.1556759  34.4592667  33.8025932  69.1879425
  34.7561874  34.6828537  69.4186172  35.2542152  33.2696648  69.2044983
  16.4995880  64.9654846  50.9296875  16.9934807  64.6645813  51.6924210
  16.1291695  64.1668549  50.5539055  18.7808475   6.4787836  75.7054443
  18.6263714   5.6682239  75.2203064  18.1774292   6.4327469  76.4470673
  12.4197149  40.0689316  67.4664764  13.1396904  40.5813866  67.0987091
  11.7868061  40.7231827  67.7624741  14.3402615  39.8686714   7.6746268
  14.6539268  39.4123268   6.8938608  13.4352589  39.5741310   7.7768402
  56.9541512  48.1609306  78.7203598  57.8210907  48.2129059  79.1227798
  56.6544228  47.2721176  78.9111557  85.4467010  68.2894287  22.9663830
  84.6473160  68.7044296  22.6423607  86.0744247  68.3870926  22.2503834
  67.4833755  66.1627121  63.0206413  66.7657776  65.6497650  62.6489220
  67.6131287  65.7947311  63.8947029  47.4830666  35.1946144  23.0372505
  47.0509148  35.4507904  22.2224808  47.3475723  35.9383812  23.6243477
  50.8888397  64.2124023  22.3827763  51.2298622  64.8800201  22.9779453
  50.5617294  63.5219917  22.9594574  21.8141975  58.9664345   7.8438115
  21.5847950  59.6813660   7.2501116  20.9793224  58.6942062   8.2247410
  27.1067829  43.5853958  18.5905018  28.0254593  43.4483910  18.8217888
  26.6621895  42.7950821  18.8970451  71.1252136  40.1405792  36.3553963
  71.7017288  39.7583618  35.6937523  71.2630920  39.6008644  37.1338120
  32.1803780  28.6690311  69.8547668  31.3304043  28.7683277  69.4259109
  32.2749519  29.4602509  70.3851013  58.1029091  26.2953491  11.6770163
  57.2126656  26.6128464  11.5257139  58.6659622  26.9791451  11.3142128
  75.6522903  62.2379684  71.1258774  75.8800049  62.6238403  71.9717331
  75.6758423  61.2934494  71.2793808  17.7172585  58.6808624  35.4024467
  18.0477448  58.4839516  34.5259552  18.2449398  58.1351967  35.9855690
  10.4772091  23.4587479   1.4466325  10.9638605  24.2702942   1.3024256
   9.9504538  23.6308098   2.2271163  86.5447845  43.9868202  60.3010674
  87.4519958  43.9117012  60.0051727  86.0351715  44.0620651  59.4943047
  15.3750248  13.2279167  73.1138840  14.4827223  13.1366329  72.7796783
  15.6359282  12.3368626  73.3466568  53.8275337  32.0606918   2.0645807
  53.6983376  31.1641960   1.7550124  53.5335350  32.0442886   2.9753644
  51.1553879  63.1590385  48.8505630  51.0807838  64.1048508  48.9774666
  50.3754311  62.7985229  49.2723770   1.2234389  36.1229324   1.2299294
   1.6048251  35.3526649   1.6511946   1.2092520  35.9039841   0.2982148
  24.2510586  63.6343918  18.5709476  24.3456116  63.0284500  17.8360157
  23.5210037  63.2817192  19.0797462  72.7448425  25.8277187  59.4606209
  72.8946304  24.9541855  59.0990486  73.6196442  26.1509438  59.6762047
  71.1743088  10.3180103  31.4273682  70.3320694  10.7269039  31.6265392
  71.1210098  10.1009035  30.4966393  29.3417740  54.4788094  68.6355667
  29.2983608  53.5975952  68.2643356  29.0909367  55.0553741  67.9138412
  29.9379578  44.1242447  50.3483810  29.4921169  43.3020973  50.5521736
  29.4431343  44.4896469  49.6149902  52.5953293  71.1523895  16.0792332
  52.2785339  71.9409866  16.5196743  52.2600708  71.2260437  15.1856956
  44.8146858   2.1989570  61.6809540  45.3125267   1.8556038  60.9389992
  44.3274689   2.9397211  61.3202286  21.1583424  52.0573120  68.2767563
  21.9275188  51.8672943  68.8138657  21.4944057  52.5929451  67.5581512
  72.7919006  34.1727867  77.9718781  71.9982300  34.4550133  77.5172653
  72.5524597  34.1799011  78.8986206  55.9133720   7.2148728  43.9874496
  55.9187164   6.2615695  43.9013367  56.7119598   7.4999590  43.5433655
  67.0569153  19.3846951  86.9258575  66.5947418  20.1668854  87.2271957
  67.7220840  19.2265453  87.5957642  17.5100555   9.9452600   3.6015866
  18.3914108  10.2830439   3.7607923  17.4519100   9.1610308   4.1473298
  60.8431892  51.4824600  88.5155716  61.0736847  51.9620209  87.7198792
  60.1645775  50.8677216  88.2366180  52.2346344  36.8910332  42.4588966
  52.3111076  36.7473869  43.4021606  52.0741119  36.0198784  42.0961914
  68.7290268   5.0402098  69.3383636  68.3660660   5.2785549  68.4853210
  69.1777191   4.2089100  69.1839447  14.3995638  11.6893234   8.0684214
  14.3008213  11.5008297   7.1351733  14.1960516  12.6212997   8.1473761
  59.4365768  64.9449387  33.1294823  59.0602989  65.2263641  33.9634171
  59.5956497  64.0078506  33.2425804  52.3223228  42.4396667   4.5114870
  51.3819199  42.4212723   4.3338928  52.7207413  42.0505295   3.7329862
   4.4779830  56.3104134  37.3360214   4.9212704  56.0528870  36.5276833
   4.0624561  57.1465950  37.1253700  49.2827034  47.4830055  53.6629295
  49.5876045  48.2937431  54.0703239  49.1986732  47.6985550  52.7341080
  -0.0349708  42.2480545  19.1454353  -0.6130453  42.7101936  19.7524700
   0.8464059  42.4172897  19.4782505  18.7145977  57.6783447  11.2111082
  18.0380440  57.5559578  11.8770866  19.4727535  57.2019920  11.5495176
  61.6580544  33.3948669  65.7557297  61.1075401  34.1640587  65.6090546
  62.5103607  33.6378593  65.3941193  60.3727684  53.2317696  20.2287121
  60.0781670  53.2922935  21.1374359  60.3830910  54.1375732  19.9194412
  38.1881256  13.4002972  72.5231781  37.3733635  12.9749928  72.7905960
  38.6898384  13.4878063  73.3336487  35.4486160  31.9393291  24.0605812
  35.3925819  31.0697899  24.4568081  36.1868629  31.8791428  23.4542847
  20.9720612   7.6593447  10.1889791  20.4810715   7.7869644  11.0006895
  21.8661003   7.4741693  10.4764414  82.7650757   3.9317303  78.5141296
  83.6148453   3.8996422  78.0747070  82.4672318   3.0221293  78.5263062
  25.6370926  63.3385506  65.6495056  25.2148304  63.9226837  66.2793579
  26.1844902  62.7643013  66.1850662  30.9046650  41.6642952  29.2628021
  30.5947571  42.3544617  28.6764050  30.1141434  41.1805878  29.5022507
  84.8838730  25.6872311  84.9977188  84.0826416  26.1782532  84.8156281
  85.0988617  25.2630825  84.1669846  85.4562302  37.7131882  27.6583214
  85.3961945  36.7772369  27.8496876  86.1267014  37.7760429  26.9780636
  49.1900749  10.9392099  86.3414001  48.8456459  10.6466198  85.4976044
  49.2306938  10.1437931  86.8723373  15.1888762  40.8098335  82.3465347
  15.9816036  41.3348961  82.2364273  15.2659769  40.1188316  81.6886597
  68.9672241  23.4307919  64.7140274  68.4172211  22.6840076  64.9507599
  69.1968994  23.8340282  65.5512161  42.4114380  64.8740005  16.3448219
  43.2111816  65.2464905  15.9734888  41.9729156  64.4593658  15.6018476
  73.1861877  18.9685555  13.7066088  73.8008347  18.3756180  14.1388912
  73.7303619  19.6912155  13.3937569  26.9968758   1.0454876   5.8536220
  27.4823208   0.8546039   5.0510392  26.5132408   0.2403513   6.0382376
  24.2669525   8.0218000  82.4486847  23.4650097   8.5382481  82.5286865
  24.9323196   8.6533833  82.1755142  11.8058014  37.7358017  58.7365723
  11.6699152  37.6913795  59.6830368  12.5214081  38.3619156  58.6264725
  36.9547348  10.5716543  12.2104063  37.1722145   9.6932373  12.5223675
  37.5624695  10.7262821  11.4872332  65.0759583  66.0416870   6.7625065
  65.7359314  66.4703903   6.2176313  64.6756592  65.3906555   6.1861839
  61.2408066  10.0818253  58.4455338  62.1075058  10.3138733  58.1120415
  61.1678467  10.5564060  59.2735939  60.9353294  58.0884781  20.6772976
  60.0837631  58.4877052  20.4992886  60.9186592  57.8967400  21.6149483
  56.2712021  14.6338711  39.6006966  55.7993851  15.1943073  38.9846382
  56.0270805  13.7430811  39.3494415  68.7937164   7.2949300  24.5173759
  68.7038574   6.4688692  24.0422115  68.6421051   7.9696460  23.8555546
  70.6991043  52.9283791  29.7491894  70.9765625  52.0526505  30.0181694
  70.6099930  53.4138451  30.5693188  85.4227142  29.0292435  69.8396912
  86.1245117  29.6362133  70.0748444  84.6752701  29.3115292  70.3668137
  49.6066055  45.5729599  16.7063122  49.7055092  46.0124931  17.5508575
  50.2828407  45.9632072  16.1525574  64.0281982  32.7217407   6.8371792
  63.4242744  32.5407410   7.5574174  64.6881714  32.0311737   6.8987164
  74.4469910  34.6338654  32.1758423  75.3102646  34.9736290  32.4115410
  74.6312332  33.8501129  31.6581364  32.7425766   6.5512238  74.5103607
  33.1399117   6.5114570  73.6404343  33.0457420   7.3829899  74.8743515
  79.5149765  13.3759956  14.6161232  80.4567032  13.5420122  14.6588192
  79.4418716  12.5163498  14.2015181   1.1421635  44.3947258  32.1823807
   1.2928540  44.8526497  31.3554401   2.0180128  44.2580872  32.5435600
  39.7675629  60.8584404  14.1626463  39.0971947  61.0462608  13.5057144
  40.5855331  61.1507225  13.7604971   9.8937941  51.6432152  73.7574615
  10.8054361  51.3544922  73.7152939   9.9428310  52.5463181  74.0708847
  82.1521683   5.4187908  73.3641205  82.1354523   4.4657888  73.4520950
  82.9082031   5.6939683  73.8827057  11.1838913  32.6089935  13.9751196
  11.8958054  31.9828682  13.8432980  11.6216526  33.4567795  14.0516682
  43.7623482  37.3067513  32.7013931  44.2693596  36.8320045  32.0427704
  43.8518867  38.2273140  32.4548531  52.0072517  18.7463417   9.9814701
  52.1258545  18.0018921  10.5713501  52.6364212  19.3986320  10.2895260
  58.4682350  39.0204506  48.7025146  58.9692307  38.2091675  48.7865410
  58.7652054  39.4008102  47.8758545  79.0948029  33.0720978  50.9150658
  78.4157486  32.6227264  50.4118919  79.6413193  32.3672791  51.2626076
  74.6630096  60.4816666  14.8373251  74.2408142  59.6914024  14.5004807
  73.9657135  60.9476318  15.2987261  82.6980667   5.2482371   6.2743196
  83.4173584   5.1916256   6.9033198  82.5342407   4.3413548   6.0155568
  75.5908127   8.8643055  41.2754211  76.5399857   8.9037342  41.1581383
  75.4532394   8.1256580  41.8684692  22.5512180  62.7058983  47.1214714
  22.5580616  61.9953957  47.7628555  22.7962627  63.4835663  47.6228867
  15.3540220   4.3242431  64.6800308  15.8948765   4.8474250  65.2716293
  15.6137228   4.6085091  63.8036842  21.9663029  18.5186310  27.2542953
  21.5204201  17.6728535  27.2086811  22.8175354  18.3630028  26.8451309
  63.1259041  25.2502842  46.0162773  62.4447746  25.4173756  46.6677208
  63.5930061  26.0822277  45.9393539  52.8964653  48.6574631  37.6542435
  52.2915230  49.2421608  37.1977272  52.9252510  47.8704033  37.1102409
  59.4412537  28.5596237  35.0661964  60.0628242  29.2737026  35.2075157
  59.8209496  28.0496712  34.3506470  78.4150162   9.9229393  33.3363457
  78.6968536  10.3492184  32.5269699  78.8862381  10.3871851  34.0281944
  20.9950314  17.1101227  78.8359833  20.6519985  17.9790077  78.6271744
  20.2265224  16.6080208  79.1071243  54.7450180  29.5277863  48.7136040
  55.5141068  30.0556583  48.4989357  54.1868744  30.1143074  49.2241936
  72.8916397  48.7945824  54.0547600  73.1696548  48.3468170  54.8537903
  72.7866211  48.0935478  53.4115257  76.1385422   1.0526608  16.0555153
  76.4634094   0.7732988  15.1995668  76.9255981   1.1420938  16.5928917
  24.1290932  61.7457581   8.0498972  23.3829842  62.3387833   8.1386299
  23.7371578  60.8741570   7.9957371  74.6087799  69.9568939  38.3189735
  73.7169876  69.6171722  38.2446136  74.6432724  70.6786270  37.6911659
  32.9569016  55.1704330   1.2065125  32.6218567  54.3138008   1.4713860
  32.1867371  55.7388306   1.2050356   3.3950770  51.1761246  74.3628464
   2.8215077  51.3512764  73.6168137   4.1339788  50.6957970  73.9893036
  71.4787750  32.6006393   1.5024395  72.1989212  32.0451584   1.2040116
  71.3629990  33.2405968   0.8000979  58.0162201  34.8822098  34.3125725
  58.3838501  34.4417953  35.0788116  57.1044235  35.0526581  34.5488052
  42.5271072  57.8305511  63.5262146  43.2996559  58.0733757  63.0158806
  42.8678398  57.6384392  64.3998413  42.1954651   5.7461686  50.9760399
  41.5278931   6.4313402  51.0095177  42.3476028   5.6054568  50.0415421
  80.3418350  38.2428398  34.2967873  79.3847351  38.2441635  34.2828827
  80.5856934  39.1439743  34.0853081  64.2731705   5.5593519  35.7235222
  65.1044922   5.3734355  36.1600685  64.5182419   6.0577364  34.9439163
  40.5633240  39.6774826  70.0453949  40.3219376  38.9694138  69.4482346
  40.9278488  40.3561401  69.4772644  47.4241676  62.8421440  53.2691803
  47.0848236  63.7007637  53.0164986  48.2696609  62.7785606  52.8249626
  34.1968575  27.3171635  88.4593277  34.3043709  27.9497986  89.1695709
  34.5990295  26.5142860  88.7908020   7.6751485  66.4857788  88.3182449
   7.0139303  67.0829391  88.6681290   8.5045252  66.9470596  88.4430771
  20.0076637  40.7659225  82.4323730  19.7910538  41.2069359  81.6109009
  20.4591675  39.9660454  82.1629791  43.0151329  37.8739395  77.9047852
  42.4436150  38.3554649  78.5028915  43.5852280  38.5436668  77.5270386
  83.3194580  56.7916031  37.4339218  82.7398453  56.6941185  38.1894188
  83.9031067  57.5122108  37.6712189  61.9760628  56.2878227  66.6984406
  61.0541649  56.5381966  66.7588348  62.4328537  56.9203300  67.2529755
  59.6457863   2.1787634  48.6334991  59.9049263   1.7526869  47.8164711
  58.7694626   2.5212898  48.4575272  51.3134384  53.4142609  38.5297775
  50.6559219  54.0864716  38.7087593  51.3297157  53.3432541  37.5753517
   2.6521933  55.8271561  76.2173615   2.0880933  55.1831551  75.7892456
   2.7373967  56.5339088  75.5774612  45.8558197  31.0659122  61.9268913
  45.8162041  31.7747288  61.2848320  46.1363106  30.3018456  61.4231453
  81.8531265  31.4910145  65.5710297  81.7668991  31.3666191  64.6258774
  81.0576553  31.9591866  65.8245468  61.1465454   8.1959152  33.9715080
  61.1414833   7.7584081  34.8228569  60.7694054   7.5538712  33.3700294
   8.9586372  50.4262466  35.1986847   8.0816422  50.6730690  35.4922638
   9.2272615  51.1399612  34.6201668  39.5502357  34.0848389  47.8137207
  39.0245399  33.5777283  48.4323616  40.4383926  33.7434654  47.9180260
  36.6274605  65.0757828   0.6224611  36.6726952  65.9047928   0.1460923
  36.4103928  64.4266052  -0.0466295  13.5982523  70.8448868  26.0077610
  14.0376406  70.2692032  25.3818550  14.3116369  71.2806854  26.4740124
  44.8912468  19.2967587  18.5264797  44.5269089  20.1043339  18.8888493
  45.7820892  19.2585773  18.8745766  27.0721722  18.3211861  70.2792206
  26.4640999  17.9937019  69.6164703  26.6973534  19.1573792  70.5558472
   5.2725601  69.1807404  56.8487930   4.7421951  69.0297623  56.0663910
   5.4823456  68.3033905  57.1689072  80.1488724  55.1525116  58.3909569
  79.8950043  55.7857285  57.7195282  80.1276169  54.3068924  57.9429512
  48.6650009  13.5225754  54.3558922  48.3779182  13.4365902  53.4468155
  49.5574646  13.1765528  54.3589745  37.5915985  65.1788025  80.2947235
  38.2548790  65.2856522  80.9765396  37.4505157  66.0633011  79.9570999
  40.3557091  67.9983368  25.4824047  41.2749863  67.7320175  25.4672890
  40.1246872  68.1140594  24.5607357   6.1339951  47.5341873  32.8802109
   5.2669797  47.1629333  33.0435753   6.5842252  47.4709167  33.7225418
  28.3838196   0.4510358  80.9195633  28.0843906  -0.0422059  80.1558304
  28.7266674  -0.2149858  81.5154648  58.6055260  68.0299072  67.8662109
  59.4367142  67.5719986  67.7409973  58.1166573  67.8635864  67.0602493
  86.0588760  12.4212255  48.0928497  86.6943741  11.7418089  48.3181572
  85.2959824  12.2254772  48.6368294  45.0517883  40.2746887  68.9087219
  45.7938232  40.6368599  68.4245148  45.2500877  40.4620361  69.8262177
  51.2844620   1.9387785  17.1390038  51.1974831   1.8284887  18.0858421
  50.5785255   2.5402389  16.9020824  74.2486343   0.7181038  32.3668785
  74.4604797   1.6491907  32.3003120  74.3467789   0.5160655  33.2973518
   0.1911971   0.0072658   2.5506122   1.1335428   0.1473039   2.6433804
   0.0569120  -0.1026435   1.6092732  59.3557205  26.6800137  28.4375839
  59.6886597  27.4527111  27.9811592  58.6445236  27.0130329  28.9848766
  63.1503143  52.5180664  70.3109283  63.6576118  53.1499367  69.8013992
  62.3198776  52.9615211  70.4840012  27.1208096  47.9467354  75.9998322
  26.6864109  47.3085365  76.5657196  28.0067768  48.0179443  76.3551102
  27.1931801  10.3999853  36.2670441  26.9069195  11.1462049  36.7937737
  27.2977848  10.7557678  35.3845978  64.2177505   0.6525683  32.5171356
  64.9844742   0.8886856  33.0392647  63.9438477  -0.1964102  32.8641853
  58.1066704   1.2679036  28.8804131  58.9872322   1.0653988  29.1963787
  57.5530128   0.5859640  29.2607479  31.3926640  61.8399582  53.3026581
  31.9045887  62.4492798  52.7707863  30.5034962  61.9069443  52.9546242
  84.4671402  24.7369785  27.0053558  85.2717514  24.6423931  26.4955578
  84.7252502  25.2579193  27.7657738  67.3100662   2.7126615  21.5032749
  66.7908936   3.4714587  21.2369728  66.8052444   2.3138642  22.2120399
  75.6839905  68.8791504  34.3351440  74.8465042  68.6464767  34.7360153
  75.4455109  69.2984238  33.5083618  73.7927933  61.9505043  29.2115593
  73.0337753  62.3518219  28.7884026  73.6811752  62.1485367  30.1413746
  60.4209747  53.6223717  69.4320145  60.8752861  54.4208755  69.7007675
  60.1794128  53.1959572  70.2542343  42.5760765  53.7080231  32.6241226
  42.0773735  54.1152229  33.3324394  42.3176270  54.1924057  31.8400249
  63.9940338  62.6830864  83.0688782  64.2729034  61.9958382  82.4637756
  63.1380386  62.3923378  83.3834763  13.7386284  40.8576164   1.7098260
  14.2386379  40.0586853   1.8769637  13.0825377  40.5985947   1.0627674
   7.4823194  58.7249870  29.1209049   6.8959332  58.7511139  28.3647957
   7.1231456  58.0350952  29.6788273  79.8948593  62.5662041  29.0832443
  78.9648895  62.4188156  28.9110069  79.9400558  63.4692039  29.3975353
   2.8731885  30.4740696   5.5776749   2.1751511  30.8901863   6.0834641
   3.6683354  30.6424274   6.0832729  64.7694244   9.7829256  75.8807983
  64.5356216   9.2713223  76.6552887  65.3796387  10.4447460  76.2061768
  10.3575249  57.1945992   0.2239008  11.0219154  56.5062866   0.1916009
  10.8500032  58.0081444   0.1150775  61.5128784  27.4378490  13.1768389
  62.3861580  27.5133381  13.5614414  60.9200478  27.7289429  13.8696909
  38.8920517  67.8296051  71.3641815  39.4136467  67.3799515  70.6993713
  38.2181091  68.2929764  70.8668671  50.0218811  23.0402946  58.9607735
  50.0652084  22.3475857  59.6199455  49.2886429  23.5894642  59.2382736
  63.6567535  66.3860016  89.2117538  63.5025826  66.9509583  88.4545975
  62.7818871  66.1936111  89.5491333  26.8327484  43.0485992  84.3313370
  26.2679710  43.3518562  83.6204987  27.5326233  42.5656967  83.8917770
  68.2073746  26.7910461  43.9199371  68.6614151  25.9524975  44.0031013
  67.2779312  26.5641289  43.9495506   0.5556092  30.9694233  70.0208664
   0.8684216  30.7404232  70.8960419   0.7345101  31.9062824  69.9401016
  52.2147636  46.2563057  26.5718555  51.7587585  45.4179840  26.4976883
  52.1172218  46.5014381  27.4919796  61.2108536  49.3512497  53.4670067
  60.7013283  48.5471840  53.3665390  62.0772552  49.1300240  53.1254807
  38.0742493  47.7834282  79.4218979  38.0806389  48.7319679  79.2935791
  37.2091408  47.5969009  79.7866287  14.8794718  51.7914505  63.7394714
  15.4287357  51.0969887  64.1031494  14.3943577  52.1315956  64.4912643
  59.8058510  46.1929245  57.0604210  59.0469742  46.0924950  57.6350975
  60.1688499  45.3103104  56.9865875  48.5693016   7.7806582  31.0157871
  48.3768578   6.9495373  31.4498787  48.0274353   8.4220304  31.4754143
  39.9840202  63.0465736  45.3273926  40.2051201  62.9651108  46.2551384
  40.7475014  63.4705887  44.9355545  69.2710800   3.3029320  12.1366234
  68.9460831   4.1720414  11.9015436  68.6009674   2.7009854  11.8128300
  61.8986969  56.4675026  63.8609619  62.7789459  56.1011353  63.7763290
  61.7261200  56.4611473  64.8024521  37.8066902  29.2507725  86.1721039
  38.6284637  29.6615486  85.9034348  37.3887253  29.8993225  86.7386017
  37.1804924  50.5963936  31.4641247  37.5664673  50.9540215  32.2637253
  36.5802841  51.2781715  31.1621990  62.7708740  34.4808311  12.2207861
  62.6970100  34.1372871  11.3304186  62.8123550  35.4305038  12.1084089
  65.2944641  63.1862106  64.8556824  64.9679565  62.3502693  65.1885834
  66.0916138  63.3498230  65.3596802  46.5074081  50.2653580  79.3335953
  47.3875656  50.6407738  79.3585052  46.3682327  49.9223976  80.2163391
  18.8422737  67.7932663  32.6414108  19.6938648  67.4765396  32.3402367
  18.7381687  68.6434784  32.2141609  56.6228371   3.6738126  42.0581665
  57.3485680   4.1651039  42.4431114  56.9062195   2.7602377  42.0943031
   6.1980257  42.1389122  66.1094208   5.5479727  42.3144302  65.4290848
   7.0041742  41.9526863  65.6280899  61.9540825  68.5143967  43.2971230
  61.2227631  69.0921707  43.0789833  61.5393982  67.6981583  43.5764313
   1.5867534  57.0826759  24.7722874   1.2020211  56.5455132  24.0797062
   2.1390476  56.4768257  25.2664013  73.6067657  61.3542900  32.2983170
  73.2691422  60.5051498  32.0133553  74.4589767  61.1553040  32.6860962
  58.4596481  70.2319870  12.6689034  58.5967941  71.1155701  12.3272781
  59.3221588  69.8197708  12.6200943  33.5003052  20.8829937   6.0445476
  33.2137070  19.9824753   6.1967378  34.4524918  20.8501129   6.1366973
  44.2584763  64.2444916  39.4333725  43.5854607  64.7180862  38.9445076
  44.6465607  64.9046783  40.0076332  38.7675934  48.0670967  65.0906372
  38.6321526  47.5019073  65.8511887  39.6697273  47.8942146  64.8213730
  18.2291393   3.1636982  63.6612968  17.9170971   3.9298611  64.1428070
  18.9623966   2.8358779  64.1819687  70.4429169  33.8978157   9.6292143
  70.5217896  34.1865158  10.5384245  69.7125702  34.4075851   9.2785521
  54.1013489  15.4785376   4.5628028  54.1107063  15.6911230   5.4960508
  54.7840958  14.8153667   4.4613628  83.9209213  26.3381062  20.3616486
  84.3877106  25.5080280  20.4581108  83.9574890  26.7359447  21.2314873
   6.4978833  37.8994141  51.0116234   6.4122124  36.9485588  50.9425697
   5.6182361  38.2035484  51.2351303   5.0802045  23.7726078  66.3571472
   5.3401060  24.6341267  66.6834412   4.3112578  23.9443417  65.8135834
  14.1707001  67.8775024  53.0275841  14.5500612  67.4538956  52.2575989
  14.7513857  68.6176605  53.2042274  43.5386429  60.5033836  28.2434101
  42.7934647  60.0747414  28.6643753  43.3455772  61.4385910  28.3093109
  45.4707375  46.3578835  69.9119034  45.6156578  47.0733147  70.5310822
  45.9306068  45.6115761  70.2963181  39.6965256  50.7138290  48.7772255
  39.2206802  50.3711090  48.0206909  40.3221817  50.0242348  48.9991379
  83.0644379  17.1429176  23.5599079  83.4425964  17.9788647  23.2871075
  83.8210526  16.5905609  23.7565422  22.2784100  62.2229424  28.5358677
  23.1736450  61.8908386  28.4688301  21.7270145  61.4466553  28.4380207
  58.3527451  26.7859707   2.7439117  58.6934433  27.2850723   3.4862418
  57.4545746  26.5685940   2.9934480  19.8480320  25.4358177  22.4412861
  18.9742546  25.5499058  22.8150902  20.4304619  25.4008369  23.2000885
  38.4894714   0.0954879  70.5845413  39.2662697  -0.0681354  70.0497131
  38.1585846   0.9385419  70.2746964  75.6907272  33.0980911  50.6504593
  75.1139832  33.2670937  51.3954697  75.5593109  33.8483887  50.0707932
  38.7242203  68.6033783  18.8682766  39.5569992  69.0722046  18.8143291
  38.2713585  68.8251724  18.0546722  28.7858353  59.0616875  14.5124559
  28.2570000  59.0082245  13.7163982  29.3098869  59.8546181  14.3990612
  73.0362930  49.3193588  39.2888832  73.3011627  49.7906914  38.4989967
  72.6812515  49.9968643  39.8643532  47.0646477  52.9376030  40.8595390
  46.9871178  53.8674011  41.0732994  46.4039993  52.7916107  40.1824379
  24.3320370  32.7521629  28.2837334  23.8704243  32.2617836  27.6035309
  24.8480263  33.3998642  27.8036633  17.8089046  36.5567169  11.5560942
  18.6811714  36.1745796  11.6528091  17.3940201  36.0356522  10.8686361
   6.3917589  49.2910194  70.6969376   7.2654476  48.9343719  70.5366135
   5.9786773  49.3099632  69.8336639  19.8090954  31.3622742  74.0034637
  20.2349491  31.4761925  73.1538162  19.0120602  30.8696613  73.8077621
  65.1435547  47.3033867  37.2230835  64.4072266  46.6990166  37.3168373
  65.1338882  47.8195381  38.0291405  39.8364258  45.0164108   2.0378337
  40.3383484  45.8314209   2.0300150  39.2963219  45.0752945   2.8259037
  68.3900375  16.3373566  25.5188847  68.6699066  17.1653748  25.9091282
  68.0185928  15.8419847  26.2488651  79.2999496  49.2512627  57.3651962
  78.5484390  49.0666389  56.8018265  80.0550537  48.9372215  56.8677788
   9.3516216  54.5584755  30.9599991   9.9517517  54.6875038  30.2255421
   9.7707596  55.0082703  31.6936474  58.0996971  22.1083183  42.0129509
  58.1026154  22.7049809  42.7614250  57.2102127  21.7553444  41.9914970
  65.1073837  33.7566185  31.6102142  64.1856918  33.5972290  31.8134632
  65.0916901  34.2130470  30.7689896   1.2010815  20.5924664  54.2341576
   1.6870520  21.0302029  53.5352631   0.7786368  21.3045673  54.7144547
   6.2198048  19.3616734  11.5885439   6.8140225  19.9166832  12.0936203
   5.3549247  19.5372791  11.9591885  19.8887653  57.1862564  50.0196495
  19.7360878  57.8205566  50.7200661  20.4451733  57.6498604  49.3937759
  84.0447235  67.5859222  44.7895012  84.1724091  67.1888962  45.6510658
  83.2431564  67.1825562  44.4563103  25.6686840   2.2203872  71.9606094
  25.8397331   1.9882225  71.0478821  25.9501724   3.1324294  72.0325546
   5.5881143  40.0670891  83.9352341   4.6541090  40.1524811  83.7439880
   5.6193409  39.6315689  84.7870407  56.0147667  13.5211945   4.3474312
  56.4033432  13.8833704   3.5511467  56.7539520  13.1440792   4.8245311
  37.0511971  61.8354378   1.3957391  37.0937614  62.4124603   2.1582785
  36.3289032  62.1828918   0.8724786  85.3366776  16.2396412  51.7282257
  85.7711868  17.0925236  51.7334557  85.7439117  15.7678251  51.0017395
  26.5215397  42.7050552  78.7112198  26.0114174  43.1840515  79.3643417
  26.1927414  41.8075142  78.7616348  35.8190308  70.7372055  36.3850708
  35.2387886  70.8130569  37.1425629  36.6291428  71.1666031  36.6599693
  40.7373810  63.1432533  80.9083939  40.8885841  63.6739273  80.1262436
  41.1660309  63.6283455  81.6135025  43.9645004  26.8904476  15.0191593
  43.1900177  26.5225277  15.4446449  44.5435448  26.1400681  14.8854780
  35.8989334  49.5214653  62.9318924  36.0596199  49.6170197  61.9931297
  35.4406853  48.6849632  63.0125275   0.4773713  29.2954559  10.4778957
   0.6502087  29.3303928  11.4187136   0.6410514  28.3833714  10.2380142
  38.3449402  40.3982506  87.0595779  39.1740189  40.7247353  87.4092331
  38.4852676  40.3525734  86.1138229   0.9358774  34.3816795  13.8383121
   1.8670756  34.5148888  13.6612320   0.9078946  33.6122742  14.4070492
  40.2278709  26.9104614  41.0232620  39.4002342  27.3685131  40.8768425
  40.2934227  26.8326340  41.9750366  18.3215008  64.4206924  28.9480038
  18.4381676  65.2293167  29.4467545  19.1214809  64.3423157  28.4282703
  80.2257767  11.6094942  84.4732666  80.5112457  11.7316093  85.3787079
  79.4873962  11.0034733  84.5345917  49.9765549  36.8053703  81.1862640
  49.2859230  36.2524719  80.8208084  49.5606918  37.6588326  81.3082809
  15.5165672  19.7023392  16.7072048  15.0757980  19.9161949  17.5295315
  15.9128942  18.8452206  16.8637428  33.8751678  56.0487709  28.2075539
  33.0948219  56.5488892  27.9684334  34.5988922  56.5250168  27.8005638
  40.0328102  33.3384895  57.5600128  40.9826317  33.2211227  57.5426674
  39.6820717  32.4484940  57.5934944  54.0414772  64.4036789  39.9613190
  53.3031616  64.7834549  39.4849854  54.8157425  64.7770004  39.5401573
  51.5507240  15.4300442  16.2145901  52.1350822  16.1285591  15.9199123
  51.4992676  14.8307552  15.4699850  42.8166313  36.8151131  27.7372360
  42.4504013  36.9046288  26.8574085  43.1197166  37.6950111  27.9611740
  39.1241684  61.8643684  36.5303764  39.4592400  61.2654533  37.1976509
  38.4131927  61.3807945  36.1097794  51.1592827  25.0416718   0.4876445
  51.5605469  24.1843281   0.6296961  50.7933426  25.2789841   1.3397024
  44.8203545  65.1218262  59.3175354  45.6215324  65.2456894  58.8086090
  44.1904526  65.7251282  58.9232292  43.1078987   7.8257952  15.8984890
  42.8459282   7.8080068  16.8189697  42.8725929   8.7041035  15.5994282
   8.4461212  28.3806858   9.4299164   8.8024330  29.0376034   8.8318081
   8.8506212  28.5808468  10.2740412  34.2010269   7.9863873  10.9116364
  33.3376846   7.7325444  10.5854006  34.7842140   7.8700438  10.1615753
  15.6344233  67.2361069  16.3761597  15.9675150  67.9933167  15.8945799
  16.3263588  67.0283127  17.0040741  81.2192307  18.1499653  42.5444603
  80.7708054  18.9925270  42.6168289  81.9191971  18.3048782  41.9102058
   0.9865211  55.2801323  60.9009171   1.5260949  56.0659370  60.8137054
   0.2816890  55.5382767  61.4948921  43.7108765  65.0265732  55.4297485
  43.0925484  64.4617157  54.9662399  44.3937111  65.2135849  54.7855492
  24.6709347  47.4769554  13.6341438  25.3545074  48.1128197  13.8454189
  23.8627701  47.8796387  13.9518681  26.9068832  62.8268013  20.1522427
  26.6901569  63.4812012  19.4881458  26.2989063  62.1064148  19.9860077
  50.5122414  23.6975460  64.0582504  50.8701744  23.0473518  64.6627045
  50.0721130  23.1805897  63.3835106  57.1060944  34.5536537  66.2687302
  56.9146576  35.4366570  65.9526749  57.8997765  34.6542015  66.7942734
  57.5341988  56.8841171   7.1975131  56.5814514  56.7954674   7.1720662
  57.8097305  56.3050232   7.9081197  80.5725937   0.8807500  56.0694237
  80.3460770  -0.0336446  56.2391472  79.7755432   1.3677524  56.2786407
  66.4523087  41.9000130  40.8447685  66.3753128  41.5497627  39.9572830
  67.3123093  42.3198891  40.8627853  32.9981766  31.4469624  77.4715652
  32.2731133  30.9821548  77.8892670  32.5754738  32.0507393  76.8608246
  57.4084778   6.1911068   7.9805012  57.4501343   6.1186886   8.9340487
  56.6725502   5.6327200   7.7298141  70.8449249  17.0810356  55.6008835
  70.3779068  17.8982506  55.7749062  71.0715408  16.7453194  56.4681625
   1.1480596   0.3540809  69.3964233   1.7487439   1.0952680  69.3186340
   0.3030173   0.6993992  69.1085205  31.2417946  67.8743134  61.9153786
  31.5260696  67.7645035  61.0079880  30.2872124  67.9221039  61.8631973
   1.2812966  57.6869774  28.0563488   1.3753408  58.3366318  27.3596840
   0.6373582  57.0646935  27.7182121  73.5946350  12.8672571   4.4414353
  73.4974213  12.4491472   5.2969851  74.4042130  13.3729658   4.5125985
  10.9521942  24.1543121  28.6652794  11.6977301  24.2190704  29.2621155
  10.5507326  23.3108482  28.8741570  18.1852379  55.2220230  70.5080795
  18.5183334  54.3608170  70.2558823  18.0481777  55.6783371  69.6778793
  68.6269226  49.1343231  23.6559143  67.9393921  48.4764519  23.5522747
  68.8898163  49.3490639  22.7609234  25.5955868  70.1728592  80.9936905
  25.6581154  71.0136414  81.4469070  26.0585213  70.3111725  80.1673737
  14.7330751   8.0583858  73.8817749  14.6959362   7.1019111  73.8846588
  13.8548946   8.3329744  74.1456528  28.6834240  42.3076515  72.4670486
  28.0766525  42.3741913  71.7297287  28.4747219  43.0621796  73.0178299
  84.4579315  24.0591564  46.2452621  84.2208405  23.9675274  47.1680984
  83.9723740  23.3628597  45.8029518  80.9672241  24.0931396  50.5607872
  80.8691635  23.3223877  51.1198540  80.9000320  24.8350906  51.1618080
  75.2348022  50.7605362  10.6392374  75.7607803  51.5602608  10.6443233
  75.0220032  50.6196861   9.7166815  26.5647392  31.3658619  18.6725540
  26.9783077  32.0384636  19.2136650  26.9287682  30.5415154  18.9953060
  57.2316551  23.2204781  65.6919479  56.5979996  23.5350533  66.3367386
  57.9858818  22.9440212  66.2124634  54.0621033  29.4361534  74.2949524
  53.6623039  30.0868092  73.7178574  54.1081505  28.6410961  73.7639160
   7.8051734  41.5447235  16.2132645   7.6770773  41.3956985  15.2764530
   7.0627327  42.0903435  16.4727135  58.8538666  26.0612946  86.4962311
  59.3857574  26.1367607  85.7040024  59.3725204  25.5090160  87.0812302
  81.0041199   7.5036116  71.7646942  81.7130127   7.0473437  72.2180328
  81.4377747   7.9694901  71.0497589  71.6551514  71.1167145   6.9063129
  70.9372711  71.1449661   7.5388355  71.9635468  70.2109833   6.9343257
  76.0440979  42.0651169  67.4360809  75.8338928  41.4602585  66.7246094
  76.9678421  42.2784004  67.3040695  11.3101053  61.0164108  18.6264591
  10.5355101  60.6509895  19.0538940  11.0041809  61.2755966  17.7572823
  84.2242966  25.4766254  29.6011009  83.6393280  24.9261532  30.1217022
  83.7237930  26.2775059  29.4451694  35.8285446  46.8477249  80.8683929
  35.3080711  46.0612297  80.7048035  36.5854874  46.5352211  81.3639908
  41.7229080  15.8962765  71.0226669  41.8191147  15.2504253  71.7225647
  40.7791214  15.9463549  70.8710403  69.9073792  66.0827484  58.5421867
  69.6875610  66.0177460  57.6128426  69.7498016  65.2040634  58.8876114
  63.2091637  69.1236649  58.9678612  63.1083260  68.5510559  59.7282486
  64.0932159  69.4807739  59.0525093  16.3527412   1.6723536  16.9824924
  16.3565407   2.3143568  17.6924572  15.8565645   0.9320182  17.3316975
  75.0093994  53.1942062  41.9607925  74.8529510  54.1276436  41.8177681
  75.7867203  53.1643410  42.5185585  30.4483509  40.9430733  79.6840897
  30.9094181  40.7924538  80.5092926  31.0710754  40.6732368  79.0090790
  22.3249168  44.8678741  20.8293419  22.5512657  44.1367455  20.2544937
  21.5535641  44.5656471  21.3088284  69.1700745  62.6548347  73.2573624
  70.0738754  62.3520660  73.1695251  68.6455841  61.8546333  73.2289200
  51.7908859  60.2140999  44.2798271  52.7041016  60.4179726  44.4815712
  51.6274719  59.3820648  44.7239532  86.0165176  62.2781715  74.1817703
  85.2466049  61.9537392  73.7146454  85.8715973  62.0186729  75.0916519
  25.6397247  43.6382523   2.2938836  25.9372711  44.0122452   3.1232374
  25.8856411  44.2885628   1.6359693  30.4409046  66.5540085  82.9827576
  30.2853203  67.4646759  82.7323380  29.9041080  66.0437927  82.3763275
   1.7091101  33.6665154   1.9158789   1.8566231  33.2666817   2.7729700
   1.0213312  33.1328926   1.5178311  79.3490143  66.4927444  81.3962860
  79.4358063  67.4416122  81.4876556  78.4807892  66.2966461  81.7483673
  75.1194916  53.2649536  58.6793213  75.2008972  54.1557465  58.3385925
  75.5982208  52.7237129  58.0515366  79.9150620  68.0083466  50.3363991
  79.9368744  67.3326035  49.6588097  79.5272827  68.7690125  49.9036751
  11.7721376  66.5765533  21.7949657  11.8208609  67.5260468  21.6839962
  10.8704033  66.4137115  22.0717163  49.7988930  42.2124252  11.3518667
  50.6264648  42.6870270  11.2736616  49.3002052  42.7062073  12.0028057
  19.9038887  71.2299042  28.5499401  20.2242947  70.9582977  29.4100571
  19.3341599  70.5136871  28.2694588   0.2603799  65.0296097  49.6555367
   0.5437424  65.8614349  50.0350304   0.5412331  64.3693008  50.2890549
  67.3499603  34.1240654  79.0211716  68.0139618  33.5469017  79.3982773
  66.5165100  33.7430763  79.2976456  29.7083187  65.1190796  51.9014053
  30.3040199  64.3979568  51.6980515  29.0484085  64.7300262  52.4753265
  74.0842438  39.6227417  22.2498226  74.9185638  39.2255554  22.4995937
  74.2700729  40.5605392  22.2024994  57.8211403  33.7463379  44.4624825
  57.5313339  32.9270058  44.8636551  58.6058006  33.9892426  44.9539490
  61.8353043  10.6571369  10.6940870  61.9652596  10.8465052  11.6233253
  61.6742592   9.7141247  10.6620665  68.1882172  60.4834671  57.1015282
  67.2954788  60.3394203  56.7876740  68.3350143  61.4219742  56.9836922
  67.0664902  27.0793381  31.4716625  67.5223312  27.4360600  30.7093086
  67.7440262  27.0077286  32.1440086  63.0026207  56.9408607   3.2079532
  63.6745071  56.3218651   2.9222188  63.4938126  57.7043037   3.5114541
  63.9636955  58.2631264  19.1742668  63.9541435  57.9399567  18.2733212
  63.9967117  59.2157364  19.0866814  45.6404800  19.8911018  61.5289497
  45.9131393  20.1836338  62.3986092  44.7600937  19.5389309  61.6598129
  38.6956787  44.9201050  70.9915619  38.6987381  45.6203537  71.6441498
  38.6905670  44.1130714  71.5062485  62.7493362  64.3462982  54.8751678
  62.1222572  63.9304733  54.2834816  62.3187218  64.3308029  55.7298965
  31.7126064  67.8493881  79.0724945  32.6666946  67.9023285  79.0164413
  31.4431934  67.4825363  78.2304382  70.6859360  54.6929359  81.6024628
  70.0497055  54.2397079  81.0492630  70.1587830  55.0986633  82.2907486
  74.4186554  41.3508873  62.7424698  74.5942993  40.6167068  62.1539459
  73.5311356  41.6306114  62.5182037  59.4202385  70.9198380  49.9872665
  60.3081131  70.5639877  49.9514847  59.5442123  71.8664246  50.0568237
   1.1460055  34.4948425  73.8288345   1.5288465  35.3716240  73.7984695
   1.8904768  33.9136887  73.9845657  41.6203575  67.8752823  21.5941200
  42.1308327  67.1178818  21.3077812  42.1754074  68.3063889  22.2439651
  39.1830292  10.0204391  10.6222143  39.0344810  10.7844706  10.0650597
  40.0709419  10.1389942  10.9595404  68.0833969  35.2875443  85.7068329
  68.3432388  35.5546913  84.8251648  67.5004807  35.9851685  86.0064545
  55.8014336  31.0148964  66.9261551  56.5405464  30.8036079  66.3558044
  56.1377640  31.6921120  67.5130920  33.2082405  65.5838852  39.0304031
  33.3930550  65.5351257  39.9683266  34.0712967  65.6100845  38.6172714
  84.1430893  24.7803822  78.3149643  84.8911133  24.2788792  78.6392899
  84.5312653  25.5612068  77.9201736  48.4840851   8.2197866  70.0538940
  49.0103073   7.5108423  69.6841354  47.7166405   8.2707052  69.4840927
  51.7214050  57.2012787   6.9094057  51.5785179  57.5123405   6.0155067
  50.8507309  57.2070122   7.3070493  15.5097828  50.7217560  68.5440521
  15.9747820  51.5429764  68.7040634  14.8695755  50.9372292  67.8658676
  74.6304092   2.0660219  17.9687881  75.2720337   2.6084015  18.4274635
  75.0990677   1.7378993  17.2013741  19.4198151  54.8113976  61.4387398
  18.5564384  54.6352348  61.8126068  19.9267921  55.1719818  62.1661911
  57.3090935  46.0110245  58.1843109  56.8999557  46.1264038  59.0419388
  57.0431862  46.7839203  57.6861572  23.8330154  57.5531006  54.9216003
  24.0030518  56.9325447  55.6302834  24.4488449  57.3041878  54.2323799
  58.8401985  64.4651871  30.0539875  59.0441360  64.9642944  30.8448944
  59.5850525  63.8739357  29.9451694  72.2133713  16.6358280  11.7270889
  72.9169769  16.0936012  12.0836792  72.6349869  17.1557808  11.0428915
  38.9224014  67.3398361  84.4752960  38.6169777  66.6050339  83.9433060
  39.4078102  67.8931274  83.8633423  84.6641083  67.1898041   7.0249267
  85.4870453  67.5130615   7.3916798  84.0444336  67.2318039   7.7532625
  82.8423157  33.9940758  59.6947784  82.7054214  34.7427406  59.1142693
  83.5421600  33.4920158  59.2771835  86.5168915  32.3466148  83.6174240
  85.9309616  32.1683311  84.3530426  87.3959351  32.2277222  83.9771194
  60.0300140  66.4052048  57.9146500  59.6524696  65.7155457  57.3687057
  59.3844986  66.5421066  58.6080475  74.0139999  24.6564617  23.0734329
  74.1115875  25.4614162  22.5647488  74.2600708  23.9583187  22.4665756
  75.3439865  15.1134539   5.1835122  74.9416122  15.6528206   4.5027695
  75.1194763  15.5548000   6.0026832  83.2862091  12.9580803  28.6837006
  82.4713364  13.0423698  29.1787872  83.9320450  13.4383421  29.2018509
   3.4128625  31.3358994  59.9357834   3.1686361  30.7616005  59.2099991
   3.7876282  30.7474651  60.5911713  76.6536865  22.5192719  77.9817352
  77.0492172  21.8776989  78.5718002  75.7290726  22.2741814  77.9465027
  24.7672997  71.8404312  16.4163589  24.2086220  71.0799942  16.5771332
  25.5378685  71.6916580  16.9643764  25.7555695  39.7188644   9.5174856
  24.9677410  39.1786423   9.5784588  26.4766922  39.0896492   9.5001593
  78.1265030  18.0288353   7.6104650  78.7627029  18.1840477   6.9123311
  78.4843216  17.2883987   8.1003132  84.1349258  48.6552734   8.8094368
  83.3750076  49.2297897   8.7162819  83.7627258  47.7962303   9.0087852
  61.3462067  35.0235710  62.2710686  62.0306702  35.0279427  61.6019478
  60.8631859  35.8369331  62.1249161  65.1048203  40.0296898  48.9875755
  65.3061600  39.6516991  49.8436203  65.5302734  39.4441757  48.3611603
  12.5061541  42.2524834  20.0474110  11.7802677  41.9950943  20.6158066
  13.1763811  41.5859222  20.1981564  82.4001999  42.6902733   8.8906384
  83.0424805  43.0823975   9.4821920  81.5738525  43.1167564   9.1175890
  45.7345009  43.4770813  40.3777924  45.7999916  44.2910881  40.8771286
  45.2195549  43.7106438  39.6054497  72.4571915  15.9083986  45.4583588
  72.9286346  16.5346889  44.9090576  72.4716949  15.0925369  44.9579659
  63.5777168  49.7945900   0.3416947  63.3010330  50.6886864   0.1410224
  64.5340729  49.8298264   0.3225423  46.7586746  37.4179153   8.5139637
  46.4757919  38.1884537   8.0215425  47.1238708  36.8312073   7.8516660
  58.8279953  41.4787521  59.9422150  58.6585464  41.8273849  59.0670166
  58.2175865  41.9493561  60.5098114  18.8306293  11.8286648  22.7562046
  18.8425655  11.2611189  23.5269051  19.6063881  11.5719538  22.2576771
  55.8245468   4.1407990  39.5120392  55.2850113   3.3502204  39.5228577
  56.3213005   4.1029620  40.3293762  15.1656542  30.8364029  87.9017715
  15.7758074  30.8664379  88.6386871  15.1948242  29.9273090  87.6035614
  55.0958023  51.0390244  48.3519402  55.9596367  51.0435066  48.7642479
  55.2365150  51.4451523  47.4966660  65.2680817  53.9059181  45.7650604
  65.0804367  54.8422546  45.6995392  65.8210754  53.8262787  46.5422935
  75.3070755  42.9545174  25.0550022  76.0164948  43.5003014  24.7157879
  75.7154388  42.1039772  25.2164135  51.3263969  59.5822678  86.2666550
  51.4673882  59.5078888  85.3228226  52.1665115  59.8851509  86.6111908
   5.9581289  24.2885075  57.6233940   6.1526623  25.2119083  57.7837639
   6.4689159  24.0678921  56.8445129   1.5218120  70.1363602  14.5454340
   2.1494293  69.9386368  15.2405844   1.7498109  71.0216141  14.2615795
  60.4431839  33.8622627  10.0814829  59.8869324  33.6302261  10.8251057
  60.3117714  34.8036613   9.9686337  74.7510910  71.0082169  63.1508560
  74.0471420  71.4134216  62.6444016  74.6364594  71.3510590  64.0371704
   4.4248033   3.5345860   0.2379478   4.6826334   3.9543569   1.0586474
   5.1462412   3.7203898  -0.3630812  57.2957115  21.7165031  54.4568710
  57.0624504  20.7928848  54.3633232  57.2624283  21.8776207  55.3998260
  71.5136185   5.6553864  42.2611961  70.8375168   6.3329673  42.2596092
  71.2236404   5.0292420  42.9245872  77.1333389  50.0279770  59.5631485
  76.8793869  50.5470276  58.8000450  76.5715866  49.2539406  59.5240402
  47.7047462  33.4661751  69.4125366  48.0384560  34.0065651  68.6964035
  46.9170647  33.9218292  69.7094574  76.0727310  55.9387093  38.6348534
  75.2879028  56.3626175  38.2876244  76.7801208  56.5567017  38.4506874
  29.7191753  26.0862885  75.8531494  29.3157520  25.3243618  75.4372787
  29.0067635  26.4969749  76.3430862  37.3435326  31.1353378  87.9805832
  37.8885002  31.6509953  88.5750122  36.4894333  31.0971813  88.4110413
  41.4078178  11.7855930   8.5899973  41.8601570  12.1878710   7.8485174
  41.0308571  10.9814472   8.2329493  52.7066422  59.0745239  77.1204987
  53.5352936  58.6076775  77.2282944  52.3529663  59.1426125  78.0073547
  77.4544601  31.9240608  26.2178459  77.8295059  32.4798164  25.5346870
  78.2061005  31.6507607  26.7437477  -0.0089764   5.4547191  73.9313126
   0.4269314   4.7264853  73.4887161   0.3701028   6.2383614  73.5332718
  75.8561020  62.7004852  44.8306770  75.9206619  63.6039810  45.1401367
  76.0095825  62.1683655  45.6113968  29.1216488  41.1470032  35.6583405
  28.9422874  40.4795532  36.3205872  28.3456402  41.1430092  35.0979576
  17.9774933  17.6221371  76.6385345  18.1480637  17.8000126  75.7136002
  18.1439362  16.6846561  76.7368011  52.1467552  -0.1921971  29.5018940
  52.1147881   0.1292082  30.4029541  52.8697968   0.2902414  29.1010265
  18.9417152   2.5977590  59.3762360  18.6089401   3.4887831  59.4837914
  18.3001976   2.0467408  59.8246384   3.2316294  31.2068672  86.2152481
   3.9930894  30.9574718  85.6915970   2.5038862  30.7223091  85.8255997
  14.8502626  52.1444855  20.0207405  14.7738771  51.3094788  20.4824390
  15.1148148  51.9039001  19.1328411  40.3554611  66.9621735  16.2436848
  39.4653320  66.6144104  16.1892262  40.8627129  66.2594376  16.6500015
  51.5379562   7.7493720   2.2886724  52.2224503   7.2450795   1.8489168
  51.7785988   8.6632586   2.1365764  15.7450647  37.9934006  61.4862938
  15.5727606  37.9600868  62.4272690  14.9223003  37.7176743  61.0822296
   6.6598959  17.6797276   4.5320125   6.5345197  16.7314491   4.5677915
   6.9706960  17.9134026   5.4066730  84.1845016  32.5902176  62.6221046
  83.3007050  32.3452492  62.3480072  84.1309586  33.5309868  62.7903824
   5.3827443   1.1250143  28.6475220   4.5982084   0.9448119  29.1654625
   6.1034446   1.0607100  29.2741699  46.7017059  65.2400436  76.8130264
  46.7766914  64.3033600  76.6307297  47.4204674  65.6379395  76.3218155
  21.8429050   0.9238051  27.1084099  21.1103706   0.3516540  27.3370342
  22.1853523   1.2226754  27.9508095  64.5671921  49.7411499  28.2098808
  65.2632828  49.0967560  28.0816402  63.8379669  49.2372894  28.5712490
  50.7253418  11.6257305  54.1088104  50.9803429  11.3007383  54.9722824
  51.2119102  12.4437895  54.0075073   3.2572236  14.0395384  45.7532501
   2.4632061  13.8136511  45.2687492   3.7612901  14.5825396  45.1471977
  62.2492676  32.9444656   1.7435895  61.9773941  33.0983505   2.6483741
  63.0414085  32.4123917   1.8187242  13.9454374  25.0704613  81.0961914
  13.1064053  24.7237034  81.3995361  14.5756798  24.3767681  81.2906570
  19.0956745  35.0843239  42.7689133  18.8140583  35.9556618  43.0476494
  19.5084877  35.2270927  41.9171906  34.2776146   4.5940895  78.4262085
  33.7609558   5.3994765  78.4007263  33.7220688   3.9396515  78.0027542
  69.9462585  30.0682869  47.7307816  70.8353806  29.7482929  47.8834229
  69.7326050  29.7694435  46.8468857   3.3662632  16.7407284  57.9040565
   4.1577659  16.7867661  57.3677368   2.8287020  17.4724503  57.6009979
  66.0217133  18.4979267  25.1175842  66.3609772  18.1149292  24.3086071
  65.0707779  18.4237537  25.0372963  51.7086067  39.5669403  69.8386841
  51.7573624  38.6183357  69.7203445  52.5875778  39.8184280  70.1222229
  74.1973572  55.1791611  55.4631157  73.8640671  55.5556526  56.2776070
  73.5116882  54.5738220  55.1808777  46.6505966  21.4747124  46.5912933
  46.0713539  20.9560871  46.0329590  46.0988312  22.1883564  46.9114456
  75.9103012  69.5154037  13.4939613  76.5492783  69.6033325  14.2012177
  76.1796417  68.7258301  13.0246382  45.9863892  11.7658529  51.5577431
  46.6613274  12.4336958  51.4365997  45.8922310  11.3612986  50.6953621
   6.3541088  30.7404881   4.7181420   5.9252782  30.5015659   3.8964045
   6.9542127  30.0159473   4.8946290  62.7349510  67.3616180  23.9216957
  62.0814819  68.0338058  23.7283630  62.7506523  67.3106995  24.8774109
   6.0888047  28.9394531  30.8753300   6.9847798  28.9194202  30.5390873
   6.0846119  29.6621819  31.5029259  72.8311081  36.7748222  31.3354378
  73.1774063  37.3002548  30.6141663  73.3843460  35.9938278  31.3499737
  34.3999329  42.7903938   6.8946023  34.7015114  41.8850327   6.8197546
  34.0272980  42.8467522   7.7744894  68.6539536  12.2798977  16.2495766
  68.6092682  12.2148790  15.2956343  67.9758530  12.9155712  16.4783440
  54.8543510   4.5613937  26.5542603  55.6760292   4.1240826  26.7774925
  54.2373009   3.8464990  26.3980389  67.4981232  12.4616632  60.6762314
  66.8016663  13.1175270  60.6441422  68.0663528  12.7504463  61.3903389
  30.1498814  44.6624336  53.1976776  30.3935165  44.3597183  52.3228989
  30.6129456  44.0727959  53.7927704  36.1912727  31.9584045  68.4383163
  35.7749977  31.2874527  67.8972321  37.0020905  32.1701012  67.9757309
  79.1577606  57.1883469   4.8429360  78.4423218  57.5702667   5.3513803
  78.7497406  56.9194870   4.0198536   3.1533899   2.4011340  54.3147964
   2.4405279   2.4152989  53.6761551   2.8987222   1.7253644  54.9430542
   9.9871569  26.9622650   7.2018461   9.2348461  27.5360470   7.3468761
  10.4564524  27.3629723   6.4701171  16.4868526   0.4747967  11.3250713
  15.9692144   0.3755004  10.5260582  17.2505379  -0.0854873  11.1868792
   0.7116076  65.5567780  22.1690159   0.1395867  65.5218353  22.9356995
   0.8799681  64.6394119  21.9537868  55.8820000   9.4186468   1.3332824
  56.3191299   9.4229317   2.1848288  55.0404778   8.9933434   1.4981772
  38.2158470   7.7599883   9.2982368  37.5780907   8.1280317   8.6866474
  38.5768585   8.5202723   9.7541647  63.0132256  29.0529671  47.4045906
  63.1822701  29.9252052  47.0484200  63.4853516  28.4599457  46.8200836
  76.3062057  14.8311615  57.9913330  75.6501541  14.8002052  57.2950020
  75.8435898  14.5219278  58.7701721   0.6248578  62.0452271  19.6946983
   1.4968880  62.3546371  19.4496269   0.5288790  62.3013229  20.6119957
  76.4374847  71.1812897  70.7450562  75.7326889  70.7782364  71.2520599
  77.1750336  71.2258224  71.3535538  42.1192207  25.6703987  65.0871964
  42.7590103  25.5499363  65.7889023  42.1884537  24.8740425  64.5606461
   3.3331757  14.5009584  66.4828720   3.3364825  15.2227440  65.8541794
   3.6458793  14.8923349  67.2985153  57.4196243  25.7054176  26.6946011
  58.0952110  25.7558994  27.3708172  57.8194542  26.1119347  25.9257622
  58.6523476   0.5382215   8.0010376  58.1244774   1.3360739   8.0329332
  59.1770744   0.6298340   7.2057395  80.2486420  15.7931604  39.2841568
  79.4475403  15.2695866  39.3027802  80.6941605  15.5208311  38.4819221
  64.5139084  14.0415850  31.6297474  64.1388702  13.2763462  31.1938705
  65.4575653  13.8812265  31.6253052  82.7113571  54.5781708  74.2367096
  81.9167786  54.1008949  73.9977722  82.9179230  54.2724648  75.1199417
  49.9170074  22.1267738  41.5960503  50.5614548  22.6512718  41.1208496
  49.1429405  22.6874847  41.6476250  35.0715790  57.7777290  48.8452911
  35.7495766  58.4151802  48.6212273  35.3920784  56.9506912  48.4854012
  39.1435051  31.9186134  60.5733528  38.4388008  32.5618324  60.4965744
  39.1280556  31.4459267  59.7411537  24.1750336  58.5670128   8.9503498
  23.2983837  58.3633499   8.6244106  24.0248699  59.1572037   9.6888332
  33.7032280  15.2591572  84.7233887  33.4248924  14.7677279  85.4962158
  34.6043358  15.5182486  84.9160233  55.8813286  24.6723328  57.3654099
  56.2003403  25.5381336  57.6200752  55.9223747  24.6737041  56.4090919
  68.9660645  41.8863716  60.4923592  68.5555344  41.0345917  60.6412468
  68.5132599  42.2399330  59.7267265  16.9279938  30.7445049   0.9211578
  17.5408230  31.0755024   1.5777501  17.4810810  30.2941303   0.2828083
  85.7073364  29.2790565  73.0354996  85.6925812  29.9971924  73.6681900
  84.8535385  29.3216515  72.6048737  82.8826675  66.7426224  30.6928539
  83.5299377  66.0504303  30.5581570  82.1166000  66.4540176  30.1968002
  39.6951485  61.1693459  28.4389362  40.3159676  61.3296089  29.1496601
  38.8376389  61.3472481  28.8252831  49.9983597  52.9784546  63.7034569
  49.4676552  53.4797859  64.3225250  49.4393349  52.8813095  62.9325600
  65.1285400  15.1674337  14.7534485  65.6214905  14.4545736  14.3471766
  65.7148590  15.9224539  14.7043810  12.2670479  26.2630959   9.6384907
  12.4491024  26.9041462   8.9513645  11.3188229  26.1371231   9.6033831
  46.7463036  21.7270565  16.9086418  46.3426857  20.9036140  16.6342983
  46.0154114  22.3415432  16.9752350  33.5330048  42.4346542  86.6018372
  34.4776344  42.5320511  86.7219315  33.2766380  43.2005959  86.0881805
  67.0823746  55.8159943  46.1995316  66.9809647  56.5539665  46.8006516
  67.6774597  55.2183571  46.6522293  40.4643326  33.4045029   8.6534300
  40.3466797  32.5567932   8.2247391  39.7860794  33.9619522   8.2720451
  17.9637794  24.6869736  89.0742188  17.6409321  23.8543224  88.7296982
  17.1723251  25.1918373  89.2611542  54.1650200  11.0442848  37.1401863
  54.4219818  10.3135557  36.5778351  54.8382568  11.7084789  36.9924278
  43.6059227  50.2229996  21.1505661  43.9229927  50.5089493  22.0072632
  43.0191193  50.9237518  20.8662376   4.6838603  71.5411835  22.7289639
   4.5761771  70.5935898  22.6470757   4.7429800  71.6949234  23.6718864
  52.0906105   4.1990757  64.9409637  52.4796677   3.8225048  64.1516190
  52.6070480   4.9870753  65.1100235  39.3721848  21.0739288   5.1318040
  40.1539345  20.7411537   5.5726647  38.9544525  21.6406631   5.7802987
  37.0825996  53.5660553  72.6253510  37.9832344  53.7380943  72.3505936
  37.1294670  52.7306938  73.0903320  83.9938431  54.1546173  43.4029922
  83.2101898  54.6339912  43.1340675  83.8215866  53.2494049  43.1438560
  66.9285812  49.9160233  72.6650696  66.1081009  50.1520882  73.0978775
  66.7051544  49.1576538  72.1254501  61.1674728  42.0785065  42.2793465
  61.3536644  42.9571228  42.6103973  61.3449707  41.5003967  43.0213165
  58.1077728  59.9717178  78.8683853  58.7159538  60.5255775  79.3578644
  57.2761421  60.0593452  79.3341599  37.1928406  57.5227013  60.1614609
  37.4298668  58.3608551  60.5583839  37.8191872  56.8984985  60.5279198
  55.6169891  46.9500618  55.6657753  54.8451271  47.0792770  55.1146240
  56.2556496  46.5308571  55.0890465  63.1020851  58.1221809   9.9904909
  62.3587799  57.9898987  10.5789042  62.7354317  58.0127563   9.1130953
  71.5643997   5.0018034  20.6851768  71.2207108   5.8501115  20.4050274
  72.0599060   4.6831541  19.9307461  49.4269371  10.3291330  22.1637344
  48.6609344   9.7729197  22.0219631  50.1252174   9.7190857  22.4013824
  75.6272049  11.8177910  64.9656830  75.1113052  12.1695375  65.6911926
  76.1229477  11.0959272  65.3521805  81.7383575  30.3356419  15.4672737
  81.6524277  29.7827511  16.2439079  80.8825684  30.7545090  15.3755808
  73.5537567  22.9127159  37.1450119  74.3773270  23.3893204  37.0410423
  72.9686279  23.3008804  36.4944839  16.5650387  54.8220291  83.8789368
  15.6591997  54.5135002  83.8566818  17.0071049  54.3164024  83.1969147
   6.5368671  22.3960018  25.7019882   6.5122108  22.5315208  24.7547512
   7.4333782  22.6189461  25.9525795  36.0135231  42.7906837  81.7255859
  36.5302238  43.5570107  81.9745789  36.6605453  42.1537819  81.4223633
  48.8053818  41.1471901  73.1700668  49.6427841  41.0495567  73.6233368
  48.1698570  41.2954521  73.8703156  47.5597191  48.2382927  48.7314720
  48.2615318  48.8889656  48.7136497  47.9585838  47.4458885  48.3719826
  67.3350830  69.2530289  70.3720856  66.7450256  69.3914871  69.6312103
  68.0184631  68.6769028  70.0295944  63.3491859   6.9292479  31.7868881
  63.7888832   7.7666554  31.9340153  63.1921463   6.5835519  32.6655579
  63.3090096  30.7394695  84.4099808  64.0208740  31.1646233  84.8882294
  63.7497063  30.2091923  83.7460403  82.7801056  20.4645042  31.6007061
  82.1534805  21.1875305  31.5723743  83.6327438  20.8899326  31.6915588
  36.2947006  48.7106018   7.0903721  37.0077972  48.2601738   6.6377745
  35.7224998  49.0195122   6.3879523  49.5956573  12.4702501  69.8544846
  49.4092407  12.4418049  70.7929230  48.7563400  12.2754545  69.4375458
   6.7701015  64.5202103  39.4450531   6.8082561  64.9937744  40.2760239
   5.8752298  64.6552505  39.1332855  85.8356247  44.9220543  45.6170998
  85.0064621  44.8957901  45.1395721  85.6882706  45.5569305  46.3181343
  64.5117798  42.0214043  68.7409286  63.9072990  42.0313721  69.4830475
  64.3046265  42.8181648  68.2525711  86.1274490  39.1792297  85.1636047
  87.0834503  39.2232170  85.1446686  85.9341202  38.2739487  85.4071579
  84.1088867  66.4997253  82.4234390  84.4810791  65.7587280  82.9015884
  84.1753159  66.2480927  81.5022964  52.6847305  46.1832771  64.9500732
  52.0518150  46.8737946  64.7530060  53.3838387  46.3089333  64.3084412
  32.8702202  45.3610420  66.0853806  33.7264061  45.0198936  66.3438263
  33.0157471  46.2977562  65.9526596  35.3101349  68.9011765  40.4932518
  34.7091713  68.2147293  40.7828445  34.8837967  69.2851791  39.7270851
  71.9001541  43.7655945  11.5979929  71.3727112  44.4026604  11.1161432
  71.5104675  43.7441597  12.4720154  64.1959839  32.2942276  43.5745926
  63.3134346  31.9320698  43.4960022  64.4643784  32.4689560  42.6725578
  72.6100082   8.6410885  62.8399086  72.2301178   7.8062387  63.1136703
  73.1039047   8.9411755  63.6029587  70.7294846  69.6379471  26.8886032
  70.5709457  69.7978973  27.8189316  71.1681824  68.7875748  26.8631382
  25.1239243  10.3246374  31.8856049  25.8382339   9.7068748  32.0416985
  24.7973995  10.0981636  31.0147877  40.4041138  39.7565994  16.2430687
  41.0912895  39.9337273  15.6006937  39.6771355  39.4089928  15.7264376
  42.0087128   5.3953052  35.3162766  42.7107620   6.0304356  35.4575920
  41.7596588   5.5135832  34.3996468  85.5657425  50.0340691  17.0518131
  86.1888580  49.3634109  17.3314133  84.7123795  49.6964607  17.3238659
  28.7204227  16.3891945  12.8256283  29.2109337  16.6359501  13.6096840
  29.0834675  15.5402222  12.5732870  59.7773323  22.6924629  46.9000854
  60.4926262  22.6396675  46.2662086  60.1160927  22.2539139  47.6805649
  84.6779556  10.6748104  67.3161697  84.4842072  11.4454489  66.7824936
  84.2096405   9.9604397  66.8842087  17.5292187  44.7658806  26.4304447
  17.1589489  45.2298584  27.1813469  17.7254810  45.4552002  25.7959785
   4.8881774  26.7006512  78.3858871   5.3206992  26.1624737  77.7229233
   4.2240787  27.1904621  77.9008179  15.2156525  22.7081451  73.9581070
  14.7247486  21.9088593  73.7673569  14.5970535  23.2609596  74.4355621
  51.4604836  13.7958641  18.4751453  51.6419868  14.2563286  19.2944508
  51.6429634  14.4412346  17.7921886  28.8943481  58.2659912  36.0286179
  29.5209827  57.7888718  36.5726051  29.3169117  59.1079216  35.8588486
  65.4778290  65.8897324  20.1396809  65.9529800  66.6921844  19.9239616
  65.0841293  66.0668106  20.9940090  24.7401409  42.6219406  87.8147736
  24.5126648  43.4053535  88.3155212  24.3256893  42.7539635  86.9621124
  10.2238121  32.0768585   5.2831841  10.7725296  32.7462425   4.8744488
   9.8080759  32.5249481   6.0198054  70.7037277  20.1585312  65.5132675
  71.6522751  20.2731323  65.5711288  70.5521088  19.2619629  65.8122864
  40.6044540  57.3018608  68.1606674  40.1713028  57.4744606  67.3247147
  40.8972244  56.3928604  68.0955429   5.3639698  12.4197435  84.0782623
   4.7071066  13.0886669  83.8851166   4.8660674  11.6041203  84.1337891
  68.0399094  34.3737984  54.2042618  67.3208542  33.8912849  54.6121559
  68.2461700  33.8738976  53.4144630  58.3257675  58.1560936   1.7341273
  58.7241898  57.3169670   1.5031371  57.4918289  57.9213066   2.1411397
  72.2328873  45.8740768  42.5029526  71.8697052  46.3582230  43.2445259
  71.6856995  45.0914955  42.4367332  45.2009087   5.6714730  78.1903534
  44.7421379   4.8555140  78.3902740  45.6813164   5.4847126  77.3837738
  38.4609108  16.2107162  76.7328491  38.2763557  16.9864311  77.2624130
  39.1385117  16.4951038  76.1194839  12.9926567  44.4573021  58.2309608
  13.5284224  44.9418373  58.8589821  13.2365074  44.8189049  57.3788948
  84.1926270  38.4183006  32.8302727  84.2360229  39.3642578  32.9699593
  84.2851868  38.3114891  31.8835659  76.5654144  10.3697844  44.1890335
  76.7627563  10.4592829  43.2566833  76.2289276  11.2282267  44.4461098
  51.1491737  31.5345726  76.0488968  51.8415794  31.2934723  76.6642609
  51.6128883  31.9206104  75.3058090  61.6524162   7.0886788   6.5978818
  60.8694267   7.6368842   6.6491675  62.1606140   7.3236923   7.3742433
  41.7141457  57.8194809  86.7541046  40.8626289  57.7473602  86.3228912
  41.5314369  57.6404762  87.6764984  80.9334259  29.1587372  62.0395355
  80.9733353  30.1128578  62.1050568  80.3341827  28.9935074  61.3116341
  40.9511986  58.2055054  13.0594635  41.3683739  58.9709702  12.6641684
  41.6151733  57.5179062  13.0086689  21.3515053  21.3924122  68.4404831
  22.0078850  21.9529133  68.0266800  20.6968117  21.2459946  67.7577209
  64.4156418  28.4454803  66.6308823  64.3406754  29.2859535  67.0827866
  64.6241379  27.8187847  67.3237076  48.5112305  29.3167019  82.9402084
  48.0971336  30.1771374  82.8738098  47.8096809  28.7352543  83.2334366
  24.6970959  51.8374672  44.4120522  25.2209988  51.0364494  44.4007416
  25.2056503  52.4487686  44.9448891  49.2559242  46.5746841  19.2303581
  48.3868828  46.1919518  19.3508205  49.8066902  46.1247635  19.8710289
  41.4483948  71.5363235  65.9153824  41.4238167  70.6564484  66.2914810
  42.3720436  71.6843262  65.7124100  14.3937159  66.1611099  23.1661682
  14.4940434  66.5882263  24.0168953  13.4469681  66.0962601  23.0408916
  59.9080276  27.2712936  78.4491119  60.8238106  26.9945927  78.4809341
  59.9399796  28.2198677  78.5732803  30.4637489  23.8844090  82.3812943
  31.4001923  24.0042992  82.2233963  30.0884762  24.7580395  82.2709656
  70.1968689  36.3671303  21.2352104  70.3553467  36.0971909  20.3306389
  70.9165878  36.9653168  21.4362373  46.6979256   6.4918008  19.4053783
  46.0099030   7.1314292  19.2217083  47.0564651   6.2721186  18.5454826
  81.3935318  67.4582825  58.0541992  82.2335052  67.3605347  57.6057281
  81.2062683  66.5873871  58.4044838  49.1137695  40.4488754  33.8509865
  48.3229256  40.6983490  34.3290672  49.0992317  39.4917946  33.8468132
  23.3504601  32.4563446  72.9064713  23.2503395  32.0352364  72.0527267
  24.1454563  32.9827461  72.8221359  60.6171265  59.0648346  77.9042130
  60.1683578  58.2403946  77.7167435  60.0113297  59.5441360  78.4694672
  39.5612602  58.1805153  84.5116272  39.3135223  58.9035225  85.0879211
  38.8501396  58.1288071  83.8729858  78.7898102  47.6925240  79.7413559
  78.6560669  47.9384346  80.6567078  79.6463699  48.0568504  79.5181732
  46.3006668  24.0281315  86.2261581  46.2695465  23.4171581  85.4899750
  46.8714752  24.7355938  85.9263153  77.1063919  57.2526207  69.1787415
  76.2360916  57.5396805  68.9023361  77.5239487  56.9451866  68.3741608
  72.8150177  61.6553688  70.9464645  73.1028214  62.4715996  70.5375977
  73.5094910  61.0283928  70.7443924   5.6750546  23.2206612   2.4360123
   5.0895424  22.5465603   2.7809694   6.5075269  23.0661716   2.8825042
   4.0126257  61.0129128  73.9614639   3.1048052  60.8216476  74.1970673
   4.0608492  61.9688339  73.9502182  39.9795074   4.9835582  40.5974350
  39.7000237   5.2392755  41.4764862  39.6902733   5.7024765  40.0355377
  22.7961082  71.0171967  66.7969208  22.8664646  71.9027634  67.1533508
  22.3759041  71.1346130  65.9449387  22.4928856  23.0290279   2.3570669
  22.2361145  23.7885551   2.8799605  22.2033901  23.2403507   1.4695046
  84.4560547  62.0903435  30.2765808  83.6275558  61.7655182  29.9240093
  84.7836609  61.3724632  30.8183918  59.3136940   2.8525567  78.9720917
  58.4366417   2.6862428  79.3175659  59.1625671   3.2128160  78.0982437
  83.2984085  22.7529831  19.4725990  83.4562302  21.8176060  19.6006317
  83.4319763  23.1391048  20.3382206  75.8480606  13.8213282  17.4132881
  76.5149384  13.5016441  18.0209923  76.2575912  13.7532444  16.5508022
  25.0751057  35.6865578  63.7639809  25.2109127  35.3016930  62.8981476
  25.7634125  36.3470078  63.8431587  15.0485239  33.1951370   1.7665340
  15.7620220  32.5901947   1.5635676  14.5657225  33.2805023   0.9444345
  23.2052174   0.8156665  83.9339981  22.5033512   0.3680474  83.4615021
  23.0323029   1.7466640  83.7940826  11.9437943  17.7948303  75.3362885
  11.9298677  17.3299541  76.1729050  12.1365004  17.1167946  74.6887054
  29.0486012   4.8149357   6.1453919  29.4263020   4.0057907   5.8006344
  28.5416965   5.1723022   5.4163032  29.3463974  65.1882782  10.3824539
  28.7988110  65.7310791   9.8152199  28.7459660  64.8591843  11.0513391
  57.3384972  40.2436752  51.2487526  57.9548225  40.1633530  50.5207939
  56.4872398  40.0304222  50.8665047  75.8910599  28.2274990  51.9014015
  76.6506119  28.4205303  51.3518105  76.1603699  28.4879971  52.7822266
  68.1241684  43.3861809  68.5281143  67.7960129  44.0375175  67.9081879
  68.1087189  43.8323135  69.3748474  15.9726686  42.0447617  62.8512001
  15.8966160  41.4097977  62.1389694  16.9139042  42.1138344  63.0110016
  64.3602371  66.9207001   3.0379190  64.3408356  66.7064056   2.1052172
  63.5145264  67.3364258   3.2057967  23.2436695   2.1736300  67.2947693
  22.7677155   2.8737671  66.8481064  23.8743210   2.6301548  67.8516312
  72.8641510  34.8014450  24.8506203  73.0954666  35.1009827  23.9714165
  73.7054367  34.6402969  25.2778206  43.6259918  48.3050461  52.7253990
  44.3482246  48.6344757  52.1905289  44.0397644  48.0307770  53.5438156
  27.4188786  59.5019722  84.9411926  27.2368164  60.0121727  85.7303543
  28.1204700  58.9040680  85.1990891   7.7871981  35.0415955  14.0973635
   7.0428596  34.5090408  14.3776817   8.2966080  34.4619789  13.5309906
  82.5634995  69.1151047  33.8729515  82.9727325  68.3148041  34.2020149
  83.2680054  69.7630920  33.8760185  71.9835434  29.6177368   7.4684882
  72.8935242  29.9069462   7.5358052  71.7936249  29.6409016   6.5306048
  84.1313095  25.9982243  59.0069046  84.3211670  26.7319870  59.5915222
  84.6649933  25.2788219  59.3443642  69.1993179  22.5970287  26.9089584
  69.3994904  22.6616325  25.9751568  69.6536789  21.8053417  27.1970978
  10.0093403  56.5244942  38.1819916   9.2982569  56.5350685  37.5413055
  10.7652979  56.8689651  37.7064934  64.4342270  34.2777290  82.7772675
  63.8968124  34.9274445  83.2303543  65.1910172  34.1516991  83.3496399
  81.0433273  30.1789570  87.4944153  81.2401352  30.6963902  86.7135391
  80.2208328  30.5429440  87.8218994  80.3459473  22.1247597  27.7136116
  79.9758759  22.9682598  27.4532509  79.7493744  21.7993050  28.3877144
   0.8494419  65.9250107  12.8409586   0.2919269  65.7547760  13.6001873
   0.2595576  65.8557816  12.0903082  86.2338028  68.9315796  62.1596184
  85.8136292  68.3425217  61.5329628  85.8563995  69.7907562  61.9708977
  45.3412285  71.3737106  68.6016922  44.8669624  70.7084122  69.1003799
  45.7190018  70.8956528  67.8634644  19.2104416  56.1630020  84.2267456
  19.5338783  55.2978020  84.4778519  18.3158398  56.0058899  83.9246979
  50.6645432  50.4087639  84.5076218  49.9326324  50.3632698  85.1228256
  50.5860367  49.6122169  83.9826660  50.3136024   6.9507422  34.0532417
  50.2748528   6.9659886  35.0095367  49.4009285   7.0281825  33.7752876
  18.9515190   5.1281018  78.8280334  18.8985920   4.5889831  78.0388718
  18.0655670   5.1104922  79.1899948  53.6845818  38.2935448  19.3731728
  54.1331406  38.0849609  20.1926346  52.7686081  38.4114723  19.6248035
  66.3754196  31.5386028  65.3980865  65.4326248  31.3882008  65.4669876
  66.5229645  31.7121429  64.4683838  20.7978573  49.5338402  62.4883118
  21.1000977  49.1961746  61.6451836  19.8434772  49.4782219  62.4403801
  41.3379097   4.2652931  58.7633667  40.5244102   3.7741768  58.6482468
  41.4992828   4.2437010  59.7066193  30.6265430  42.1102180  59.7844505
  30.8633842  41.8565750  58.8923721  29.8131809  42.6049423  59.6848412
  56.7063828  48.2431793  18.2946186  56.0671616  48.5276413  18.9478512
  57.5464745  48.2738609  18.7523670   2.5924659  47.9685249  77.9342422
   2.9364522  47.0935249  78.1139069   3.1991510  48.3372078  77.2921906
  72.3404770  30.4560776  59.5404892  72.5868683  31.3535309  59.7643204
  71.5533295  30.2875557  60.0583992  58.3506966  59.6365509  19.4857883
  58.0607986  59.0369453  18.7982845  58.6198692  60.4264221  19.0168705
  74.0101166  65.6238632  52.1455345  73.5445480  64.9664459  52.6625290
  74.7065659  65.9343948  52.7241249  37.8631516  19.1697102   3.7566094
  38.4764061  19.7977829   4.1382794  38.0217171  18.3575172   4.2376833
  11.8416567  57.1774673   7.3887467  11.5535183  56.4380493   6.8535161
  11.8422909  57.9223862   6.7876444  46.5678978  44.7744789   7.8180547
  46.3922997  44.4168701   8.6884060  47.1493835  45.5179214   7.9774284
  50.0837326  69.8561020  28.4853134  50.3949242  68.9509277  28.4924850
  50.8386040  70.3711548  28.7701416  39.6789894  46.4262238  38.4949112
  38.8168106  46.4541206  38.9097595  39.4993706  46.5383644  37.5614281
  63.3194504  39.1735916  68.1506348  63.2974243  39.0996590  69.1047211
  64.1350327  39.6390800  67.9652405  82.9625015   4.0514340  10.9682684
  83.3142624   4.4036689  10.1506939  83.4772186   3.2606616  11.1294498
  71.0491028  50.0692749  75.3147125  71.1443405  49.1584091  75.5930710
  70.8638992  50.0150986  74.3771667  21.8933334  55.2630157  29.4336662
  21.5563927  55.2669106  28.5377388  21.7434254  56.1539764  29.7498112
  20.6245556  51.1820145  72.1952667  21.2177811  50.8870621  71.5043793
  20.7644310  50.5627136  72.9115982  14.8554802  18.3047543  76.7186890
  15.6920624  18.3871574  76.2609024  14.2686930  17.9068928  76.0755539
  53.7383118  68.1704483  78.2881699  54.2391014  68.8603668  77.8528976
  53.7400589  68.4199066  79.2122879  41.0647469  38.7957764  83.2911301
  41.4163780  39.5921402  83.6891174  41.8374176  38.2697067  83.0850677
  49.4137077   3.2148325  15.5922451  48.5530090   3.6039627  15.4372988
  49.4545174   2.4747591  14.9865570  12.4668388  42.2435646  27.4722137
  12.2633486  42.5981178  28.3377285  12.3533392  42.9846191  26.8770771
  12.2581196   6.5272856  25.5327587  11.3913202   6.3848000  25.1525097
  12.0861158   6.7268806  26.4529819  53.7775345  18.2995453  18.2694836
  54.7032700  18.0678730  18.1947975  53.5241089  17.9955082  19.1410160
  63.0852737   6.1068144  62.2290192  62.6292343   5.4057841  62.6946564
  62.5330124   6.2879324  61.4684677  83.4729385  11.4088821  14.5945759
  82.9400101  12.2040014  14.5970526  84.3728104  11.7234144  14.6813679
  43.8214264  51.9034042  75.0565796  44.3596191  52.4242630  74.4605255
  43.7046509  52.4627342  75.8245316  43.5477448  28.0548401  72.1579514
  43.9136658  28.2410774  73.0226212  43.6095924  28.8861942  71.6875763
  37.9193649  46.8022957  67.4476318  38.7192497  46.9604683  67.9490280
  38.1271133  46.0472908  66.8971405  51.9345360  21.0744839  28.5758095
  52.4017220  20.5164032  27.9541073  51.1697845  20.5591908  28.8324509
  41.3813591  10.1210003  45.7518501  41.8754120  10.0259304  44.9375381
  41.3151817   9.2307186  46.0971756  86.6797867  19.6381130  74.2595062
  87.4356766  20.1729946  74.0170822  85.9507904  20.0171604  73.7684708
  76.8507919   0.4975021   5.4272957  75.9191666   0.7003875   5.5117626
  76.9609909  -0.3250619   5.9042416  52.6538124  56.1324234  30.6629601
  52.9923134  55.2397118  30.7316170  53.3620872  56.6834221  30.9961014
  77.8611603  51.2890282  28.1324959  78.0388412  50.4258232  27.7589455
  76.9626160  51.4846344  27.8668194   5.3097024   5.3901448  71.4172668
   4.7556615   4.7377687  70.9886932   4.8641777   6.2227573  71.2607498
  40.3825226  42.1493034  27.9582043  40.8383942  41.4867630  28.4772911
  40.8153801  42.9719696  28.1864204  78.6798248  49.1965065  14.8607130
  78.1145248  48.8066406  15.5275545  79.4603958  49.4734688  15.3405418
  73.3886261  12.0645418   2.0159125  74.2810440  12.1335239   1.6767049
  73.4855118  12.1509905   2.9642644  36.0751152  59.8884201  28.0816898
  35.9906616  59.5227089  27.2011471  36.4489136  60.7588997  27.9446678
  83.7772903  50.7443581   6.2287688  84.6652374  50.5093536   6.4981084
  83.2102127  50.2976532   6.8573470  71.6034927  23.0496769  53.2650642
  71.8656235  23.8486767  53.7223625  70.7467880  23.2573185  52.8920021
  70.6245651   7.2382340  49.9982643  70.6443024   8.1639271  49.7555008
  69.6939163   7.0351024  50.0924034  48.8531494  37.7255669  33.4602356
  48.1420670  37.0848274  33.4670906  49.1534271  37.7404060  32.5514755
  46.7771301  27.8039131  36.4538269  46.6883087  28.0341339  35.5289803
  46.5556870  26.8734360  36.4913635  80.8439331  64.7149734  58.2713776
  80.7572937  63.9632149  57.6852226  81.6889572  64.5865784  58.7022781
  55.6618271  52.7968216  69.4856415  55.4533081  53.7219734  69.6154251
  54.9519043  52.3275337  69.9238358  63.1335068  44.2534523  47.1970901
  63.1841965  43.3591690  46.8595657  63.8910217  44.6968613  46.8152618
  37.9687653  60.4011078  76.8992004  37.5956345  61.0027351  77.5434418
  37.4173775  59.6205215  76.9529419  64.6640930  41.2489014  85.8126373
  64.2108078  41.6223412  85.0567856  64.8212280  41.9955521  86.3906097
   5.1767282  31.5242062  79.0181274   5.7440195  31.0240936  78.4313583
   4.4513144  31.8107834  78.4632645  22.2019463  68.1884460  84.8990555
  22.2285042  69.0765839  85.2550735  22.9593468  68.1415329  84.3156357
  18.3867359  47.6382103  31.3363266  19.1677971  47.9981766  31.7565651
  17.9985104  47.0684891  32.0003510  80.3143005  49.8191490  45.7906189
  80.1079788  49.6717949  44.8676071  79.7056503  50.5048332  46.0655899
  33.1536674  70.7142105  59.6740990  33.8662415  70.4021149  59.1163673
  33.2199402  71.6683502  59.6359138  81.0212708  27.8809338  17.1617031
  81.8649673  27.9054699  17.6131496  81.1967850  27.4017334  16.3518925
   8.0055485  54.5154915  14.4333000   8.7572556  54.7600594  13.8935280
   7.4766035  55.3117714  14.4821987  62.1734047  52.1451149  51.9472198
  62.0481873  52.9776077  51.4916916  61.2971725  51.9010735  52.2453766
  69.7268066  64.1730804  26.9175072  68.9679031  64.1723633  27.5008564
  69.3519058  64.1766357  26.0367851  75.0361328  15.5793781  28.6236248
  74.6554565  16.1763229  29.2678089  74.4810791  15.6763735  27.8498421
  13.4577351  60.7601357  32.3889732  13.9818764  60.6816559  33.1860619
  12.7472792  60.1295128  32.5064392  79.1801376   3.7041111  19.1811943
  80.0515976   3.8038516  19.5643978  78.6330948   3.4010611  19.9058552
  12.1697178  54.0875931  53.6364708  12.1704454  55.0257683  53.8263550
  11.9361629  53.6750946  54.4680519  38.3865433  56.6892586  77.8844757
  39.1428947  56.2704391  77.4736710  38.7584152  57.4111214  78.3912888
  46.2767372  56.1648140  59.8265152  46.3888969  57.0637474  59.5173721
  45.7568665  56.2495041  60.6257629   1.5204027  17.5522614  74.8192673
   0.7422419  17.9301491  74.4095078   2.2502229  18.0525589  74.4541702
  80.7493134  21.8292770  52.4946480  80.8563232  21.1520195  51.8267403
  81.4869919  21.6970844  53.0901260  48.9946442  40.9348221  30.4154453
  49.4194527  40.3485832  31.0416203  49.6693611  41.1158562  29.7610645
  27.5379238  21.5861702  81.8474655  26.7264385  21.3139172  81.4189758
  27.4835205  21.2086697  82.7253952  26.1518192  47.1305275  10.6837873
  25.6783867  47.3845139  11.4759893  25.5704021  46.5085831  10.2463274
  57.1528854  40.4592323  53.8159599  57.0706978  40.2272949  52.8909302
  56.7788467  41.3382339  53.8766365  25.2384052  62.4575233  49.3219070
  25.7351437  61.6499252  49.1904945  24.3300648  62.1684990  49.4091721
  31.6982727  61.7907944  49.1969872  31.6438332  60.9781532  49.6998596
  32.1630440  61.5465202  48.3966446   1.4023044  60.3736076  74.8277206
   1.1713198  61.3020859  74.8561554   0.7676266  59.9872780  74.2242584
  74.4335175  43.2377625   8.4216328  75.1486893  42.7177811   8.7882147
  74.3023224  43.9441299   9.0541410  66.9503479  70.7040405  40.8935165
  67.3082123  70.7621994  41.7793961  66.5870819  69.8200989  40.8395004
  78.2284241  66.2067413  54.4937210  78.2883377  66.9745102  53.9252472
  78.0122299  66.5630341  55.3554344  15.3730459  65.0364227  55.3234673
  16.1237431  65.6229248  55.2302246  15.7177477  64.2797012  55.7975845
  80.7909927  24.9214497  60.7036552  81.0714188  24.8372707  61.6149788
  81.5782394  25.1995487  60.2355347  25.2019215  37.6651802   1.5243621
  25.7697868  37.8314400   0.7719538  24.4231777  38.1965523   1.3587416
  48.3851242  55.1422081  17.2691784  49.0982780  55.7554703  17.0915432
  48.8237419  54.3420563  17.5583172   5.9365578  61.9484940  79.3759537
   5.0427322  61.8168602  79.0597534   5.8708191  62.6894302  79.9783859
   9.5144548  33.3426819  67.0163345   9.9996481  33.2198792  67.8322601
  10.1787910  33.6076279  66.3801804  53.5319290  41.0737572  48.1810646
  54.1951218  40.3837509  48.1984367  53.8539619  41.6991959  47.5319443
  57.6872482  12.4420519  68.7533646  56.8669281  12.2328691  69.2000809
  57.4903450  13.2306738  68.2478561  52.5625534  15.5618019  76.9260712
  52.2888260  15.7586317  76.0302124  53.1173553  16.3010693  77.1748886
  60.6064301  50.8583260  68.6965561  60.9004326  50.4236526  69.4970856
  60.7371521  51.7908401  68.8684921   3.4527929  31.4918900   2.9824920
   2.8374395  31.3489285   2.2633719   3.1132972  30.9550018   3.6985407
  45.0027657  32.5405312  22.3626995  44.3385086  33.0278854  22.8500214
  45.8091698  32.6701050  22.8618565  56.6377029  27.2923794  57.9722290
  55.8285294  27.7205067  58.2518387  57.2820549  27.5421848  58.6345291
  82.0175705  38.4332390  57.2134209  81.1442947  38.3780098  56.8253937
  81.8646240  38.7511711  58.1032257  64.9239960  21.2124805  30.0120487
  65.1841812  21.7080193  30.7885647  64.6153183  21.8770275  29.3961506
  40.8615723  47.0045853  44.7349052  40.2387276  46.3244362  44.4786034
  40.3882980  47.8256798  44.6005630  71.3951721  51.5769768  17.4251842
  71.9852829  50.9253426  17.0465298  70.5178528  51.2420959  17.2397060
  14.7899904  33.3516922  70.2831268  15.5170650  33.7433968  69.7992249
  14.5986996  32.5403137  69.8126984  51.9557686  57.7386246   4.0179834
  52.4109955  58.2240791   3.3299894  51.6840668  56.9234352   3.5962296
  37.0483055  49.4836349  20.9611645  37.3314400  50.3720360  21.1775150
  37.6317482  48.9167786  21.4656448  27.6615276  56.5525894  50.9898376
  28.2291298  57.2077751  50.5838928  27.7416668  55.7835999  50.4255142
  62.1205597  56.3108215   7.5060091  62.2516327  55.6536140   8.1894789
  61.8553810  55.8067398   6.7367153  22.8835049  42.8156815  85.9948578
  22.2969894  42.1457710  85.6435089  22.3085499  43.5521088  86.2030258
  15.2605209  70.5084763  83.5839767  16.1269779  70.1043625  83.6306229
  14.6524334  69.7695541  83.5627975  44.5645943  60.8123817  16.3211479
  43.7475357  60.5912895  15.8741980  44.3179932  61.4915924  16.9489155
  51.9013443  13.5485039   9.1992579  52.3790817  12.9389963   9.7618408
  51.9823990  13.1772642   8.3207111  40.1095352  17.3012009   2.2569644
  40.3303413  16.3703804   2.2893922  39.6927223  17.4780045   3.1003151
  84.1007156   8.1460600  72.6120300  83.7598953   8.8731976  73.1329346
  84.4484329   7.5310783  73.2578812  79.3004227  68.9423370  18.0408878
  79.3289490  69.5336609  18.7930527  79.8124847  69.3881760  17.3661652
  60.6148987  43.6242104  32.8976364  60.0135155  44.1196747  32.3416824
  61.4841652  43.9406662  32.6517334  44.1739998  29.4108925  53.7663231
  44.0334549  28.8246174  54.5098000  43.5257721  30.1054382  53.8831100
  51.2861786   0.0948375  79.5680771  50.4572754   0.0218213  80.0411682
  51.0481377   0.4836389  78.7264099  29.7179413  32.9007225   5.3926587
  29.6813469  33.2986755   4.5228720  29.9968395  31.9992504   5.2320595
  36.6442223   3.5637536  17.7887497  36.8240623   2.7644668  17.2937431
  35.9782982   3.3059819  18.4261875   3.0809474  63.4545784  51.5433578
   2.2511539  63.0063438  51.7069473   3.4737010  63.5554161  52.4104271
  48.7749672  29.4025707  25.6694221  49.1745033  30.2100716  25.3460922
  49.0785866  29.3307724  26.5743484  52.2433701  47.1132927  59.2194252
  53.0361595  47.4419136  58.7954903  51.9031448  46.4549065  58.6136131
  62.7724457  63.5285950  48.7221146  63.1013870  64.2143936  48.1409798
  63.5543137  63.1867447  49.1557655  36.6454315  46.0936050  14.1506987
  37.2563744  46.1102180  13.4140158  36.0820084  46.8548508  14.0118141
  40.2063751  58.9177437  76.0912476  39.4011955  59.4281311  76.1774445
  40.6407471  59.0106125  76.9391403  47.6996460  39.8399849   4.3971486
  48.4564743  39.3226852   4.1217489  47.8446541  39.9987526   5.3298855
  32.9646606  68.9794464  69.5324936  33.5828972  68.2540817  69.6211853
  32.6952629  68.9536362  68.6143494   8.1517267  62.3548393  50.4703140
   8.2892542  63.1559639  49.9648247   7.2002115  62.2710724  50.5322227
  81.5134354  49.4388695   7.4063702  80.7530289  49.5021095   7.9843102
  81.2418213  48.8307762   6.7188530  72.1194534   7.7088037  87.0848312
  71.5543365   8.4116831  86.7641525  71.5531998   6.9373746  87.1067810
   5.8631582  66.1541290  67.3114624   6.6434655  66.5677490  67.6806030
   6.0055547  65.2163696  67.4401627  42.9817085  31.3454208  27.9851379
  43.8092346  31.6231155  27.5922985  42.6208916  30.7142563  27.3625050
  83.8578033   1.5396215  15.0818367  83.7346420   2.4274755  14.7460117
  83.8880768   1.6452626  16.0327072  27.1448059  13.7879562   6.9872308
  28.0642643  13.7218885   7.2450347  26.6739101  13.9171715   7.8105121
  58.1648674  25.0970821  61.2383881  58.4919472  24.9336643  62.1230049
  57.2205734  24.9538822  61.3019180  59.0227814  52.1007614   9.8224163
  58.3285370  51.6247559  10.2781353  58.9743080  51.7881699   8.9189949
  46.1157227  61.2186890  34.5501900  46.1320343  62.0491142  34.0744209
  45.9854393  60.5563545  33.8715363  83.1977921  69.1215744  72.3585358
  82.9706345  68.9696503  73.2759018  82.4250031  68.8376617  71.8702469
  49.4763107  53.3795433  66.2738113  49.4239578  52.7439804  66.9876404
  50.4128189  53.5498924  66.1729965  86.1034317  35.0785713  27.8919430
  85.8757629  34.1775208  27.6628094  86.5299454  35.0080681  28.7459621
  23.6027622  66.5175552  12.2413921  23.9634056  65.8939896  11.6110506
  23.3651505  65.9823761  12.9985895  48.1921692  58.3840752  25.9018154
  48.3373718  59.3088646  26.1016102  48.1586876  57.9565430  26.7575760
  52.4735069  32.3746185  72.3231125  53.0114899  32.7230225  73.0340347
  51.8913231  31.7456818  72.7494125  31.2046375  55.6224594  40.4749374
  30.9554405  55.2357559  41.3143387  30.3738461  55.8710518  40.0696983
  58.9775696  40.5528297  11.1020851  59.2537193  39.8087883  11.6372252
  59.6159439  41.2386818  11.2978325  34.2190781  26.4950790  10.6927319
  33.4032707  26.8148174  11.0780287  34.0530472  25.5694275  10.5143108
  41.6899223  67.8607407  62.1371727  41.2239761  68.5470581  62.6147652
  41.1009483  67.6258011  61.4201355  53.7838554  26.8182564  25.2913246
  53.9880409  26.6889610  26.2175140  54.6272736  27.0196781  24.8859749
  40.4099274   2.5938039  73.2232132  40.5751801   3.0870814  72.4197235
  40.8255768   3.1121576  73.9122543  37.8144493  12.1149282   9.5894861
  37.8382072  13.0663776   9.6915169  37.8663712  11.9740486   8.6441355
  68.5020905  51.9892769  18.0139961  68.2700043  52.9072418  18.1543980
  68.5543213  51.6180267  18.8947220  72.5335464  54.1345940  27.9884720
  72.5844345  53.8061104  27.0908413  71.7746658  53.6882973  28.3641777
  80.8059158   3.1836026  68.5168304  80.4136963   3.4288142  69.3548431
  81.6645660   3.6066079  68.5213547  63.8684578  21.0772514  26.2375927
  63.6097527  20.1563568  26.2021599  64.8173523  21.0548725  26.3613892
  10.1460981  70.8634949  14.9947586   9.7663298  70.4563141  15.7733545
  11.0714741  70.6205521  15.0246153  25.9691792  41.4763565  19.6838894
  25.7482529  40.7770615  19.0687370  25.4076786  41.3146629  20.4420471
  60.1376038   9.6223440   7.2096076  59.5233917   9.5668955   6.4775558
  60.9021072  10.0702095   6.8474178  26.8070488  29.7469254  82.3509598
  25.8874779  29.4868813  82.2962189  27.2690468  28.9440498  82.5921707
  68.8954468   1.3754116  33.3285141  69.1302414   1.9551337  32.6039276
  68.9155655   1.9387366  34.1021347  45.4750519  40.8772392  29.5722523
  46.2582130  41.2546959  29.1717281  45.8118095  40.2777481  30.2381611
  54.5337639  39.5785141  51.3248825  54.6257935  39.7188530  52.2672539
  53.9194908  40.2554131  51.0407867  55.0590744  62.1752434  46.3934669
  55.8092651  62.7672882  46.4476204  54.3026352  62.7287521  46.5875168
  10.7373562  58.7504120  51.0264893  10.6017275  58.5902138  50.0925903
  11.6644640  58.5603485  51.1699409  63.3260918  45.2722282  20.8060532
  62.7448349  44.8193703  20.1950760  62.7361755  45.6822281  21.4386158
  82.1485901  13.0247650  19.5769062  82.2532120  13.6767769  20.2698479
  82.9302521  13.1251202  19.0336113  15.7681675  13.8911743  23.1156368
  16.3275223  14.1486320  22.3827877  15.7058144  12.9385347  23.0462074
   4.8557849  27.0771561  23.8679504   4.1847334  27.0349331  23.1866722
   4.4621515  27.6095734  24.5591927  33.2619858   9.8480148  12.7737808
  33.8545265   9.3733768  12.1908169  32.6649094   9.1776514  13.1059589
  26.4170990  50.3672104  14.9722652  26.0371647  49.7712288  15.6177759
  27.2266998  49.9372902  14.6966820  79.1224442  53.9895706  70.8342056
  78.2185974  53.8526688  70.5503845  79.1409378  54.8941193  71.1467590
   9.7214251  34.3196793  53.9558411   9.1502256  34.3778992  54.7217216
  10.5639687  34.0312653  54.3067970   7.6134443  51.6994362  47.4991722
   6.6697636  51.5790939  47.6050797   7.9056444  50.9108582  47.0420113
  55.9257698  63.5289879  52.7508507  55.0679703  63.1116447  52.8298378
  56.2640076  63.2237854  51.9090195   2.6954408  16.8327026  69.5493164
   2.9534485  17.5679417  70.1052704   3.5085313  16.5541573  69.1279755
  25.8539639  16.8134670  80.2383270  25.0874615  17.3309402  80.4851685
  26.5590172  17.4552803  80.1534271  84.6917191  17.2116070  36.8434906
  83.9229584  17.1180058  37.4060516  84.4896011  16.6826515  36.0717468
  33.9029770   8.1878576  81.5550156  33.7382393   8.8349600  80.8691940
  33.1134109   7.6468978  81.5685349  29.0864029  68.2042236  17.2821598
  29.7577515  68.8836517  17.3446388  29.1655521  67.7133636  18.1000996
  21.0731621   5.0211797  19.4976025  20.7975006   4.6061664  20.3149185
  21.6209641   5.7555685  19.7747631   8.3206854   3.1034374  59.5464897
   8.1734610   2.5869901  60.3388519   8.0822554   2.5155733  58.8296928
   1.7375048  50.4197693  16.1745243   2.3610096  50.5634232  16.8864498
   1.3902006  49.5421295  16.3337536  23.4763985  17.8299637  80.9621429
  22.8456173  18.2041798  80.3470764  23.3359985  18.3161221  81.7746506
  84.0904846   3.8792124  13.7050743  84.8863754   3.8377163  13.1749210
  83.3868561   4.0152903  13.0705471  18.8695869  45.5739937  38.0792809
  19.8157310  45.7175064  38.0581093  18.7519703  44.8410797  38.6836281
  49.7508659  24.9165306  49.9805260  49.0983925  25.4715118  49.5533142
  49.2703552  24.1248569  50.2225952  39.3433876  60.0288353  45.1520233
  40.2631187  59.7953949  45.2778511  39.3448181  60.9841423  45.0918922
  45.5860634  47.6991539  84.2491760  44.9089851  48.0112190  83.6488342
  46.0324707  48.4940796  84.5408020  80.2762299   7.4207964  85.5927811
  80.8595505   7.9249158  85.0254822  79.5441742   8.0117121  85.7692795
  23.6809044  45.5501518  51.0947533  24.1818180  45.2902946  50.3215828
  23.3444271  44.7273788  51.4498062  18.4669971  59.5150948  45.2374763
  18.4705658  58.9590988  46.0166359  17.5527973  59.5242386  44.9539490
  68.2966156  45.3605042   7.2392621  68.3145905  45.8297997   8.0733309
  68.8209991  44.5750237   7.3950453  58.7998047  17.0174007  54.0903168
  59.0649033  16.0988102  54.1366310  59.3191795  17.4510078  54.7674141
  46.2156906  19.9701519   2.1379416  46.2714882  20.4672489   2.9540379
  45.3557320  20.1918297   1.7807848   9.9461889  23.6612034  79.3994370
  10.7427778  23.1387939  79.4930725  10.0108204  24.0416031  78.5234528
  47.2218361  60.9580994  57.9033852  46.8168564  61.5826416  57.3015747
  48.1469154  60.9539719  57.6575317  11.0729809  25.5611610  12.9938459
  11.8846159  26.0681057  13.0159197  10.9814177  25.2168331  13.8822632
  34.8407249  59.1569862  78.2424240  35.0930367  60.0790138  78.2917862
  35.2418213  58.8419380  77.4324265   8.8336687  54.1208649  46.9711342
   8.6097326  53.1962547  47.0768509   7.9886751  54.5679550  46.9228745
  54.6346970  54.7295341  78.1464539  54.8892632  54.9276772  79.0476608
  54.8339691  53.7993469  78.0402832  64.4659882  37.1676521  52.2769470
  64.9332657  37.9698257  52.5101852  64.0850906  37.3532906  51.4186401
  63.7571526  12.5663233  44.6639519  64.0026169  13.3956003  44.2537346
  64.2394028  12.5560989  45.4907303  25.1143913  40.0472488  87.9994049
  25.8880444  40.1526642  88.5531006  24.8172035  40.9413071  87.8303757
  49.6665535  58.8642044  81.8197784  50.4426651  59.4230309  81.7798233
  49.8967056  58.1791916  82.4474869   0.7378886   6.3517966  15.8445177
   0.6593077   7.1738892  15.3605547   1.2743003   5.7930884  15.2820778
   2.4322031  42.7078781  47.2382317   1.5003053  42.7849083  47.4428444
   2.5924585  41.7648621  47.2026596  71.7689896  12.1660967  75.5086136
  71.4369202  11.5721931  74.8353806  71.7178802  11.6609001  76.3200302
  35.0219383  62.5253830  88.3370667  35.1367188  62.6866035  87.4005508
  34.2212830  62.0039024  88.3939667  18.8289509  47.0564690  41.7290268
  18.9847813  46.1862640  41.3620224  17.9513950  47.0031357  42.1075554
  81.6773758  67.7344055   2.3233762  81.4036713  67.3263245   1.5019248
  82.5515060  67.3803940   2.4870760  44.8987732  59.1730385  13.4599304
  43.9696770  59.2882805  13.2605877  44.9083595  58.6784897  14.2794199
  36.4058456  28.4991436  18.0278282  35.9490738  28.8687229  18.7834759
  36.4865494  29.2304573  17.4155369  53.3072319  33.3992043  38.9944382
  53.0080719  32.5109100  39.1885262  53.5831261  33.3642578  38.0785294
  12.2618494  61.2627869  85.5619202  12.0075808  60.4450035  85.1343536
  13.1963406  61.3507042  85.3742294  72.7399979   0.7029849  37.7602730
  72.8391571   0.8385727  36.8179283  72.1575012   1.4077018  38.0436668
  48.5964508  36.0586090  36.5136948  48.0400696  35.6428108  35.8550720
  49.3867340  35.5189438  36.5348816  27.1028137  52.9328842  11.5693054
  27.8028278  53.5857315  11.5708265  27.2838860  52.3893433  10.8024874
  61.7789612   4.4771771  12.9660807  61.3850975   4.5375109  12.0957565
  62.6195221   4.0435138  12.8190432  68.9757614  70.1374435   4.7788219
  68.9057617  69.7333755   5.6437268  69.8726120  70.4698563   4.7416291
   8.3952656  32.9751282  83.8476791   8.5487223  33.8179855  83.4207382
   8.7450819  33.0871658  84.7315903  77.3379135  29.1697922   2.6702681
  76.5190506  28.6756878   2.7097859  77.8803101  28.7901726   3.3615861
  29.1071129  55.4811783  31.7606850  29.1535683  55.1032867  32.6389046
  28.4054546  54.9950523  31.3275719  74.9284363  15.8256350  14.6209812
  74.9336777  16.2229729  13.7501621  75.8428650  15.5946598  14.7843714
  35.0639725  39.3978500  69.0255356  35.4765892  38.8093605  68.3933487
  35.6983147  40.1048012  69.1441193  84.9969711  67.1466751  13.7577333
  85.4755478  67.7283936  14.3483181  84.3820877  66.6820679  14.3254433
  28.0383892  33.1317406  74.7755890  28.1357384  32.2022820  74.9826202
  27.5066700  33.4819221  75.4903412  18.2174587  60.4895515  15.9627485
  17.9433384  60.2055969  16.8347931  17.8187046  61.3531303  15.8556995
  34.5744400  64.1622086  32.9706306  33.8921814  64.7808380  33.2314949
  34.3729973  63.9541779  32.0582809  80.9804535  58.5875168  58.9577637
  81.2524872  57.8654251  59.5241661  80.2742386  59.0173645  59.4401779
  68.9724197  39.9251671   9.7841368  68.1696396  40.4284134   9.9202070
  68.8315048  39.4691505   8.9544249  39.2352943   1.1252078  62.9469910
  38.9194946   1.2422606  62.0510025  39.9917450   1.7080803  63.0123978
  25.1899033  25.1756477  18.9834671  24.7947750  25.8552322  18.4373283
  26.1324234  25.3226986  18.9043236  84.1848068  43.3995438  64.5979385
  83.6380081  43.8624649  65.2327118  83.5614471  42.9455872  64.0308609
  74.9417038  70.3093719  72.6640472  75.0937347  70.8232193  73.4571915
  74.0919571  69.8928299  72.8077316  56.6616096  60.5252724  51.7402267
  56.3483925  59.7209816  51.3264084  56.5493622  61.1990471  51.0696564
  71.2297516  34.6894341  19.0876961  71.0328827  33.8890495  19.5743809
  72.1710739  34.6426582  18.9204826  65.5283966  56.3100739  78.5328293
  65.2827606  57.2136803  78.7313232  66.4839935  56.3276482  78.4803543
  16.7347527  41.6743164  32.7913780  17.3055286  41.7520294  32.0269127
  15.9602976  41.2151680  32.4663658  37.8905258  55.9246101  81.4423141
  37.3849220  55.1383514  81.2364273  38.8039551  55.6477509  81.3700027
  76.1726532  45.9452209  25.2091579  75.3190842  45.6154480  25.4900455
  75.9700165  46.7260017  24.6938381  52.4996834  60.1332550  83.4066925
  53.3624496  60.0671501  82.9974289  52.3514977  61.0740471  83.5025253
   0.4432828  68.0317917  54.9865837   0.4222752  68.4082260  54.1067581
  -0.2644922  68.4755173  55.4539070  38.3512764  13.6922474  18.7700691
  38.2963181  14.3897657  19.4232769  38.9941635  14.0086012  18.1353664
  46.0941277   0.0334928  78.1231995  46.1964874   0.9376780  78.4201889
  46.0569572   0.0976051  77.1688690  56.1140137   0.5840941  65.1090393
  56.4433594   1.4544939  65.3330231  55.2191048   0.5719681  65.4484863
   4.9301524   3.2551036  26.1004772   5.3163662   3.6473460  26.8835583
   4.2785139   3.8930409  25.8095570  13.9402046   0.8114628  61.9723282
  14.1662054   1.4120545  61.2620850  13.7197847  -0.0089507  61.5312271
  33.3368988   4.9589972  20.4636879  32.7593765   4.1964741  20.4991932
  33.8729324   4.8173437  19.6834106  34.9047852  32.7015190  63.2392006
  34.8171577  33.5980225  62.9154167  34.8604469  32.7854576  64.1916809
  79.4068985  48.6234398  43.1632538  78.6676865  49.1920357  43.3788795
  79.0138245  47.8865891  42.6955185  28.7334728   6.6282029  72.3398514
  29.5121346   6.0992880  72.5135269  28.1819248   6.0697651  71.7919693
  76.9985352  21.6645679  86.8416519  76.1700592  22.0605583  86.5713730
  77.6667786  22.1617393  86.3699493  11.4257765  28.7043152  64.5088882
  11.8433542  28.1461735  63.8528862  10.6095352  28.2525692  64.7231522
   8.4668713  56.6049919  72.6076660   8.7215900  56.2712173  73.4678650
   7.6623240  57.0973740  72.7704391  59.2412148  40.7080154  82.5968246
  58.3838806  40.4566078  82.2532959  59.7186356  39.8822632  82.6770325
  23.6452675  47.3166542  74.8217621  23.4811420  46.3904839  74.9992599
  24.2018242  47.6042633  75.5454712  55.9882965  50.5359154   0.9931883
  56.2841454  49.8112030   1.5440940  56.7178230  50.6947365   0.3941903
  64.3946152   5.8415108   4.7486019  63.7738304   5.8031287   4.0210161
  64.3203430   4.9863524   5.1721816   9.6424341  62.1154480  69.9080582
  10.5536537  62.2097473  70.1855774   9.6914501  61.6244011  69.0878754
  10.8603354  45.0520630  47.0866127  10.9331160  45.6043854  47.8649940
   9.9221735  45.0257187  46.8984909  50.4914284   0.6250101  87.3962479
  51.2012291   0.5106791  86.7643127  49.9302635   1.2958907  87.0073471
  10.2313766  40.6820412  78.9534378   9.8100662  40.3304787  79.7377472
   9.9998760  41.6108246  78.9530945  47.1614838  68.8206329  83.6360779
  47.7726936  69.4375687  84.0386276  47.5325661  68.6456680  82.7712555
  55.4632950  46.2450714  60.1054077  54.6696243  46.5069695  60.5720215
  55.4857445  45.2916527  60.1874008  33.4570465  69.4788589  53.2944756
  33.8609161  68.6853485  52.9431152  32.5348434  69.4074860  53.0481377
  36.5181046  33.7759323  76.4335785  36.6824684  33.7367668  75.4914093
  35.5819817  33.5963364  76.5210648  49.2655334   6.0692143  39.9178238
  48.8395882   6.6039062  39.2478142  49.9830246   5.6344657  39.4569206
  40.2739182  34.0722389   4.5534558  40.1249237  34.7995071   5.1577034
  40.9155464  34.4083595   3.9277015  43.2677994  53.7617340  17.1660385
  42.8869400  54.6370926  17.0958405  42.5398636  53.1682892  16.9811954
  62.4900322  61.4716682  16.4896526  62.0394440  62.2353897  16.1291924
  63.2532539  61.3547592  15.9239187  34.6527252  42.5451813  24.2244606
  34.2402191  41.7033348  24.4177723  35.5353813  42.4681892  24.5867081
  51.1403542  11.0815029  68.2588577  50.4693146  10.8101168  67.6325302
  50.6646957  11.5943222  68.9123077  16.5418301  58.2278748  18.8259087
  16.8220234  57.3687782  18.5101986  15.5866776  58.1725044  18.8550568
  80.7651291  61.5173149  65.7535019  80.5604324  61.0398026  64.9495697
  81.1398621  62.3448105  65.4517517  13.7616043  54.2999191  67.5892334
  13.8510056  54.3041649  66.6362228  13.4802570  53.4094734  67.7994308
   5.6638632  71.5211334  58.0683670   5.8360496  71.4437103  59.0067673
   5.5782957  70.6172562  57.7651825  85.0058441  65.7656631  79.6259155
  84.6251602  65.0875854  79.0677719  85.8611908  65.9449768  79.2354431
  37.9865303  64.3352509  59.9169235  37.6920624  64.1032944  59.0361748
  38.8666916  63.9644508  59.9806099  43.3895721  11.5438547  79.9269180
  42.7540665  11.5953741  80.6408615  44.1034584  11.0126085  80.2795944
   4.2312188  27.1328316   2.5971484   3.7709928  27.9690151   2.5249035
   3.8756318  26.6014042   1.8848461  41.0048714  20.8095551  -0.0181328
  41.6451073  21.3647232  -0.4632388  40.7919846  21.2856369   0.7845249
  74.3427505  15.0592785  84.6031723  73.7308578  15.3297586  83.9185867
  74.9411621  14.4546814  84.1643219  11.0562201  48.9003448  70.2255249
  11.4659214  49.7653999  70.2329254  11.7343407  48.3170700  69.8846817
   3.2933135  57.2888451  83.0315857   2.4719210  57.2189140  83.5180588
   3.9435470  57.5269585  83.6924362  15.7887545  54.8528671  59.5046539
  16.2767601  54.9591484  58.6880836  15.6190395  53.9125557  59.5615997
  49.2093010  29.7200012  30.9442291  48.3281822  29.3579655  30.8504524
  49.2926216  29.9083366  31.8790112  62.1302223  24.8960648  49.8549995
  61.8168945  24.3285465  50.5592575  62.8760414  24.4258327  49.4823494
  31.1687012  57.1048431  10.2384071  30.3893909  57.5103722   9.8583336
  31.5280781  57.7749939  10.8197670  41.8833008  29.6752548  43.3270073
  41.8948975  29.7084560  44.2835617  41.1240501  30.2024002  43.0782433
  78.5904388  32.5727425  23.7755756  78.6871033  31.6406116  23.5805798
  78.8311234  33.0140572  22.9609947  28.4342613  58.4189911  30.6769333
  29.2872829  58.4128456  31.1111565  28.5963631  58.0142746  29.8247833
  84.5960541  16.7499199  61.6791954  84.9125214  17.6021042  61.3794212
  83.7862549  16.6090736  61.1886711  58.2078629  39.3865089  15.6806812
  57.9752846  39.9527855  16.4165268  57.8839264  39.8512268  14.9091024
  20.6818352   0.3025089  18.0634346  20.8922482  -0.2207539  17.2900295
  21.4216862   0.9029096  18.1549339  47.2788010  68.8298187   6.2842374
  46.8340225  68.5770035   7.0932431  46.7034683  69.4849854   5.8892870
  86.2625427   5.8876457  46.7041893  86.2301102   5.4091725  47.5325890
  85.4471054   5.6541033  46.2606239  77.2980042  69.9620514  24.5628796
  76.7651062  70.0621262  25.3516998  77.5280151  70.8572693  24.3140583
  28.8066101  54.1151924  77.4193268  29.5796509  54.1428566  77.9831314
  29.1539211  54.2062912  76.5320206  33.0745163  32.7334213   5.8795753
  32.6931381  32.6719170   5.0037904  32.7149429  31.9817829   6.3507223
   7.4835315   2.8655672  80.6779709   7.1592832   3.6150899  80.1786575
   8.4285059   2.8669076  80.5254822  17.5894585  16.6858826  -0.0442115
  18.2258472  17.1842537   0.4684955  16.8230095  17.2570114  -0.0951869
   6.8713703  47.0231552   5.6838245   6.1543188  47.4259720   6.1735249
   7.0562668  46.2106018   6.1547866  74.2797928  51.2641640  22.9935284
  73.8735886  51.2670784  22.1268005  75.2057343  51.4383926  22.8246689
  48.1054611  51.2149811  38.5671349  47.3308983  51.6565514  38.2188530
  47.7566071  50.4705467  39.0573921  30.8423786  22.9024181   9.2136087
  29.9988232  22.5358524   9.4787025  30.9578094  22.6086941   8.3099308
   1.1653847  33.6898689  70.3960571   1.6484616  34.3208809  69.8624878
   1.1062372  34.1010208  71.2584305  46.0726318  70.2435303  38.3075829
  45.7163086  70.8570938  38.9500809  46.0933304  69.4029388  38.7649689
   2.5737062  68.9057236   2.4535697   2.5389824  69.8601837   2.3900774
   2.0907724  68.7012253   3.2543106  37.5587196  49.5185661   9.4043207
  37.8243484  50.2850609   8.8962250  37.0900002  48.9668159   8.7781401
  80.7471466  36.8807487  16.8490562  80.0047150  36.9083786  16.2455101
  81.2994766  37.6158981  16.5831318  75.5390244   8.4267302   4.9835033
  75.2285690   8.6506691   4.1061769  76.1043625   9.1582527   5.2314901
  26.2352219  53.0465965  20.3871098  26.1320934  53.2648430  21.3133736
  25.4628296  53.4227028  19.9649849   4.8177276  26.1312790  10.5231333
   4.3425393  25.4616394  10.0311861   5.7078800  26.0994644  10.1726360
  52.6610069  17.8838577   6.2896252  52.1017303  17.2585754   5.8286867
  52.6266785  17.6063671   7.2050776  52.8702202  59.7175941  72.0132065
  52.5261536  59.4097557  72.8517075  53.8199959  59.6355705  72.0994034
   7.3576760  41.0098457  30.8858528   6.5975657  41.2453194  31.4178467
   7.1523681  41.3451805  30.0131378  51.4969749   6.3758678  25.0618610
  51.5128288   5.7005153  25.7400055  50.5673485   6.5041127  24.8732414
  81.5051117  24.9000607  78.6100922  81.2735443  24.3407211  79.3515396
  82.4608307  24.8632812  78.5716324  56.7211685  29.4853401  34.6670151
  57.0047684  28.5751152  34.7524338  57.3706322  29.8852921  34.0886803
  73.4171906   9.5694828  65.3681488  74.0887680   9.2084274  65.9468155
  73.0333405  10.2904320  65.8672714  16.3122826  46.2813263   6.2172542
  16.9505978  46.9935303   6.2566171  16.8220062  45.4923897   6.4016271
  76.5307388  28.0501328  18.9335861  76.4916687  27.1047592  18.7887554
  77.4447174  28.2199154  19.1617336  18.1878872  61.6842194  35.2511292
  18.0811253  60.8235245  34.8461151  17.5379696  61.7006111  35.9536743
  80.9565277  12.4847612  33.0177841  80.4616241  11.9176207  33.6091003
  81.8253937  12.5448389  33.4148979  81.0288925  59.7174110  75.6404419
  80.7081299  60.0982819  74.8229599  80.3485794  59.9205017  76.2824478
  72.9472198  19.3757515  37.5773392  73.2761459  18.4841137  37.4632263
  72.1881561  19.4271927  36.9964676  53.1017570  59.7575417  27.7669048
  53.1045151  60.4250183  28.4529800  53.9829254  59.3845215  27.7921066
  47.7926369  54.6164589  23.3020802  48.7063141  54.7808685  23.0688591
  47.7347450  53.6648369  23.3874702  70.4628067   7.9399815   2.6776464
  71.1270447   7.3990149   3.1046989  70.9549332   8.6670990   2.2964122
  50.8789864  46.5638504  11.7482004  50.1366386  46.5151215  12.3505106
  51.0811996  45.6510468  11.5429420  84.5687866  21.4550533  26.0628948
  85.2675323  21.0287094  26.5591049  83.8534851  21.5520992  26.6915112
  81.8085098  28.8955288  36.2487068  81.8353653  28.5853271  35.3435631
  82.5678406  28.4871445  36.6644821  83.2809982  63.7005577  58.8196373
  84.0977859  64.1931992  58.7396965  83.4477158  62.8827248  58.3510361
  16.0849590  36.9079056  26.4747143  16.3519554  36.4802017  27.2883549
  16.9051476  37.2017784  26.0782776  48.4866982  68.5510864  80.8450012
  48.8623238  69.3798447  81.1421432  47.7521896  68.8073349  80.2872696
  64.6815796  12.8042889  62.9408035  64.4665375  11.8836250  62.7912445
  64.9112167  13.1404028  62.0744743  78.4702225  16.7906399  77.7322540
  78.7173996  16.4124107  76.8884048  78.5025024  17.7365704  77.5894089
  62.0707970  54.8286858  57.5661850  61.5347214  54.0562439  57.3867760
  61.7808762  55.1264153  58.4284706  49.9796486  27.2233086  27.6346607
  50.7806587  27.4574146  27.1658230  50.2864571  26.8368034  28.4548512
  86.6385193  43.0341949  65.8540573  86.8304749  43.9269180  66.1411743
  85.8059082  43.1064987  65.3874054  35.4467430  43.3799515  14.3623724
  35.7123985  44.2992249  14.3867931  36.2672462  42.8916473  14.4299307
  85.8273010   3.7641678  19.8587170  86.2921371   4.3112712  19.2255993
  85.1967087   4.3558717  20.2691650  21.8234367  14.9333534  43.2964630
  22.7484455  15.1626863  43.3858871  21.8277454  14.0996895  42.8261223
  84.5013199  60.8778915  40.0113602  83.9226913  61.6300430  39.8861122
  84.5596390  60.7761421  40.9613495  61.8412743  12.0286951  87.6022339
  62.4440231  11.3211269  87.3736038  62.2301140  12.4333916  88.3776398
  51.5503922   1.1517460  71.1145172  51.2524910   0.2982866  71.4293060
  50.8597145   1.4416414  70.5185623  25.3031807  68.2590332  13.3720789
  24.6376019  67.7378769  12.9230452  25.0265694  68.2626648  14.2884331
  69.5487137  40.6815300  20.5668755  70.2611694  40.1158371  20.8645992
  68.7542343  40.2556839  20.8888836  78.4986725  68.5408478   1.8627434
  79.4051056  68.4561539   1.5670458  78.5466995  68.4419556   2.8136094
  30.9135818  58.0927353  32.3844299  31.1637535  57.4389763  33.0373077
  30.5908394  58.8330421  32.8982544  28.1188450   6.7621632  78.2156525
  28.9751892   6.3368545  78.2605820  27.5162830   6.0615907  77.9659500
  62.2584686  18.8024788  40.4393845  61.4960976  19.1855049  40.8733368
  63.0082855  19.1459026  40.9252472  47.8896294  63.9643288  24.1722851
  48.3949585  63.5097809  23.4982929  47.7933922  64.8563461  23.8386993
  28.3546600  21.9574070   9.1690159  27.8703899  22.3805103   8.4600048
  27.8888226  22.2153072   9.9644489  23.9212856  26.1035919   6.5812173
  23.4878845  25.5709209   7.2480440  23.6564102  25.7092209   5.7502270
   4.5157833  16.5859051  31.5714760   4.9114408  16.6307621  32.4419212
   3.8304539  17.2540131  31.5851765   9.1237011  68.5221863  41.5203590
   9.2599745  67.6828690  41.9599075   9.6263552  68.4519424  40.7087975
  67.3717499  58.4990997  31.3636646  68.2935257  58.3087540  31.1894817
  67.3741913  58.9360123  32.2153282  60.1884842   3.6560831  35.5344620
  60.5153847   4.1287990  36.2999077  60.7362480   2.8726804  35.4848175
  56.3173523  26.2183628  30.1471615  55.7000198  26.2137032  30.8786736
  56.3938179  27.1410427  29.9041634   7.6903334  31.1967068  58.3334961
   7.5727310  30.6151295  59.0846100   7.1948214  31.9837074  58.5600510
  70.9515915  64.6450119  74.4025879  70.9310150  63.7227402  74.1471863
  71.8168182  64.7659760  74.7937241  45.5928421  35.4992256  72.6939621
  45.9893188  36.3094864  72.3737869  45.3951416  34.9999161  71.9016037
  43.3040237  56.1117821  23.1444607  43.5000534  56.9494286  23.5641689
  43.3610344  56.2946548  22.2066231  86.0414810  12.1240807  42.7965355
  85.1766815  12.4858046  42.9902153  86.1841431  12.3264265  41.8719063
   0.7797633  25.4877110  46.3917580   0.1201255  26.0229111  45.9505463
   0.3934004  24.6126842  46.4275818  64.5320587  56.5228119  45.0082283
  65.4388275  56.8153343  44.9163857  64.2347412  56.3786621  44.1098633
  42.9725380  56.6877213  20.5537605  43.2411041  55.8414879  20.1959991
  43.1108513  57.3059120  19.8361683  38.6020393   3.1325250  58.7500458
  37.8562851   2.5362713  58.8176079  38.4692802   3.5889344  57.9192047
  69.1290436  10.5903444  35.3204575  69.9552841  11.0729704  35.3456879
  69.1536407  10.0325680  36.0979614   1.7334946  39.0211983  63.9940109
   1.1435180  39.7566147  64.1593094   1.5150880  38.7334785  63.1075897
  49.1993790  59.8213425   9.6942759  48.3158722  60.1741943   9.7998486
  49.5099678  59.6816330  10.5888424  23.8761959  54.7842827  59.2838516
  24.7204742  54.5619354  59.6762695  23.3824253  55.1940536  59.9941406
  65.6650467  68.7401733  73.6627579  65.8841934  69.5966644  73.2958374
  65.1862564  68.2953873  72.9633636  73.1682053  29.5069065  29.1283398
  73.1455917  30.3848724  28.7476902  74.0015564  29.4708099  29.5978661
  74.0934677  11.2190752   7.4228249  74.3657990  10.3681374   7.7662959
  74.9128494  11.6604338   7.1991172  28.1399403  67.5402679  51.7116508
  28.3633137  68.1210403  52.4389992  28.5954323  66.7220612  51.9098816
   8.2001581  21.4990425   1.0436682   7.5373888  21.7992725   0.4217109
   8.8273973  22.2204685   1.0921270  70.1213608  13.9163017   2.3076172
  70.8009415  13.5110798   2.8463178  69.8455887  14.6844473   2.8077486
  44.2972374  29.9305286  15.0020056  44.1111870  30.4406204  14.2137012
  44.3610878  29.0268288  14.6930027  65.4441376  50.6333427  75.0096054
  65.7332993  49.7254829  75.1013412  65.2552261  50.9161072  75.9043655
  71.3876038  54.5691414  85.1480331  71.9343491  53.8677673  84.7939529
  71.7783966  55.3732643  84.8061295  61.1092644  19.8029671  65.9197998
  61.1186981  19.6598625  64.9734039  61.7597466  20.4900818  66.0646286
  50.1471443  13.1285849  22.5923653  49.3309364  13.6195841  22.6869831
  49.8772964  12.2103205  22.6066856  81.1151886  45.6215057  82.7796478
  81.5407257  45.6627388  81.9232330  81.5338058  46.3156204  83.2887650
  11.3383579   3.1907635   2.9050996  11.0581894   4.1016011   2.8150320
  10.7484322   2.8226490   3.5629070  15.5289936   5.8451548   8.6767225
  14.8903751   6.1826596   9.3048067  16.2162037   5.4575729   9.2187138
  20.0261307  21.7434120  24.3518829  19.3988686  21.5558701  23.6535988
  19.6232796  22.4537048  24.8513107  36.4147682  40.3014526  17.8947086
  36.6465912  41.1937752  18.1520939  35.7862816  40.0164680  18.5580502
   7.5868387  26.1566467  77.5363617   8.4206676  26.4857292  77.8720245
   6.9230976  26.6443787  78.0240097  48.7472992  21.6769886  23.6300449
  49.0751953  21.3561230  24.4701424  49.2442818  21.1860466  22.9756622
  30.6533985  57.3201332  23.3312683  30.0333824  56.6229744  23.5452328
  30.1042156  58.0860825  23.1640682  78.3467178  45.9068604  75.4358215
  77.9549332  46.6297989  75.9258194  77.6629486  45.6337318  74.8241882
  37.3330116  48.3192863  57.3311691  38.0824471  48.7109375  57.7797127
  37.0705528  47.5911522  57.8943481  71.2589874  21.4001980  70.9518127
  71.0418625  20.4897060  71.1520386  70.4755707  21.7444973  70.5229187
  26.3861141  55.6289978  41.4591331  25.9785061  56.4909286  41.5437508
  27.1296883  55.7721329  40.8736038  53.6050797   8.1581173   4.9651022
  53.2747841   8.9531927   4.5467849  52.8269730   7.6169591   5.0989890
  55.4646530  42.2593346  39.7676926  55.0248108  43.1087036  39.7310791
  54.8613129  41.6979713  40.2546082  42.8964920  32.0000687  16.6036949
  42.4756241  32.6055145  15.9933376  43.0124397  31.1943398  16.1001186
  27.4005623  12.8028803  85.4841537  26.9539776  13.3843927  84.8688202
  28.2476387  13.2214241  85.6374969  27.0547123  45.5824356  34.3233376
  27.8225136  45.5598068  33.7521973  27.3074741  46.1625290  35.0415573
  42.4461365  60.8694496  85.0629272  41.6625252  60.7843781  85.6060104
  42.3265572  61.6975441  84.5979614   3.0829954  68.3583679  83.0450439
   3.4744139  69.2317963  83.0330658   2.9476509  68.1438828  82.1220551
  77.9371796  43.2646599  12.2172899  78.6707306  43.5464249  12.7638636
  77.1985245  43.7953529  12.5156021  49.3706779  27.5497570  53.6849518
  48.6773720  27.8523254  53.0984268  49.7832947  26.8254566  53.2144547
  45.7141914  68.1195679   8.4870863  45.6980934  67.1653137   8.4138231
  46.0769806  68.2869186   9.3569193  81.2427444  35.9750290  19.5662022
  81.2234192  36.4262161  18.7222328  82.1223679  35.6010818  19.6177959
  22.0339584  66.9670715  81.4256058  22.8339558  67.4107056  81.7074356
  22.3415375  66.2364731  80.8890915  86.1834335  41.7630043  43.3927422
  86.2309494  42.6707726  43.0928612  85.8796082  41.2737732  42.6281700
  72.2097168  46.2905846  78.8766174  71.6869583  45.5464211  78.5779800
  73.0466843  45.9061317  79.1372070  33.8066063   1.7291560  87.3313293
  34.5359955   1.3743768  87.8396149  33.7615662   1.1707708  86.5551758
   0.8175368  19.1280308  19.9246407   0.7097618  18.4801617  20.6209755
   1.3687835  19.8074703  20.3128681  77.2175522   7.7609892  23.0300922
  77.8144913   7.7098222  22.2835827  77.3026505   6.9117608  23.4634552
  39.1801910  43.5229492  37.4090576  39.1016426  42.7861176  36.8031311
  38.8579674  44.2758865  36.9135857  52.6068039  53.4001694  85.6916656
  53.3184319  53.2139587  86.3041534  51.8323059  53.0127220  86.0994263
  46.6884842  27.3322411  83.6644897  46.8802757  27.4800091  84.5905609
  45.7496223  27.1472778  83.6408768  22.7005997  69.4571457   9.5342808
  22.0608711  68.8729858   9.9413853  22.4973259  70.3214493   9.8919077
  75.6624222  50.4496117  81.8026047  75.7267532  51.3911705  81.9624634
  76.5690918  50.1626282  81.6938782  67.5089645  39.2122383  21.6830025
  67.9200592  38.4679794  22.1226749  67.1345367  38.8414078  20.8839283
  38.3170166  59.2397270   6.0505238  37.6841736  59.8482819   5.6692123
  37.9061050  58.3798218   5.9613676  31.1018791  11.1021118  81.1837158
  30.4558258  11.3136978  81.8575668  30.6580849  10.4722509  80.6157761
  72.5979309  71.6355591  50.0353394  72.5835037  71.9391556  50.9430008
  73.0416336  70.7882538  50.0732193  12.6740093  33.2308578  18.3486862
  12.6894007  34.1095161  18.7281036  13.3343773  33.2573662  17.6562672
  73.3264236  63.5621872  25.1820602  73.4917679  62.9383583  25.8889790
  73.9709473  63.3393593  24.5103683   3.5007310  52.3576050  44.5263786
   2.7546108  52.3324242  43.9272957   3.1996596  51.8872795  45.3037987
  58.6724586  24.5057964  73.9619751  57.7263603  24.4740067  73.8201523
  58.7826767  24.2979393  74.8898163  69.1609344  28.1281261  67.9119263
  68.5285110  27.4905052  68.2431564  68.6573639  28.6729431  67.3070908
  53.0430603  52.8322525  80.9621124  53.1347275  52.5202370  81.8623734
  52.9348450  52.0357399  80.4424133  20.3330994  52.1938248  41.8750992
  20.4268456  52.9776726  42.4164238  21.1525364  51.7156639  42.0020561
  44.3844566  35.6689720  79.8313828  45.1186523  36.2256241  80.0908508
  44.0804749  36.0434418  79.0045776   3.7207229  62.2559128  82.2608948
   3.7766697  62.8613129  83.0002213   3.4621840  61.4219742  82.6532440
  11.7134953  71.2667389  46.0246239  10.8214951  71.2529984  45.6776695
  11.9585438  70.3438873  46.0919495  52.6654816  22.9039459   0.1611880
  53.6086235  22.7619076   0.0803077  52.3902626  22.2985287   0.8496329
  74.1511459  42.8186684  83.1902847  73.8490143  41.9729347  82.8591080
  73.3965378  43.3988457  83.0893631  62.3398819  18.9269447  43.9008598
  61.9981956  18.2247849  43.3472748  63.2517548  19.0256042  43.6270256
  22.9201660  38.6043205  25.3871956  22.1831799  39.0949249  25.0233421
  22.6032696  38.2885818  26.2334328  56.2390251  43.4817924  68.4725571
  56.7091980  44.1371994  67.9571838  55.7439842  42.9786949  67.8259811
  66.6769485   0.9168603  78.9835815  67.2609863   0.7328535  78.2478714
  65.8190842   0.6089247  78.6912079  67.1952820  63.9096794  51.4832191
  67.4814835  63.0363007  51.7506714  67.3332291  64.4546280  52.2579651
  79.1721344  20.9343185   3.2413015  78.3408661  21.1398888   3.6690328
  79.8394623  21.2524643   3.8493235  10.9763727  53.9601479  45.0728836
  10.7178249  53.1346092  44.6631622  10.3732843  54.0612526  45.8092880
  82.4950943  21.9639835  37.8512001  82.2951965  21.2794743  37.2126694
  81.8200531  21.8691921  38.5231857  52.9332275  64.4861298  42.6716805
  53.6183701  63.8673134  42.9244156  53.2815666  64.9254303  41.8958549
  22.8155079  64.1370239  81.1351166  23.2524033  63.2909889  81.0372467
  22.0404301  63.9466248  81.6635437  59.7020721  69.8023758  62.9320335
  59.8395653  69.9286041  61.9932060  58.8642197  69.3433990  62.9918213
  27.1685886  53.0837479  80.6236725  27.7830429  53.8118515  80.7161331
  27.7209969  52.3020515  80.6287155  63.0592728  39.6628265  34.4439774
  62.2681427  40.0850868  34.1092529  63.3802605  39.1392632  33.7097549
  25.0283699  54.5343552  25.5368958  25.9525013  54.2877274  25.4996185
  25.0081577  55.4364700  25.2175045  70.8332748  19.1639862  26.0809631
  70.8946381  18.7359409  25.2270050  69.8993149  19.1486416  26.2900162
  80.7101440  41.4604034  57.2158546  81.3118515  41.6848335  57.9256516
  79.9963989  40.9900589  57.6466370   1.7849576   5.4934702  51.2758980
   2.1754351   4.9803238  51.9833145   2.5040963   5.6405063  50.6615257
   7.0002742  45.3843231  38.9422035   7.7144351  44.9234619  39.3824463
   6.3617330  44.7001801  38.7410965  66.9161453  53.6131058  83.8083725
  67.4631653  52.8616676  83.5796051  67.1283951  53.7939377  84.7240601
  18.2250919  29.1924992  64.2626953  18.7381077  29.9060936  63.8834457
  18.8569946  28.4850273  64.3908157   8.7634087  49.8627357   7.6829686
   7.8295927  49.8095665   7.8864188   8.9096937  49.1642838   7.0450072
  15.4009466   1.4133946  55.4113388  16.0253716   0.8373261  54.9703522
  15.9470921   2.0339077  55.8939590  33.5468674  36.3813400  69.2007980
  34.1732330  37.0610390  68.9519806  33.1843605  36.0739441  68.3699417
  30.4243488  40.5782928  54.7997360  29.5628414  40.7932587  55.1572609
  30.8451824  41.4269600  54.6622772  76.6759720  28.9888916  27.2201900
  76.0949554  29.3997746  26.5800152  76.3532562  29.2950935  28.0677338
  63.3346710   5.6461606  23.1827869  63.4793243   5.1886678  22.3545322
  64.1553726   6.1108799  23.3462315  22.9270458  17.8997402   3.8157558
  22.6309929  18.2880955   2.9924908  23.1678066  17.0026493   3.5844734
  63.9968033  35.0658112   3.7506568  63.2937317  34.4883499   4.0480814
  64.7052917  34.4721451   3.5019846  54.4157944  41.9169464  28.3454552
  53.8216629  41.2898407  27.9331741  53.8379478  42.5458641  28.7776394
  60.8174019  18.3041515  76.1864700  61.6392822  17.8391590  76.0298691
  61.0348511  19.2266502  76.0525208   7.8749948  40.5846748  68.2948532
   8.2671833  40.4766159  67.4283981   7.6755838  41.5190887  68.3526535
   2.0142050  39.4519196  12.3090496   1.5102684  38.9962616  12.9833307
   1.4007992  39.5573158  11.5818243  71.4336014  70.4369736  16.0882778
  71.5408859  70.5357819  17.0342999  72.3244629  70.4783020  15.7405872
   3.9005547  17.0285645  64.9531021   4.5226064  17.0389366  65.6805496
   4.3970375  17.3682384  64.2085495  54.0964470  41.2946663   2.7854800
  53.9329491  40.8636398   1.9466028  54.9715462  41.6717033   2.6944909
  64.1852341  64.2594681  31.2811031  64.0780487  63.3876801  31.6615334
  65.0215225  64.5707626  31.6274357  75.2507858  16.8688030  48.2291679
  74.7193527  17.6126289  47.9453773  74.6656342  16.1147823  48.1564674
  62.6234856  16.5113373  31.7141476  63.3686981  15.9311142  31.5584717
  62.8768692  17.3406448  31.3088379  69.8200607  18.8926659  71.4966431
  70.0144043  18.7675037  70.5677719  70.3809280  18.2604141  71.9459991
  26.1168556  21.7187366   2.5725439  26.3198090  22.5314636   2.1093855
  26.2153492  21.9398174   3.4986401  59.2246742   0.8780241  34.9765129
  58.7380447   1.6992640  34.9058838  59.2464714   0.6925151  35.9153099
  74.7004852  51.7627296  31.3888912  75.5399017  51.3301544  31.5454121
  74.8759613  52.6903648  31.5468159  65.6054764  14.6762562  74.2405853
  66.1334152  14.0624647  73.7299194  64.7562103  14.2440548  74.3310318
  86.0238342  22.8244915  86.1539001  85.3568878  23.4382076  85.8460541
  86.1355515  23.0371246  87.0804749  32.6121979  57.2394371   7.9451046
  32.0841103  57.0654449   8.7242603  33.3153725  56.5910835   7.9826679
  44.4946518  31.3401852  12.7095137  44.5182152  31.9460907  11.9688683
  44.9127693  30.5441933  12.3811760  29.0735493   3.2724586   9.1568193
  28.3701839   3.8939145   8.9689312  28.6267166   2.4348638   9.2793293
  36.0805855  50.6613922  16.8200397  36.7300377  50.6462898  16.1170330
  36.3996964  50.0198631  17.4547367   9.4053698  60.4816322  77.8486633
  10.2842770  60.6443214  77.5061951   9.3963890  59.5460129  78.0505829
  60.6244659  52.0411835  71.6908493  60.7739449  51.1414528  71.9813156
  59.7230568  52.0422707  71.3688278  86.0622482   0.7561952  50.6721497
  85.5479813   1.4853001  51.0187950  86.8853226   1.1559317  50.3910866
  51.5568008  37.1710014   6.1549463  51.9875221  36.8372078   5.3679962
  52.0603027  36.7996368   6.8793783   0.1703728  24.1791973  55.0121956
  -0.1813889  23.3470821  55.3285522   0.3043635  24.0415592  54.0744667
  81.7627716  16.7813492  12.3730078  82.4476624  16.3041458  12.8414478
  82.0482559  16.7746754  11.4593973  74.3032227   2.4163535  52.6904984
  75.0200882   2.9019573  53.0985680  73.9056625   3.0409484  52.0838165
  62.8829803  10.4857197  35.2275162  62.0793610  10.2313862  34.7739296
  63.5607529   9.9288931  34.8443680  31.2939911  49.7926826  13.8837814
  31.9294243  49.0882263  13.7565098  30.8581200  49.8781471  13.0358763
  79.6358566  45.3452415  38.8011513  80.4043350  45.5303268  39.3409843
  79.5894699  46.0807533  38.1903305  19.9953098  40.7869301  71.8312454
  19.6681786  39.9255867  72.0906677  20.7275829  40.5982323  71.2443924
  68.5476837  38.8304520  54.6106377  68.9277267  39.5720482  55.0816307
  67.6173248  39.0437508  54.5387383  85.7677002  69.7508469  29.5309582
  86.4241791  69.4597855  30.1638489  84.9371490  69.6919403  30.0031300
  64.9586334  19.0774422  84.8624344  65.7664032  19.3609486  85.2906342
  65.0020676  18.1213570  84.8781052  86.3480377  60.2469597  65.2550964
  85.4731598  60.5900879  65.4369736  86.8239212  60.9894295  64.8829346
  52.7801933  14.0561552  26.6726551  52.2418251  14.0928688  27.4632530
  53.1717148  14.9272852  26.6088314  34.4043884  35.9776535  12.3228970
  33.7716370  36.6526489  12.0774651  34.1941566  35.7721519  13.2338324
  38.3086128  24.2023296  45.8037415  38.2810974  23.2858982  46.0787468
  39.2203789  24.3496780  45.5523376  44.0307121  15.5687151   5.9478850
  44.8119278  15.4069443   5.4189577  44.3596992  16.0049725   6.7338104
  35.8925858  62.8125763  73.9317169  36.1734047  62.3918877  73.1190720
  36.6302032  62.6939812  74.5301208  10.7210722  62.2371750  60.2212791
  10.8061867  62.9201851  59.5560799  10.3283319  62.6819649  60.9723778
  61.3896294   9.1352329  62.0886726  61.0391197   8.7805882  62.9057426
  61.4122047   8.3864822  61.4927750  80.9479523  19.7558174  84.9927216
  81.5405350  19.9952087  85.7052994  80.1886292  19.3720722  85.4313583
  15.3064709  50.6997070  72.0682831  16.1335239  50.5394325  71.6138306
  15.5154686  50.5813408  72.9948578  59.9206772  31.7944145  33.3041306
  59.8519211  31.1595802  32.5910454  59.7101517  32.6350212  32.8975716
  77.3969193  56.2375870  71.8624115  76.5227203  55.8629875  71.9705048
  77.4228668  56.5257454  70.9499817  79.9507523  43.4188728  31.8658867
  80.5477066  44.1646156  31.8046780  79.2475357  43.6237831  31.2496662
   5.5366454  10.0051031  23.4507084   4.7773857   9.8832560  24.0207176
   6.1895580  10.4278727  24.0085640  55.9374008  25.7108898  73.6912231
  55.1404800  25.1868515  73.6103897  55.9087524  26.0541916  74.5842819
  48.7062988  45.8196678  49.4265556  49.1627769  45.2975235  48.7668419
  47.8537254  45.3947716  49.5204391  46.8131294  65.9216156  71.9719315
  46.3176422  66.7400742  72.0010757  47.4509277  66.0525970  71.2703018
  79.7581177  39.9318314  87.0707397  79.0668030  40.4773293  87.4459076
  80.3647003  39.7816086  87.7958069  67.0509186  51.5662041  29.7848186
  67.3421326  50.7708397  30.2307167  67.5093918  51.5513229  28.9446945
  71.5810699  27.3666553  35.6444855  72.2840500  27.3956242  34.9954720
  70.8637848  27.8568439  35.2426834  54.7264786  24.8023071  66.5140762
  55.4839439  25.1858788  66.9560623  54.1933022  25.5543633  66.2564545
  56.2140236  43.6966934  56.3483658  55.6706085  43.2702789  57.0110130
  56.4866371  44.5191307  56.7551956  75.5888443  44.8366318  18.1251144
  75.5476379  43.9729462  18.5357018  76.4155197  44.8332481  17.6425915
  47.5853882  66.2979202  44.5933685  48.5014648  66.0925751  44.4066391
  47.1699066  65.4450455  44.7207184  64.0401993  25.8242245  59.2638741
  63.1687241  25.7048321  59.6413689  64.0619354  26.7433338  58.9974213
  11.4493151  70.3898773  88.2267075  10.5411263  70.2994995  87.9381638
  11.3987703  70.9409180  89.0077515   2.2875664  25.5081234  48.8771439
   1.5245879  25.3722496  48.3153305   2.8152447  24.7182007  48.7596397
  66.6308746  11.5592318  39.8066788  66.8025665  12.1871281  40.5084610
  66.9598846  10.7263327  40.1447067  50.2553215  19.7438030  45.2705383
  49.8585243  19.6925488  44.4009628  50.7121811  20.5849209  45.2761345
  86.7581590  71.5841050  89.1181270  90.0000000  90.0000000  90.0000000
